
                                 *****************
                                 * O   R   C   A *
                                 *****************

                                            #,                                       
                                            ###                                      
                                            ####                                     
                                            #####                                    
                                            ######                                   
                                           ########,                                 
                                     ,,################,,,,,                         
                               ,,#################################,,                 
                          ,,##########################################,,             
                       ,#########################################, ''#####,          
                    ,#############################################,,   '####,        
                  ,##################################################,,,,####,       
                ,###########''''           ''''###############################       
              ,#####''   ,,,,##########,,,,          '''####'''          '####       
            ,##' ,,,,###########################,,,                        '##       
           ' ,,###''''                  '''############,,,                           
         ,,##''                                '''############,,,,        ,,,,,,###''
      ,#''                                            '''#######################'''  
     '                                                          ''''####''''         
             ,#######,   #######,   ,#######,      ##                                
            ,#'     '#,  ##    ##  ,#'     '#,    #''#        ######   ,####,        
            ##       ##  ##   ,#'  ##            #'  '#       #        #'  '#        
            ##       ##  #######   ##           ,######,      #####,   #    #        
            '#,     ,#'  ##    ##  '#,     ,#' ,#      #,         ##   #,  ,#        
             '#######'   ##     ##  '#######'  #'      '#     #####' # '####'        



                  #######################################################
                  #                        -***-                        #
                  #          Department of theory and spectroscopy      #
                  #    Directorship and core code : Frank Neese         #
                  #        Max Planck Institute fuer Kohlenforschung    #
                  #                Kaiser Wilhelm Platz 1               #
                  #                 D-45470 Muelheim/Ruhr               #
                  #                      Germany                        #
                  #                                                     #
                  #                  All rights reserved                #
                  #                        -***-                        #
                  #######################################################


                         Program Version 5.0.2 -  RELEASE  -


 With contributions from (in alphabetic order):
   Daniel Aravena         : Magnetic Suceptibility
   Michael Atanasov       : Ab Initio Ligand Field Theory (pilot matlab implementation)
   Alexander A. Auer      : GIAO ZORA, VPT2 properties, NMR spectrum
   Ute Becker             : Parallelization
   Giovanni Bistoni       : ED, misc. LED, open-shell LED, HFLD
   Martin Brehm           : Molecular dynamics
   Dmytro Bykov           : SCF Hessian
   Vijay G. Chilkuri      : MRCI spin determinant printing, contributions to CSF-ICE
   Dipayan Datta          : RHF DLPNO-CCSD density
   Achintya Kumar Dutta   : EOM-CC, STEOM-CC
   Dmitry Ganyushin       : Spin-Orbit,Spin-Spin,Magnetic field MRCI
   Miquel Garcia          : C-PCM and meta-GGA Hessian, CC/C-PCM, Gaussian charge scheme
   Yang Guo               : DLPNO-NEVPT2, F12-NEVPT2, CIM, IAO-localization
   Andreas Hansen         : Spin unrestricted coupled pair/coupled cluster methods
   Benjamin Helmich-Paris : MC-RPA, TRAH-SCF, COSX integrals
   Lee Huntington         : MR-EOM, pCC
   Robert Izsak           : Overlap fitted RIJCOSX, COSX-SCS-MP3, EOM
   Marcus Kettner         : VPT2
   Christian Kollmar      : KDIIS, OOCD, Brueckner-CCSD(T), CCSD density, CASPT2, CASPT2-K
   Simone Kossmann        : Meta GGA functionals, TD-DFT gradient, OOMP2, MP2 Hessian
   Martin Krupicka        : Initial AUTO-CI
   Lucas Lang             : DCDCAS
   Marvin Lechner         : AUTO-CI (C++ implementation), FIC-MRCC
   Dagmar Lenk            : GEPOL surface, SMD
   Dimitrios Liakos       : Extrapolation schemes; Compound Job, initial MDCI parallelization
   Dimitrios Manganas     : Further ROCIS development; embedding schemes
   Dimitrios Pantazis     : SARC Basis sets
   Anastasios Papadopoulos: AUTO-CI, single reference methods and gradients
   Taras Petrenko         : DFT Hessian,TD-DFT gradient, ASA, ECA, R-Raman, ABS, FL, XAS/XES, NRVS
   Peter Pinski           : DLPNO-MP2, DLPNO-MP2 Gradient
   Christoph Reimann      : Effective Core Potentials
   Marius Retegan         : Local ZFS, SOC
   Christoph Riplinger    : Optimizer, TS searches, QM/MM, DLPNO-CCSD(T), (RO)-DLPNO pert. Triples
   Tobias Risthaus        : Range-separated hybrids, TD-DFT gradient, RPA, STAB
   Michael Roemelt        : Original ROCIS implementation
   Masaaki Saitow         : Open-shell DLPNO-CCSD energy and density
   Barbara Sandhoefer     : DKH picture change effects
   Avijit Sen             : IP-ROCIS
   Kantharuban Sivalingam : CASSCF convergence, NEVPT2, FIC-MRCI
   Bernardo de Souza      : ESD, SOC TD-DFT
   Georgi Stoychev        : AutoAux, RI-MP2 NMR, DLPNO-MP2 response
   Willem Van den Heuvel  : Paramagnetic NMR
   Boris Wezisla          : Elementary symmetry handling
   Frank Wennmohs         : Technical directorship


 We gratefully acknowledge several colleagues who have allowed us to
 interface, adapt or use parts of their codes:
   Stefan Grimme, W. Hujo, H. Kruse, P. Pracht,  : VdW corrections, initial TS optimization,
                  C. Bannwarth, S. Ehlert          DFT functionals, gCP, sTDA/sTD-DF
   Ed Valeev, F. Pavosevic, A. Kumar             : LibInt (2-el integral package), F12 methods
   Garnet Chan, S. Sharma, J. Yang, R. Olivares  : DMRG
   Ulf Ekstrom                                   : XCFun DFT Library
   Mihaly Kallay                                 : mrcc  (arbitrary order and MRCC methods)
   Jiri Pittner, Ondrej Demel                    : Mk-CCSD
   Frank Weinhold                                : gennbo (NPA and NBO analysis)
   Christopher J. Cramer and Donald G. Truhlar   : smd solvation model
   Lars Goerigk                                  : TD-DFT with DH, B97 family of functionals
   V. Asgeirsson, H. Jonsson                     : NEB implementation
   FAccTs GmbH                                   : IRC, NEB, NEB-TS, DLPNO-Multilevel, CI-OPT
                                                   MM, QMMM, 2- and 3-layer-ONIOM, Crystal-QMMM,
                                                   LR-CPCM, SF, NACMEs, symmetry and pop. for TD-DFT,
                                                   nearIR, NL-DFT gradient (VV10), updates on ESD,
                                                   ML-optimized integration grids
   S Lehtola, MJT Oliveira, MAL Marques          : LibXC Library
   Liviu Ungur et al                             : ANISO software


 Your calculation uses the libint2 library for the computation of 2-el integrals
 For citations please refer to: http://libint.valeyev.net

 Your ORCA version has been built with support for libXC version: 5.1.0
 For citations please refer to: https://tddft.org/programs/libxc/

 This ORCA versions uses:
   CBLAS   interface :  Fast vector & matrix operations
   LAPACKE interface :  Fast linear algebra routines
   SCALAPACK package :  Parallel linear algebra routines
   Shared memory     :  Shared parallel matrices
   BLAS/LAPACK       :  OpenBLAS 0.3.15  USE64BITINT DYNAMIC_ARCH NO_AFFINITY Zen SINGLE_THREADED
        Core in use  :  Zen
   Copyright (c) 2011-2014, The OpenBLAS Project


Your calculation utilizes the atom-pairwise dispersion correction
based on tight binding partial charges (D4)
Cite in your paper:
E.Caldeweyher, C.Bannwarth, S.Grimme, J.Chem.Phys., (2017), 147, 034112.
E.Caldeweyher, S.Ehlert, A.Hansen, H.Neugebauer, S.Grimme, J.Chem.Phys., (2018), in progress.
   

================================================================================

----- Orbital basis set information -----
Your calculation utilizes the basis: pcJ-0
   F. Jensen, Theor. Chem. Acc. 126, 371 (2010).

----- AuxJ basis set information -----
Your calculation utilizes the auxiliary basis: def2/J
   F. Weigend, Phys. Chem. Chem. Phys. 8, 1057 (2006).

================================================================================
                                        WARNINGS
                       Please study these warnings very carefully!
================================================================================


INFO   : the flag for use of the SHARK integral package has been found!

================================================================================
                                       INPUT FILE
================================================================================
NAME = inpJ
|  1> ! pbe0
|  2> ! D4
|  3> ! pcJ-0
|  4> ! def2/J RIJCOSX
|  5> ! DEFGRID2
|  6> ! scfconv7
|  7> ! smallprint printgap noloewdin
|  8> ! NOSOSCF
|  9> %MaxCore 4000
| 10> %output
| 11>        print[P_BondOrder_M] 1
| 12>        print[P_Mayer] 1
| 13>        print[P_basis] 2
| 14> end
| 15> %pal
| 16>     nprocs 4
| 17> end
| 18> ! CPCM(chloroform)
| 19> *xyz 0 1
| 20> C   -5.1679386200   0.2533097700   0.2125188200
| 21> C   -6.5533920900  -0.2507334900  -0.1174695200
| 22> C   -7.1249328700   0.4303545300  -1.3668895800
| 23> H   -7.2345291200  -0.0208599100   0.7194853900
| 24> H   -6.5472820900  -1.3376808700  -0.2541444100
| 25> C   -5.0527015200   1.7266728200   0.2556902800
| 26> C   -5.6695060900   2.4389771600  -0.9266783000
| 27> C   -7.0960294800   1.9459471800  -1.2047307100
| 28> H   -5.0526968800   2.2362700800  -1.8154112000
| 29> H   -5.6604079100   3.5217352400  -0.7629912200
| 30> H   -7.4930957100   2.4220809500  -2.1089712900
| 31> H   -7.7523866900   2.2229253900  -0.3659153100
| 32> O   -8.4437582300  -0.0491528300  -1.6603776000
| 33> H   -6.5201573900   0.1452997700  -2.2391482700
| 34> C   -4.1415667500  -0.6087936200   0.4051288900
| 35> C   -4.4934237900   2.3905420400   1.2739364900
| 36> H   -4.0789869600   1.8674504700   2.1311624700
| 37> H   -4.4485767700   3.4770956900   1.2757021700
| 38> C   -2.7586584600  -0.2587607800   0.6322015400
| 39> H   -4.3852530200  -1.6684101300   0.3407366200
| 40> C   -1.7516351100  -1.1114021400   0.9196129600
| 41> H   -2.5158032100   0.7984922300   0.5524123200
| 42> C   -1.8896821800  -2.5986665600   1.1267156700
| 43> C   -0.8893360300  -3.3967978800   0.2691613200
| 44> H   -2.9073589100  -2.9505801000   0.9361855500
| 45> H   -1.6755488600  -2.8100097300   2.1868191000
| 46> C    0.5513457700  -2.8880744300   0.4144176100
| 47> H   -1.1961683200  -3.3449738000  -0.7831013600
| 48> H   -0.9355794500  -4.4548811100   0.5548082600
| 49> C    0.6546623400  -1.3826445000   0.1314587100
| 50> H    1.2020275700  -3.4651236000  -0.2508125900
| 51> H    0.8982467200  -3.0727687900   1.4423394300
| 52> C   -0.3350837300  -0.6578852600   1.0967336100
| 53> H   -0.0277880400  -0.9869219400   2.1072425400
| 54> C    0.0393073100   0.8142970400   0.9688363700
| 55> H   -9.0119208700   0.1875373200  -0.9150837300
| 56> C    1.5806445800   0.7802141700   0.8320448900
| 57> H   -0.2965162200   1.4048529200   1.8279370600
| 58> H   -0.4195997300   1.2535777700   0.0758091600
| 59> C    1.9879952100  -0.7017765800   0.5552423200
| 60> H    2.0660289200   1.1532520500   1.7379109200
| 61> H    1.9211843400   1.4243106100   0.0123231600
| 62> H    2.2766315300  -1.1738865900   1.5076958900
| 63> C    3.1854565200  -0.7987252700  -0.4004316300
| 64> C    0.3100981400  -1.0721800500  -1.3320348200
| 65> H   -0.7482241000  -1.2594377800  -1.5383086400
| 66> H    0.9006580700  -1.6948390200  -2.0125079200
| 67> H    0.5098989400  -0.0255806300  -1.5831082200
| 68> H    2.9049582500  -0.2860137500  -1.3343758200
| 69> C    3.5833520000  -2.2399250100  -0.7697429300
| 70> C    4.4253303800  -0.1039219300   0.1177940400
| 71> C    4.7214479100   0.2051094700   1.3791720700
| 72> H    5.1775501600   0.1062549500  -0.6479954400
| 73> H    4.0038167000  -0.0028572100   2.1763331600
| 74> C    6.0125036800   0.8251324600   1.8367297200
| 75> C    6.7430923500  -0.1591560400   2.7645567900
| 76> C    5.7540331900   2.1916453100   2.5179370500
| 77> H    6.6433367100   1.0073638100   0.9519748200
| 78> H    5.0693676500   2.0091923600   3.3624407000
| 79> C    5.0767030400   3.1658719900   1.5503804500
| 80> C    7.0397033500   2.8150599800   3.0693622500
| 81> H    6.8348427200  -1.1383360400   2.2833738800
| 82> H    6.1849590400  -0.2935493000   3.6997764400
| 83> H    7.7495207500   0.1882853000   3.0157184500
| 84> H    4.8752428300   4.1246585000   2.0407015000
| 85> H    4.1304458300   2.7667720000   1.1726038200
| 86> H    5.7273197300   3.3583804300   0.6872187600
| 87> H    7.7908080200   2.9135839400   2.2747533300
| 88> H    7.4763415300   2.2214231900   3.8774301900
| 89> H    6.8390407600   3.8169673800   3.4647524600
| 90> H    4.5241729000  -2.2421947500  -1.3315397200
| 91> H    2.8270123300  -2.7302534900  -1.3880171700
| 92> H    3.7329279000  -2.8375400400   0.1371453900
| 93> *
| 94> %eprnmr
| 95>  Nuclei = all H { ssfc }
| 96>  SpinSpinRThresh 8.0
| 97> end
| 98> 
| 99>                          ****END OF INPUT****
================================================================================

                       ****************************
                       * Single Point Calculation *
                       ****************************

---------------------------------
CARTESIAN COORDINATES (ANGSTROEM)
---------------------------------
  C     -5.167939    0.253310    0.212519
  C     -6.553392   -0.250733   -0.117470
  C     -7.124933    0.430355   -1.366890
  H     -7.234529   -0.020860    0.719485
  H     -6.547282   -1.337681   -0.254144
  C     -5.052702    1.726673    0.255690
  C     -5.669506    2.438977   -0.926678
  C     -7.096029    1.945947   -1.204731
  H     -5.052697    2.236270   -1.815411
  H     -5.660408    3.521735   -0.762991
  H     -7.493096    2.422081   -2.108971
  H     -7.752387    2.222925   -0.365915
  O     -8.443758   -0.049153   -1.660378
  H     -6.520157    0.145300   -2.239148
  C     -4.141567   -0.608794    0.405129
  C     -4.493424    2.390542    1.273936
  H     -4.078987    1.867450    2.131162
  H     -4.448577    3.477096    1.275702
  C     -2.758658   -0.258761    0.632202
  H     -4.385253   -1.668410    0.340737
  C     -1.751635   -1.111402    0.919613
  H     -2.515803    0.798492    0.552412
  C     -1.889682   -2.598667    1.126716
  C     -0.889336   -3.396798    0.269161
  H     -2.907359   -2.950580    0.936186
  H     -1.675549   -2.810010    2.186819
  C      0.551346   -2.888074    0.414418
  H     -1.196168   -3.344974   -0.783101
  H     -0.935579   -4.454881    0.554808
  C      0.654662   -1.382644    0.131459
  H      1.202028   -3.465124   -0.250813
  H      0.898247   -3.072769    1.442339
  C     -0.335084   -0.657885    1.096734
  H     -0.027788   -0.986922    2.107243
  C      0.039307    0.814297    0.968836
  H     -9.011921    0.187537   -0.915084
  C      1.580645    0.780214    0.832045
  H     -0.296516    1.404853    1.827937
  H     -0.419600    1.253578    0.075809
  C      1.987995   -0.701777    0.555242
  H      2.066029    1.153252    1.737911
  H      1.921184    1.424311    0.012323
  H      2.276632   -1.173887    1.507696
  C      3.185457   -0.798725   -0.400432
  C      0.310098   -1.072180   -1.332035
  H     -0.748224   -1.259438   -1.538309
  H      0.900658   -1.694839   -2.012508
  H      0.509899   -0.025581   -1.583108
  H      2.904958   -0.286014   -1.334376
  C      3.583352   -2.239925   -0.769743
  C      4.425330   -0.103922    0.117794
  C      4.721448    0.205109    1.379172
  H      5.177550    0.106255   -0.647995
  H      4.003817   -0.002857    2.176333
  C      6.012504    0.825132    1.836730
  C      6.743092   -0.159156    2.764557
  C      5.754033    2.191645    2.517937
  H      6.643337    1.007364    0.951975
  H      5.069368    2.009192    3.362441
  C      5.076703    3.165872    1.550380
  C      7.039703    2.815060    3.069362
  H      6.834843   -1.138336    2.283374
  H      6.184959   -0.293549    3.699776
  H      7.749521    0.188285    3.015718
  H      4.875243    4.124658    2.040701
  H      4.130446    2.766772    1.172604
  H      5.727320    3.358380    0.687219
  H      7.790808    2.913584    2.274753
  H      7.476342    2.221423    3.877430
  H      6.839041    3.816967    3.464752
  H      4.524173   -2.242195   -1.331540
  H      2.827012   -2.730253   -1.388017
  H      3.732928   -2.837540    0.137145

----------------------------
CARTESIAN COORDINATES (A.U.)
----------------------------
  NO LB      ZA    FRAG     MASS         X           Y           Z
   0 C     6.0000    0    12.011   -9.765989    0.478686    0.401602
   1 C     6.0000    0    12.011  -12.384116   -0.473818   -0.221985
   2 C     6.0000    0    12.011  -13.464172    0.813252   -2.583047
   3 H     1.0000    0     1.008  -13.671279   -0.039420    1.359630
   4 H     1.0000    0     1.008  -12.372570   -2.527850   -0.480263
   5 C     6.0000    0    12.011   -9.548222    3.262939    0.483185
   6 C     6.0000    0    12.011  -10.713814    4.608999   -1.751168
   7 C     6.0000    0    12.011  -13.409552    3.677307   -2.276611
   8 H     1.0000    0     1.008   -9.548213    4.225938   -3.430630
   9 H     1.0000    0     1.008  -10.696621    6.655115   -1.441844
  10 H     1.0000    0     1.008  -14.159899    4.577070   -3.985378
  11 H     1.0000    0     1.008  -14.649888    4.200720   -0.691480
  12 O     8.0000    0    15.999  -15.956391   -0.092885   -3.137659
  13 H     1.0000    0     1.008  -12.321312    0.274577   -4.231377
  14 C     6.0000    0    12.011   -7.826427   -1.150453    0.765583
  15 C     6.0000    0    12.011   -8.491340    4.517470    2.407391
  16 H     1.0000    0     1.008   -7.708168    3.528970    4.027313
  17 H     1.0000    0     1.008   -8.406592    6.570759    2.410728
  18 C     6.0000    0    12.011   -5.213109   -0.488987    1.194688
  19 H     1.0000    0     1.008   -8.286927   -3.152838    0.643899
  20 C     6.0000    0    12.011   -3.310111   -2.100246    1.737817
  21 H     1.0000    0     1.008   -4.754179    1.508932    1.043908
  22 C     6.0000    0    12.011   -3.570982   -4.910768    2.129184
  23 C     6.0000    0    12.011   -1.680602   -6.419018    0.508641
  24 H     1.0000    0     1.008   -5.494112   -5.575788    1.769134
  25 H     1.0000    0     1.008   -3.166328   -5.310149    4.132489
  26 C     6.0000    0    12.011    1.041893   -5.457670    0.783136
  27 H     1.0000    0     1.008   -2.260431   -6.321084   -1.479847
  28 H     1.0000    0     1.008   -1.767989   -8.418505    1.048436
  29 C     6.0000    0    12.011    1.237133   -2.612819    0.248421
  30 H     1.0000    0     1.008    2.271503   -6.548135   -0.473967
  31 H     1.0000    0     1.008    1.697440   -5.806691    2.725627
  32 C     6.0000    0    12.011   -0.633216   -1.243223    2.072526
  33 H     1.0000    0     1.008   -0.052512   -1.865012    3.982111
  34 C     6.0000    0    12.011    0.074280    1.538798    1.830835
  35 H     1.0000    0     1.008  -17.030062    0.354394   -1.729258
  36 C     6.0000    0    12.011    2.986985    1.474391    1.572337
  37 H     1.0000    0     1.008   -0.560334    2.654787    3.454300
  38 H     1.0000    0     1.008   -0.792929    2.368919    0.143259
  39 C     6.0000    0    12.011    3.756767   -1.326166    1.049256
  40 H     1.0000    0     1.008    3.904229    2.179331    3.284176
  41 H     1.0000    0     1.008    3.630512    2.691557    0.023287
  42 H     1.0000    0     1.008    4.302210   -2.218324    2.849132
  43 C     6.0000    0    12.011    6.019640   -1.509372   -0.756706
  44 C     6.0000    0    12.011    0.586001   -2.026127   -2.517181
  45 H     1.0000    0     1.008   -1.413939   -2.379992   -2.906982
  46 H     1.0000    0     1.008    1.701997   -3.202782   -3.803089
  47 H     1.0000    0     1.008    0.963569   -0.048340   -2.991641
  48 H     1.0000    0     1.008    5.489576   -0.540488   -2.521605
  49 C     6.0000    0    12.011    6.771554   -4.232845   -1.454603
  50 C     6.0000    0    12.011    8.362662   -0.196384    0.222598
  51 C     6.0000    0    12.011    8.922244    0.387601    2.606258
  52 H     1.0000    0     1.008    9.784152    0.200793   -1.224534
  53 H     1.0000    0     1.008    7.566117   -0.005399    4.112674
  54 C     6.0000    0    12.011   11.361985    1.559274    3.470916
  55 C     6.0000    0    12.011   12.742598   -0.300761    5.224255
  56 C     6.0000    0    12.011   10.873547    4.141609    4.758211
  57 H     1.0000    0     1.008   12.554087    1.903642    1.798972
  58 H     1.0000    0     1.008    9.579717    3.796823    6.354092
  59 C     6.0000    0    12.011    9.593578    5.982631    2.929794
  60 C     6.0000    0    12.011   13.303111    5.319692    5.800254
  61 H     1.0000    0     1.008   12.915981   -2.151143    4.314951
  62 H     1.0000    0     1.008   11.687879   -0.554728    6.991564
  63 H     1.0000    0     1.008   14.644472    0.355808    5.698882
  64 H     1.0000    0     1.008    9.212874    7.794475    3.856367
  65 H     1.0000    0     1.008    7.805411    5.228441    2.215900
  66 H     1.0000    0     1.008   10.823066    6.346419    1.298655
  67 H     1.0000    0     1.008   14.722494    5.505876    4.298661
  68 H     1.0000    0     1.008   14.128238    4.197881    7.327281
  69 H     1.0000    0     1.008   12.923914    7.213023    6.547433
  70 H     1.0000    0     1.008    8.549448   -4.237134   -2.516245
  71 H     1.0000    0     1.008    5.342279   -5.159431   -2.622972
  72 H     1.0000    0     1.008    7.054211   -5.362174    0.259167

--------------------------------
INTERNAL COORDINATES (ANGSTROEM)
--------------------------------
 C      0   0   0     0.000000000000     0.00000000     0.00000000
 C      1   0   0     1.510772395175     0.00000000     0.00000000
 C      2   1   0     1.533489563225   111.81256139     0.00000000
 H      2   1   3     1.103305505194   109.32609033   241.47249984
 H      2   1   3     1.095523602916   110.68049656   122.94153647
 C      1   2   3     1.478493165787   114.22556635    50.17518564
 C      6   1   2     1.511893121000   114.51087159   312.25842924
 C      3   2   1     1.524516968029   110.35360719   305.18291002
 H      7   6   1     1.100631604746   108.42606313   289.95195856
 H      7   6   1     1.095098761228   110.21483732   172.72266897
 H      8   3   2     1.096364895671   109.70318863   179.18283816
 H      8   3   2     1.100514875506   108.66131711   296.63611916
 O      3   2   1     1.433653673785   111.16748036   180.51541204
 H      3   2   1     1.099019935983   109.04763615    65.34999782
 C      1   2   3     1.354163989199   120.91280200   232.01348951
 C      6   1   2     1.338035599196   123.31421424   129.98475052
 H     16   6   1     1.086378873806   121.40190776     0.66674266
 H     16   6   1     1.087480210007   120.94415776   181.35957038
 C     15   1   2     1.444479254267   126.42133350   175.38558272
 H     15   1   2     1.089181578474   116.19104779   358.03301334
 C     19  15   1     1.350443867984   126.46777835   174.88198887
 H     19  15   1     1.087717297479   115.96104282   354.31438652
 C     21  19  15     1.507946942377   125.70998704   356.81339925
 C     23  21  19     1.540488716930   112.03016400   129.02478421
 H     23  21  19     1.093531340678   112.25111628     4.79305732
 H     23  21  19     1.101970188588   107.66733606   247.69893054
 C     24  23  21     1.534751767295   112.65277635    50.48464595
 H     24  23  21     1.097309681528   109.13388630   288.34447025
 H     24  23  21     1.096937896980   109.11193698   172.38198677
 C     27  24  23     1.535271743655   111.76210108   306.06167760
 H     27  24  23     1.094944641724   109.00473013   182.49297286
 H     27  24  23     1.100488774935   109.18848436    65.97103965
 C     21  19  15     1.497887544938   122.62982719   178.00362873
 H     33  21  19     1.106265824966   106.29914844   122.81079164
 C     33  21  19     1.524416963716   120.97979806     0.47765776
 H     13   3   2     0.966588829471   107.51619971    62.61325502
 C     35  33  21     1.547770697138   103.33971685   194.97422407
 H     35  33  21     1.095256904230   112.30924621    73.19189895
 H     35  33  21     1.095929207983   110.64767417   313.52457544
 C     30  27  24     1.555940299244   115.88434222   166.76894704
 H     37  35  33     1.093319935673   111.18430580   251.64848983
 H     37  35  33     1.096709290011   111.24430825   133.35006808
 H     40  30  27     1.101529205138   105.81296296   321.87416922
 C     40  30  27     1.535130397116   118.11525291    82.72956657
 C     30  27  24     1.535228313635   111.03180085   295.04226768
 H     45  30  27     1.094376676442   111.23041812    67.84639100
 H     45  30  27     1.095220920028   110.87244021   307.80068097
 H     45  30  27     1.094681943677   111.77856367   187.72590328
 H     44  40  30     1.101727794080   107.44215045    62.64326675
 C     44  40  30     1.540054654838   114.19984823   303.71911833
 C     44  40  30     1.512810865585   113.39367696   180.14507352
 C     51  44  40     1.332013713265   127.81739016    21.57936268
 H     51  44  40     1.093820115919   114.33370209   197.73141581
 H     52  51  44     1.092570591297   120.04958996   356.98257177
 C     52  51  44     1.503533342647   125.08200842   176.15398363
 C     55  52  51     1.537350554620   109.12972914   243.88838085
 C     55  52  51     1.548614797121   110.75873844   119.81515213
 H     55  52  51     1.101793905291   108.38916635     1.95535204
 H     57  55  52     1.102380331596   107.13332640    58.05171569
 C     57  55  52     1.531032178083   110.93720581   299.98351793
 C     57  55  52     1.531555863258   112.17579514   176.68875920
 H     56  55  52     1.094873780703   110.31484878    52.09191335
 H     56  55  52     1.097365086838   110.55171085   292.80781777
 H     56  55  52     1.093935916094   111.86549639   172.24293015
 H     60  57  55     1.095569495762   110.81745531   178.78041728
 H     60  57  55     1.094257141475   111.63311157    57.91922979
 H     60  57  55     1.097911508211   110.25803257   298.17730223
 H     61  57  55     1.097847226044   110.50302109    55.95552002
 H     61  57  55     1.093632175062   112.34830912   295.15925076
 H     61  57  55     1.095635583287   110.39026089   175.01701533
 H     50  44  40     1.095794118825   110.28605593   188.15483808
 H     50  44  40     1.093039226452   112.12716515    68.20675946
 H     50  44  40     1.096340776809   110.30359531   307.12845545

---------------------------
INTERNAL COORDINATES (A.U.)
---------------------------
 C      0   0   0     0.000000000000     0.00000000     0.00000000
 C      1   0   0     2.854946077569     0.00000000     0.00000000
 C      2   1   0     2.897875303722   111.81256139     0.00000000
 H      2   1   3     2.084945246865   109.32609033   241.47249984
 H      2   1   3     2.070239582757   110.68049656   122.94153647
 C      1   2   3     2.793947174213   114.22556635    50.17518564
 C      6   1   2     2.857063942449   114.51087159   312.25842924
 C      3   2   1     2.880919556090   110.35360719   305.18291002
 H      7   6   1     2.079892307308   108.42606313   289.95195856
 H      7   6   1     2.069436748318   110.21483732   172.72266897
 H      8   3   2     2.071829395663   109.70318863   179.18283816
 H      8   3   2     2.079671721014   108.66131711   296.63611916
 O      3   2   1     2.709212814343   111.16748036   180.51541204
 H      3   2   1     2.076846694728   109.04763615    65.34999782
 C      1   2   3     2.558999080004   120.91280200   232.01348951
 C      6   1   2     2.528520839918   123.31421424   129.98475052
 H     16   6   1     2.052958549172   121.40190776     0.66674266
 H     16   6   1     2.055039772973   120.94415776   181.35957038
 C     15   1   2     2.729670196695   126.42133350   175.38558272
 H     15   1   2     2.058254893428   116.19104779   358.03301334
 C     19  15   1     2.551969069722   126.46777835   174.88198887
 H     19  15   1     2.055487803364   115.96104282   354.31438652
 C     21  19  15     2.849606745576   125.70998704   356.81339925
 C     23  21  19     2.911101787393   112.03016400   129.02478421
 H     23  21  19     2.066474752742   112.25111628     4.79305732
 H     23  21  19     2.082421864178   107.66733606   247.69893054
 C     24  23  21     2.900260523740   112.65277635    50.48464595
 H     24  23  21     2.073614782188   109.13388630   288.34447025
 H     24  23  21     2.072912211213   109.11193698   172.38198677
 C     27  24  23     2.901243136656   111.76210108   306.06167760
 H     27  24  23     2.069145504664   109.00473013   182.49297286
 H     27  24  23     2.079622398082   109.18848436    65.97103965
 C     21  19  15     2.830597239345   122.62982719   178.00362873
 H     33  21  19     2.090539440502   106.29914844   122.81079164
 C     33  21  19     2.880730575327   120.97979806     0.47765776
 H     13   3   2     1.826588171808   107.51619971    62.61325502
 C     35  33  21     2.924862735699   103.33971685   194.97422407
 H     35  33  21     2.069735595280   112.30924621    73.19189895
 H     35  33  21     2.071006065254   110.64767417   313.52457544
 C     30  27  24     2.940301046303   115.88434222   166.76894704
 H     37  35  33     2.066075255178   111.18430580   251.64848983
 H     37  35  33     2.072480206647   111.24430825   133.35006808
 H     40  30  27     2.081588526226   105.81296296   321.87416922
 C     40  30  27     2.900976030406   118.11525291    82.72956657
 C     30  27  24     2.901161065812   111.03180085   295.04226768
 H     45  30  27     2.068072205827   111.23041812    67.84639100
 H     45  30  27     2.069667594994   110.87244021   307.80068097
 H     45  30  27     2.068649077298   111.77856367   187.72590328
 H     44  40  30     2.081963804940   107.44215045    62.64326675
 C     44  40  30     2.910281528914   114.19984823   303.71911833
 C     44  40  30     2.858798228377   113.39367696   180.14507352
 C     51  44  40     2.517141124698   127.81739016    21.57936268
 H     51  44  40     2.067020458860   114.33370209   197.73141581
 H     52  51  44     2.064659199527   120.04958996   356.98257177
 C     52  51  44     2.841266250823   125.08200842   176.15398363
 C     55  52  51     2.905171520063   109.12972914   243.88838085
 C     55  52  51     2.926457853496   110.75873844   119.81515213
 H     55  52  51     2.082088737023   108.38916635     1.95535204
 H     57  55  52     2.083196922138   107.13332640    58.05171569
 C     57  55  52     2.893231518798   110.93720581   299.98351793
 C     57  55  52     2.894221140359   112.17579514   176.68875920
 H     56  55  52     2.069011596740   110.31484878    52.09191335
 H     56  55  52     2.073719483051   110.55171085   292.80781777
 H     56  55  52     2.067239289479   111.86549639   172.24293015
 H     60  57  55     2.070326307668   110.81745531   178.78041728
 H     60  57  55     2.067846317475   111.63311157    57.91922979
 H     60  57  55     2.074752069799   110.25803257   298.17730223
 H     61  57  55     2.074630594109   110.50302109    55.95552002
 H     61  57  55     2.066665302112   112.34830912   295.15925076
 H     61  57  55     2.070451194991   110.39026089   175.01701533
 H     50  44  40     2.070750783740   110.28605593   188.15483808
 H     50  44  40     2.065544791627   112.12716515    68.20675946
 H     50  44  40     2.071783817620   110.30359531   307.12845545

---------------------
BASIS SET INFORMATION
---------------------
There are 3 groups of distinct atoms

 Group   1 Type C   : 7s4p contracted to 4s3p pattern {4111/211}
 Group   2 Type H   : 5s contracted to 3s pattern {311}
 Group   3 Type O   : 7s4p contracted to 4s3p pattern {4111/211}

Atom   0C    basis set group =>   1
Atom   1C    basis set group =>   1
Atom   2C    basis set group =>   1
Atom   3H    basis set group =>   2
Atom   4H    basis set group =>   2
Atom   5C    basis set group =>   1
Atom   6C    basis set group =>   1
Atom   7C    basis set group =>   1
Atom   8H    basis set group =>   2
Atom   9H    basis set group =>   2
Atom  10H    basis set group =>   2
Atom  11H    basis set group =>   2
Atom  12O    basis set group =>   3
Atom  13H    basis set group =>   2
Atom  14C    basis set group =>   1
Atom  15C    basis set group =>   1
Atom  16H    basis set group =>   2
Atom  17H    basis set group =>   2
Atom  18C    basis set group =>   1
Atom  19H    basis set group =>   2
Atom  20C    basis set group =>   1
Atom  21H    basis set group =>   2
Atom  22C    basis set group =>   1
Atom  23C    basis set group =>   1
Atom  24H    basis set group =>   2
Atom  25H    basis set group =>   2
Atom  26C    basis set group =>   1
Atom  27H    basis set group =>   2
Atom  28H    basis set group =>   2
Atom  29C    basis set group =>   1
Atom  30H    basis set group =>   2
Atom  31H    basis set group =>   2
Atom  32C    basis set group =>   1
Atom  33H    basis set group =>   2
Atom  34C    basis set group =>   1
Atom  35H    basis set group =>   2
Atom  36C    basis set group =>   1
Atom  37H    basis set group =>   2
Atom  38H    basis set group =>   2
Atom  39C    basis set group =>   1
Atom  40H    basis set group =>   2
Atom  41H    basis set group =>   2
Atom  42H    basis set group =>   2
Atom  43C    basis set group =>   1
Atom  44C    basis set group =>   1
Atom  45H    basis set group =>   2
Atom  46H    basis set group =>   2
Atom  47H    basis set group =>   2
Atom  48H    basis set group =>   2
Atom  49C    basis set group =>   1
Atom  50C    basis set group =>   1
Atom  51C    basis set group =>   1
Atom  52H    basis set group =>   2
Atom  53H    basis set group =>   2
Atom  54C    basis set group =>   1
Atom  55C    basis set group =>   1
Atom  56C    basis set group =>   1
Atom  57H    basis set group =>   2
Atom  58H    basis set group =>   2
Atom  59C    basis set group =>   1
Atom  60C    basis set group =>   1
Atom  61H    basis set group =>   2
Atom  62H    basis set group =>   2
Atom  63H    basis set group =>   2
Atom  64H    basis set group =>   2
Atom  65H    basis set group =>   2
Atom  66H    basis set group =>   2
Atom  67H    basis set group =>   2
Atom  68H    basis set group =>   2
Atom  69H    basis set group =>   2
Atom  70H    basis set group =>   2
Atom  71H    basis set group =>   2
Atom  72H    basis set group =>   2

-------------------------
BASIS SET IN INPUT FORMAT
-------------------------

 # Basis set for element : H 
 NewGTO H 
 S 3 
   1    1357.7500000000      0.0012928364
   2      54.3100000000      0.0588280685
   3       4.3448000000      0.9761499708
 S 1 
   1       0.6604910000      1.0000000000
 S 1 
   1       0.1366870000      1.0000000000
  end;

 # Basis set for element : C 
 NewGTO C 
 S 4 
   1  139534.0000000000      0.0001655246
   2    5581.3600000000      0.0074486101
   3     446.5090000000      0.1285821065
   4      67.4620000000      0.9218029311
 S 1 
   1      15.0674000000      1.0000000000
 S 1 
   1       3.9387600000      1.0000000000
 S 1 
   1       0.2999150000      1.0000000000
 P 2 
   1      28.3900000000      0.0816325586
   2       4.3676900000      0.9660360576
 P 1 
   1       0.8698170000      1.0000000000
 P 1 
   1       0.1889340000      1.0000000000
  end;

 # Basis set for element : O 
 NewGTO O 
 S 4 
   1  253789.0000000000      0.0001641076
   2   10151.6000000000      0.0074010921
   3     812.1250000000      0.1277711901
   4     122.6930000000      0.9223372164
 S 1 
   1      27.5608000000      1.0000000000
 S 1 
   1       7.3172600000      1.0000000000
 S 1 
   1       0.5792400000      1.0000000000
 P 2 
   1      53.4157000000      0.0793786106
   2       8.2177900000      0.9670506337
 P 1 
   1       1.6754400000      1.0000000000
 P 1 
   1       0.3506720000      1.0000000000
  end;

---------------------------------
AUXILIARY/J BASIS SET INFORMATION
---------------------------------
There are 3 groups of distinct atoms

 Group   1 Type C   : 12s5p4d2f1g contracted to 6s4p3d1f1g pattern {711111/2111/211/2/1}
 Group   2 Type H   : 5s2p1d contracted to 3s1p1d pattern {311/2/1}
 Group   3 Type O   : 12s5p4d2f1g contracted to 6s4p3d1f1g pattern {711111/2111/211/2/1}

Atom   0C    basis set group =>   1
Atom   1C    basis set group =>   1
Atom   2C    basis set group =>   1
Atom   3H    basis set group =>   2
Atom   4H    basis set group =>   2
Atom   5C    basis set group =>   1
Atom   6C    basis set group =>   1
Atom   7C    basis set group =>   1
Atom   8H    basis set group =>   2
Atom   9H    basis set group =>   2
Atom  10H    basis set group =>   2
Atom  11H    basis set group =>   2
Atom  12O    basis set group =>   3
Atom  13H    basis set group =>   2
Atom  14C    basis set group =>   1
Atom  15C    basis set group =>   1
Atom  16H    basis set group =>   2
Atom  17H    basis set group =>   2
Atom  18C    basis set group =>   1
Atom  19H    basis set group =>   2
Atom  20C    basis set group =>   1
Atom  21H    basis set group =>   2
Atom  22C    basis set group =>   1
Atom  23C    basis set group =>   1
Atom  24H    basis set group =>   2
Atom  25H    basis set group =>   2
Atom  26C    basis set group =>   1
Atom  27H    basis set group =>   2
Atom  28H    basis set group =>   2
Atom  29C    basis set group =>   1
Atom  30H    basis set group =>   2
Atom  31H    basis set group =>   2
Atom  32C    basis set group =>   1
Atom  33H    basis set group =>   2
Atom  34C    basis set group =>   1
Atom  35H    basis set group =>   2
Atom  36C    basis set group =>   1
Atom  37H    basis set group =>   2
Atom  38H    basis set group =>   2
Atom  39C    basis set group =>   1
Atom  40H    basis set group =>   2
Atom  41H    basis set group =>   2
Atom  42H    basis set group =>   2
Atom  43C    basis set group =>   1
Atom  44C    basis set group =>   1
Atom  45H    basis set group =>   2
Atom  46H    basis set group =>   2
Atom  47H    basis set group =>   2
Atom  48H    basis set group =>   2
Atom  49C    basis set group =>   1
Atom  50C    basis set group =>   1
Atom  51C    basis set group =>   1
Atom  52H    basis set group =>   2
Atom  53H    basis set group =>   2
Atom  54C    basis set group =>   1
Atom  55C    basis set group =>   1
Atom  56C    basis set group =>   1
Atom  57H    basis set group =>   2
Atom  58H    basis set group =>   2
Atom  59C    basis set group =>   1
Atom  60C    basis set group =>   1
Atom  61H    basis set group =>   2
Atom  62H    basis set group =>   2
Atom  63H    basis set group =>   2
Atom  64H    basis set group =>   2
Atom  65H    basis set group =>   2
Atom  66H    basis set group =>   2
Atom  67H    basis set group =>   2
Atom  68H    basis set group =>   2
Atom  69H    basis set group =>   2
Atom  70H    basis set group =>   2
Atom  71H    basis set group =>   2
Atom  72H    basis set group =>   2

-------------------------------------
AUXILIARY/J BASIS SET IN INPUT FORMAT
-------------------------------------

 # Auxiliary/J basis set for element : H 
 NewAuxJGTO H 
 S 3 
   1      15.6752927000      0.1007184237
   2       3.6063578000      0.3404257499
   3       1.2080016000      0.6491996172
 S 1 
   1       0.4726794000      1.0000000000
 S 1 
   1       0.2018100000      1.0000000000
 P 2 
   1       2.0281365000      0.5596620919
   2       0.5358730000      0.5596620919
 D 1 
   1       2.2165124000      1.0000000000
  end;

 # Auxiliary/J basis set for element : C 
 NewAuxJGTO C 
 S 7 
   1    1861.0916331000      0.0134602335
   2     642.9939764000      0.0299160374
   3     235.1105725000      0.1008649584
   4      90.7028894000      0.2370970548
   5      36.7794552000      0.3924037254
   6      15.6046273000      0.3195862154
   7       6.8907294000      0.0530104441
 S 1 
   1       3.1478850000     -1.0000000000
 S 1 
   1       1.4777287000      1.0000000000
 S 1 
   1       0.7076466000      1.0000000000
 S 1 
   1       0.3430122000      1.0000000000
 S 1 
   1       0.1669453000      1.0000000000
 P 2 
   1      13.5472892000     -0.6769313712
   2       5.4669419000     -0.3779500978
 P 1 
   1       2.1751721000      1.0000000000
 P 1 
   1       0.8582194000      1.0000000000
 P 1 
   1       0.3376720000      1.0000000000
 D 2 
   1       5.9287253000     -0.3533329857
   2       1.9809209000     -0.7456525731
 D 1 
   1       0.8055417000     -1.0000000000
 D 1 
   1       0.3531244000     -1.0000000000
 F 2 
   1       1.6755626000      0.6311076882
   2       0.5997536000      0.4968166032
 G 1 
   1       1.0024600000     -1.0000000000
  end;

 # Auxiliary/J basis set for element : O 
 NewAuxJGTO O 
 S 7 
   1    2876.8216605000      0.0168151159
   2    1004.7443032000      0.0340137548
   3     369.7579954000      0.1194951309
   4     142.9442404000      0.2664627624
   5      57.8366425000      0.4202764046
   6      24.3864983000      0.2765077335
   7      10.6622662000      0.0057008815
 S 1 
   1       4.8070437000     -1.0000000000
 S 1 
   1       2.2210770000      1.0000000000
 S 1 
   1       1.0447795000      1.0000000000
 S 1 
   1       0.4968425000      1.0000000000
 S 1 
   1       0.2371384000      1.0000000000
 P 2 
   1      64.2613382000     -0.2731534179
   2      16.3006076000     -0.8168011598
 P 1 
   1       4.3550542000      1.0000000000
 P 1 
   1       1.2019554000      1.0000000000
 P 1 
   1       0.3354196000      1.0000000000
 D 2 
   1       9.2146611000     -0.4661230638
   2       2.8435251000     -0.6600908911
 D 1 
   1       0.9955759000     -1.0000000000
 D 1 
   1       0.3649441000     -1.0000000000
 F 2 
   1       2.6420115000      0.5931563945
   2       0.7345613000      0.5931563945
 G 1 
   1       1.3931000000     -1.0000000000
  end;



           ************************************************************
           *        Program running with 4 parallel MPI-processes     *
           *              working on a common directory               *
           ************************************************************
------------------------------------------------------------------------------
                           ORCA GTO INTEGRAL CALCULATION
                           -- RI-GTO INTEGRALS CHOSEN --
------------------------------------------------------------------------------
------------------------------------------------------------------------------
                   ___                                                        
                  /   \      - P O W E R E D   B Y -                         
                 /     \                                                     
                 |  |  |   _    _      __       _____    __    __             
                 |  |  |  | |  | |    /  \     |  _  \  |  |  /  |          
                  \  \/   | |  | |   /    \    | | | |  |  | /  /          
                 / \  \   | |__| |  /  /\  \   | |_| |  |  |/  /          
                |  |  |   |  __  | /  /__\  \  |    /   |      \           
                |  |  |   | |  | | |   __   |  |    \   |  |\   \          
                \     /   | |  | | |  |  |  |  | |\  \  |  | \   \       
                 \___/    |_|  |_| |__|  |__|  |_| \__\ |__|  \__/        
                                                                              
                      - O R C A' S   B I G   F R I E N D -                    
                                      &                                       
                       - I N T E G R A L  F E E D E R -                       
                                                                              
 v1 FN, 2020, v2 2021                                                         
------------------------------------------------------------------------------


Reading SHARK input file inpJ.SHARKINP.tmp ... ok
----------------------
SHARK INTEGRAL PACKAGE
----------------------

Number of atoms                             ...     73
Number of basis functions                   ...    509
Number of shells                            ...    335
Maximum angular momentum                    ...      1
Integral batch strategy                     ... SHARK/LIBINT Hybrid
RI-J (if used) integral strategy            ... SPLIT-RIJ (Revised 2003 algorithm where possible)
Printlevel                                  ...      1
Contraction scheme used                     ... SEGMENTED contraction
Coulomb Range Separation                    ... NOT USED
Exchange Range Separation                   ... NOT USED
Finite Nucleus Model                        ... NOT USED
Auxiliary Coulomb fitting basis             ... AVAILABLE
   # of basis functions in Aux-J            ...   1905
   # of shells in Aux-J                     ...    655
   Maximum angular momentum in Aux-J        ...      4
Auxiliary J/K fitting basis                 ... NOT available
Auxiliary Correlation fitting basis         ... NOT available
Auxiliary 'external' fitting basis          ... NOT available
Integral threshold                          ...     3.000000e-11
Primitive cut-off                           ...     1.000000e-12
Primitive pair pre-selection threshold      ...     1.000000e-12

Calculating pre-screening integrals         ... done (  0.0 sec) Dimension = 335
Organizing shell pair data                  ... done (  0.1 sec)
Shell pair information
Total number of shell pairs                 ...     56280
Shell pairs after pre-screening             ...     21893
Total number of primitive shell pairs       ...    145865
Primitive shell pairs kept                  ...     37613
          la=0 lb=0:  11023 shell pairs
          la=1 lb=0:   8997 shell pairs
          la=1 lb=1:   1873 shell pairs

Calculating one electron integrals          ... done (  0.0 sec)
Calculating RI/J V-Matrix + Cholesky decomp.... done (  0.2 sec)
Calculating Nuclear repulsion               ... done (  0.0 sec) ENN=   2779.438676980233 Eh

SHARK setup successfully completed in   0.4 seconds

Maximum memory used throughout the entire GTOINT-calculation: 46.3 MB


           ************************************************************
           *        Program running with 4 parallel MPI-processes     *
           *              working on a common directory               *
           ************************************************************
-------------------------------------------------------------------------------
                                 ORCA SCF
-------------------------------------------------------------------------------

------------
SCF SETTINGS
------------
Hamiltonian:
 Density Functional     Method          .... DFT(GTOs)
 Exchange Functional    Exchange        .... PBE
   PBE kappa parameter   XKappa         ....  0.804000
   PBE mue parameter    XMuePBE         ....  0.219520
 Correlation Functional Correlation     .... PBE
   PBE beta parameter  CBetaPBE         ....  0.066725
 LDA part of GGA corr.  LDAOpt          .... PW91-LDA
 Gradients option       PostSCFGGA      .... off
 Hybrid DFT is turned on
   Fraction HF Exchange ScalHFX         ....  0.250000
   Scaling of DF-GGA-X  ScalDFX         ....  0.750000
   Scaling of DF-GGA-C  ScalDFC         ....  1.000000
   Scaling of DF-LDA-C  ScalLDAC        ....  1.000000
   Perturbative correction              ....  0.000000
   Density functional embedding theory  .... OFF
   NL short-range parameter             ....  6.900000
 RI-approximation to the Coulomb term is turned on
   Number of AuxJ basis functions       .... 1905
   RIJ-COSX (HFX calculated with COS-X)).... on


General Settings:
 Integral files         IntName         .... inpJ
 Hartree-Fock type      HFTyp           .... RHF
 Total Charge           Charge          ....    0
 Multiplicity           Mult            ....    1
 Number of Electrons    NEL             ....  220
 Basis Dimension        Dim             ....  509
 Nuclear Repulsion      ENuc            ....   2779.4386769802 Eh

Convergence Acceleration:
 DIIS                   CNVDIIS         .... on
   Start iteration      DIISMaxIt       ....    12
   Startup error        DIISStart       ....  0.200000
   # of expansion vecs  DIISMaxEq       ....     5
   Bias factor          DIISBfac        ....   1.050
   Max. coefficient     DIISMaxC        ....  10.000
 Trust-Rad. Augm. Hess. CNVTRAH         .... auto
   Auto Start mean grad. ratio tolernc. ....  1.125000
   Auto Start start iteration           ....    20
   Auto Start num. interpolation iter.  ....    10
   Max. Number of Micro iterations      ....    16
   Max. Number of Macro iterations      .... Maxiter - #DIIS iter
   Number of Davidson start vectors     ....     2
   Converg. threshold I  (grad. norm)   ....   1.000e-04
   Converg. threshold II (energy diff.) ....   1.000e-07
   Grad. Scal. Fac. for Micro threshold ....   0.100
   Minimum threshold for Micro iter.    ....   0.010
   NR start threshold (gradient norm)   ....   0.001
   Initial trust radius                 ....   0.400
   Minimum AH scaling param. (alpha)    ....   1.000
   Maximum AH scaling param. (alpha)    .... 1000.000
   Orbital update algorithm             .... Taylor
   White noise on init. David. guess    .... on
   Maximum white noise                  ....   0.010
   Quad. conv. algorithm                .... NR
 SOSCF                  CNVSOSCF        .... off
 Level Shifting         CNVShift        .... on
   Level shift para.    LevelShift      ....    0.2500
   Turn off err/grad.   ShiftErr        ....    0.0010
 Zerner damping         CNVZerner       .... off
 Static damping         CNVDamp         .... on
   Fraction old density DampFac         ....    0.7000
   Max. Damping (<1)    DampMax         ....    0.9800
   Min. Damping (>=0)   DampMin         ....    0.0000
   Turn off err/grad.   DampErr         ....    0.1000
 Fernandez-Rico         CNVRico         .... off

SCF Procedure:
 Maximum # iterations   MaxIter         ....   125
 SCF integral mode      SCFMode         .... Direct
   Integral package                     .... SHARK and LIBINT hybrid scheme
 Reset frequency        DirectResetFreq ....    20
 Integral Threshold     Thresh          ....  3.000e-11 Eh
 Primitive CutOff       TCut            ....  1.000e-12 Eh

Convergence Tolerance:
 Convergence Check Mode ConvCheckMode   .... Total+1el-Energy
 Convergence forced     ConvForced      .... 0
 Energy Change          TolE            ....  1.000e-07 Eh
 1-El. energy change                    ....  1.000e-04 Eh
 DIIS Error             TolErr          ....  1.000e-07


Diagonalization of the overlap matrix:
Smallest eigenvalue                        ... 7.563e-03
Time for diagonalization                   ...    0.029 sec
Threshold for overlap eigenvalues          ... 1.000e-08
Number of eigenvalues below threshold      ... 0
Time for construction of square roots      ...    0.024 sec
Total time needed                          ...    0.053 sec

Time for model grid setup =    0.752 sec

------------------------------
INITIAL GUESS: MODEL POTENTIAL
------------------------------
Loading Hartree-Fock densities                     ... done
Calculating cut-offs                               ... done
Initializing the effective Hamiltonian             ... done
Setting up the integral package (SHARK)            ... done
Starting the Coulomb interaction                   ... done (   0.4 sec)
Reading the grid                                   ... done
Mapping shells                                     ... done
Starting the XC term evaluation                    ... done (   0.1 sec)
  promolecular density results
     # of electrons  =    219.983520595
     EX              =   -164.431528510
     EC              =     -7.325679067
     EX+EC           =   -171.757207577
Transforming the Hamiltonian                       ... done (   0.0 sec)
Diagonalizing the Hamiltonian                      ... done (   0.0 sec)
Back transforming the eigenvectors                 ... done (   0.0 sec)
Now organizing SCF variables                       ... done
                      ------------------
                      INITIAL GUESS DONE (   1.3 sec)
                      ------------------
-------------------
DFT GRID GENERATION
-------------------

General Integration Accuracy     IntAcc      ... 4.388
Radial Grid Type                 RadialGrid  ... OptM3 with GC (2021)
Angular Grid (max. ang.)         AngularGrid ... 4 (Lebedev-302)
Angular grid pruning method      GridPruning ... 4 (adaptive)
Weight generation scheme         WeightScheme... Becke
Basis function cutoff            BFCut       ... 1.0000e-11
Integration weight cutoff        WCut        ... 1.0000e-14
Angular grids for H and He will be reduced by one unit
Partially contracted basis set               ... off
Rotationally invariant grid construction     ... off

Total number of grid points                  ...   309905
Total number of batches                      ...     4878
Average number of points per batch           ...       63
Average number of grid points per atom       ...     4245
Time for grid setup =    2.870 sec

--------------------
COSX GRID GENERATION
--------------------

GRIDX 1
-------
General Integration Accuracy     IntAcc      ... 3.816
Radial Grid Type                 RadialGrid  ... OptM3 with GC (2021)
Angular Grid (max. ang.)         AngularGrid ... 1 (Lebedev-50)
Angular grid pruning method      GridPruning ... 4 (adaptive)
Weight generation scheme         WeightScheme... Becke
Basis function cutoff            BFCut       ... 1.0000e-11
Integration weight cutoff        WCut        ... 1.0000e-14
Angular grids for H and He will be reduced by one unit
Partially contracted basis set               ... on
Rotationally invariant grid construction     ... off

Total number of grid points                  ...    39398
Total number of batches                      ...      654
Average number of points per batch           ...       60
Average number of grid points per atom       ...      540
UseSFitting                                  ... on

GRIDX 2
-------
General Integration Accuracy     IntAcc      ... 4.020
Radial Grid Type                 RadialGrid  ... OptM3 with GC (2021)
Angular Grid (max. ang.)         AngularGrid ... 2 (Lebedev-110)
Angular grid pruning method      GridPruning ... 4 (adaptive)
Weight generation scheme         WeightScheme... Becke
Basis function cutoff            BFCut       ... 1.0000e-11
Integration weight cutoff        WCut        ... 1.0000e-14
Angular grids for H and He will be reduced by one unit
Partially contracted basis set               ... on
Rotationally invariant grid construction     ... off

Total number of grid points                  ...    81418
Total number of batches                      ...     1308
Average number of points per batch           ...       62
Average number of grid points per atom       ...     1115
UseSFitting                                  ... on

GRIDX 3
-------
General Integration Accuracy     IntAcc      ... 4.338
Radial Grid Type                 RadialGrid  ... OptM3 with GC (2021)
Angular Grid (max. ang.)         AngularGrid ... 3 (Lebedev-194)
Angular grid pruning method      GridPruning ... 4 (adaptive)
Weight generation scheme         WeightScheme... Becke
Basis function cutoff            BFCut       ... 1.0000e-11
Integration weight cutoff        WCut        ... 1.0000e-14
Angular grids for H and He will be reduced by one unit
Partially contracted basis set               ... on
Rotationally invariant grid construction     ... off

Total number of grid points                  ...   176386
Total number of batches                      ...     2796
Average number of points per batch           ...       63
Average number of grid points per atom       ...     2416
UseSFitting                                  ... on

Time for X-Grid setup             =    2.803 sec


--------------------
CPCM SOLVATION MODEL
--------------------
CPCM parameters:
  Epsilon                                         ...       4.9000
  Refrac                                          ...       1.4500
  Rsolv                                           ...       1.3000
  Surface type                                    ... GAUSSIAN VDW
  Epsilon function type                           ...         CPCM
Radii:
 Radius for C  used is    3.8550 Bohr (=   2.0400 Ang.)
 Radius for H  used is    2.4944 Bohr (=   1.3200 Ang.)
 Radius for O  used is    3.4469 Bohr (=   1.8240 Ang.)
Calculating surface                               ...        done! (  0.0s)
GEPOL surface points                              ...         3645
GEPOL Volume                                      ...    3609.9821
GEPOL Surface-area                                ...    1791.8086
Calculating surface distance matrix               ...        done! (  0.1s)
Performing Cholesky decomposition & store         ...        done! (  0.6s)
Overall time for CPCM initialization              ...                 0.7s
--------------
SCF ITERATIONS
--------------
ITER       Energy         Delta-E        Max-DP      RMS-DP      [F,P]     Damp
               ***  Starting incremental Fock matrix formation  ***

  HOMO= 109 E= -3.897 eV LUMO=  7.784 eV gap=  11.681 eV
  0  -1165.0088447440   0.000000000000 0.09752986  0.00105783  0.1930079 0.7000

  HOMO= 109 E= -4.740 eV LUMO=  7.090 eV gap=  11.830 eV
  1  -1165.2267948087  -0.217950064683 0.06543705  0.00077973  0.0937646 0.7000
                               ***Turning on DIIS***

  HOMO= 109 E= -5.336 eV LUMO=  6.533 eV gap=  11.870 eV
  2  -1165.3275793644  -0.100784555673 0.10362905  0.00138469  0.0376774 0.0000

  HOMO= 109 E= -5.902 eV LUMO=  5.991 eV gap=  11.893 eV
  3  -1165.4716803316  -0.144100967211 0.05150254  0.00056727  0.0453111 0.0000

  HOMO= 109 E= -5.982 eV LUMO=  5.912 eV gap=  11.894 eV
  4  -1165.5070763843  -0.035396052760 0.01168957  0.00013519  0.0062799 0.0000

  HOMO= 109 E= -5.929 eV LUMO=  5.972 eV gap=  11.901 eV
  5  -1165.5079491988  -0.000872814497 0.00279951  0.00003836  0.0044280 0.0000

  HOMO= 109 E= -5.916 eV LUMO=  5.986 eV gap=  11.901 eV
  6  -1165.5080279984  -0.000078799513 0.00115815  0.00001165  0.0010296 0.0000

  HOMO= 109 E= -5.917 eV LUMO= -0.819 eV gap=   5.099 eV
  7  -1165.5080327932  -0.000004794867 0.00051239  0.00000594  0.0002344 0.0000
               *** Restarting incremental Fock matrix formation ***
                                   *** Resetting DIIS ***

  HOMO= 109 E= -5.917 eV LUMO= -0.817 eV gap=   5.099 eV
  8  -1165.5081196554  -0.000086862164 0.00040604  0.00000279  0.0001196 0.0000

  HOMO= 109 E= -5.917 eV LUMO= -0.818 eV gap=   5.100 eV
  9  -1165.5081196840  -0.000000028598 0.00013255  0.00000124  0.0001513 0.0000

  HOMO= 109 E= -5.917 eV LUMO= -0.818 eV gap=   5.100 eV
 10  -1165.5081198048  -0.000000120773 0.00006208  0.00000039  0.0000371 0.0000

  HOMO= 109 E= -5.917 eV LUMO= -0.818 eV gap=   5.100 eV
 11  -1165.5081198479  -0.000000043143 0.00002403  0.00000017  0.0000211 0.0000

  HOMO= 109 E= -5.917 eV LUMO= -0.818 eV gap=   5.100 eV
 12  -1165.5081198300   0.000000017928 0.00000714  0.00000005  0.0000036 0.0000
                 **** Energy Check signals convergence ****

               *****************************************************
               *                     SUCCESS                       *
               *           SCF CONVERGED AFTER  13 CYCLES          *
               *****************************************************

Old exchange energy                            =    -42.067045421 Eh
New exchange energy                            =    -42.067087076 Eh
Exchange energy change after final integration =     -0.000041655 Eh
Total energy after final integration           =  -1165.508161492 Eh
Final COS-X integration done in                =    14.254 sec

----------------
TOTAL SCF ENERGY
----------------

Total Energy       :        -1165.50816149 Eh          -31715.08944 eV

Components:
Nuclear Repulsion  :         2779.43867698 Eh           75632.37148 eV
Electronic Energy  :        -3944.94683847 Eh         -107347.46091 eV
One Electron Energy:        -7100.91289215 Eh         -193225.66320 eV
Two Electron Energy:         3155.96605368 Eh           85878.20228 eV
Max COSX asymmetry :            0.00000289 Eh               0.00008 eV
CPCM Dielectric    :           -0.01530106 Eh              -0.41636 eV

Virial components:
Potential Energy   :        -2322.40715353 Eh          -63195.91147 eV
Kinetic Energy     :         1156.89899203 Eh           31480.82203 eV
Virial Ratio       :            2.00744159


DFT components:
N(Alpha)           :      110.000233017791 electrons
N(Beta)            :      110.000233017791 electrons
N(Total)           :      220.000466035582 electrons
E(X)               :     -125.744281775470 Eh       
E(C)               :       -7.326921942587 Eh       
E(XC)              :     -133.071203718057 Eh       
DFET-embed. en.    :        0.000000000000 Eh       
CPCM Solvation Model Properties:
Surface-charge          :           -0.03443678
Charge-correction       :           -0.00005351 Eh              -0.00146 eV
Free-energy (cav+disp)  :  This term is not implemented in the current solvation scheme

---------------
SCF CONVERGENCE
---------------

  Last Energy change         ...   -6.4540e-09  Tolerance :   1.0000e-07
  Last MAX-Density change    ...    0.0000e+00  Tolerance :   1.0000e-05
  Last RMS-Density change    ...    0.0000e+00  Tolerance :   1.0000e-06
  Last DIIS Error            ...    2.3372e-06  Tolerance :   1.0000e-07

             **** THE GBW FILE WAS UPDATED (inpJ.gbw) ****
             **** DENSITY inpJ.scfp WAS UPDATED ****
             **** ENERGY FILE WAS UPDATED (inpJ.en.tmp) ****
             **** THE GBW FILE WAS UPDATED (inpJ.gbw) ****
             **** DENSITY inpJ.scfp WAS UPDATED ****
----------------
ORBITAL ENERGIES
----------------

  NO   OCC          E(Eh)            E(eV) 
   0   2.0000     -19.214898      -522.8640 
   1   2.0000     -10.301254      -280.3114 
   2   2.0000     -10.269398      -279.4445 
   3   2.0000     -10.266688      -279.3708 
   4   2.0000     -10.261567      -279.2314 
   5   2.0000     -10.256114      -279.0830 
   6   2.0000     -10.253282      -279.0060 
   7   2.0000     -10.251644      -278.9614 
   8   2.0000     -10.249475      -278.9024 
   9   2.0000     -10.249110      -278.8925 
  10   2.0000     -10.248249      -278.8690 
  11   2.0000     -10.246008      -278.8081 
  12   2.0000     -10.244952      -278.7793 
  13   2.0000     -10.244411      -278.7646 
  14   2.0000     -10.244103      -278.7562 
  15   2.0000     -10.243756      -278.7468 
  16   2.0000     -10.242939      -278.7245 
  17   2.0000     -10.242102      -278.7018 
  18   2.0000     -10.241906      -278.6964 
  19   2.0000     -10.241013      -278.6721 
  20   2.0000     -10.238938      -278.6157 
  21   2.0000     -10.233456      -278.4665 
  22   2.0000     -10.233252      -278.4609 
  23   2.0000     -10.232503      -278.4406 
  24   2.0000     -10.226792      -278.2852 
  25   2.0000     -10.226303      -278.2718 
  26   2.0000     -10.224286      -278.2170 
  27   2.0000     -10.221346      -278.1370 
  28   2.0000     -10.219997      -278.1003 
  29   2.0000      -1.045695       -28.4548 
  30   2.0000      -0.900547       -24.5051 
  31   2.0000      -0.883506       -24.0414 
  32   2.0000      -0.859976       -23.4011 
  33   2.0000      -0.845231       -22.9999 
  34   2.0000      -0.821886       -22.3647 
  35   2.0000      -0.813615       -22.1396 
  36   2.0000      -0.794817       -21.6281 
  37   2.0000      -0.794632       -21.6230 
  38   2.0000      -0.776867       -21.1396 
  39   2.0000      -0.757306       -20.6073 
  40   2.0000      -0.739464       -20.1218 
  41   2.0000      -0.735577       -20.0161 
  42   2.0000      -0.713632       -19.4189 
  43   2.0000      -0.700422       -19.0595 
  44   2.0000      -0.699319       -19.0294 
  45   2.0000      -0.693438       -18.8694 
  46   2.0000      -0.668703       -18.1963 
  47   2.0000      -0.657496       -17.8914 
  48   2.0000      -0.630388       -17.1537 
  49   2.0000      -0.621765       -16.9191 
  50   2.0000      -0.619263       -16.8510 
  51   2.0000      -0.608073       -16.5465 
  52   2.0000      -0.596698       -16.2370 
  53   2.0000      -0.578201       -15.7337 
  54   2.0000      -0.574092       -15.6218 
  55   2.0000      -0.544212       -14.8087 
  56   2.0000      -0.539979       -14.6936 
  57   2.0000      -0.529549       -14.4098 
  58   2.0000      -0.514873       -14.0104 
  59   2.0000      -0.509749       -13.8710 
  60   2.0000      -0.497156       -13.5283 
  61   2.0000      -0.487550       -13.2669 
  62   2.0000      -0.481875       -13.1125 
  63   2.0000      -0.479605       -13.0507 
  64   2.0000      -0.475722       -12.9450 
  65   2.0000      -0.467818       -12.7300 
  66   2.0000      -0.462268       -12.5789 
  67   2.0000      -0.457822       -12.4580 
  68   2.0000      -0.456775       -12.4295 
  69   2.0000      -0.449639       -12.2353 
  70   2.0000      -0.445426       -12.1206 
  71   2.0000      -0.440975       -11.9996 
  72   2.0000      -0.435549       -11.8519 
  73   2.0000      -0.433033       -11.7834 
  74   2.0000      -0.430197       -11.7063 
  75   2.0000      -0.421408       -11.4671 
  76   2.0000      -0.416019       -11.3205 
  77   2.0000      -0.415169       -11.2973 
  78   2.0000      -0.406937       -11.0733 
  79   2.0000      -0.402855       -10.9623 
  80   2.0000      -0.400488       -10.8978 
  81   2.0000      -0.396952       -10.8016 
  82   2.0000      -0.394124       -10.7247 
  83   2.0000      -0.391379       -10.6500 
  84   2.0000      -0.389392       -10.5959 
  85   2.0000      -0.385127       -10.4798 
  86   2.0000      -0.378223       -10.2920 
  87   2.0000      -0.370368       -10.0782 
  88   2.0000      -0.367505       -10.0003 
  89   2.0000      -0.367106        -9.9894 
  90   2.0000      -0.361585        -9.8392 
  91   2.0000      -0.357279        -9.7221 
  92   2.0000      -0.352819        -9.6007 
  93   2.0000      -0.343418        -9.3449 
  94   2.0000      -0.341159        -9.2834 
  95   2.0000      -0.339547        -9.2396 
  96   2.0000      -0.336682        -9.1616 
  97   2.0000      -0.332597        -9.0504 
  98   2.0000      -0.329315        -8.9611 
  99   2.0000      -0.328521        -8.9395 
 100   2.0000      -0.325961        -8.8699 
 101   2.0000      -0.323565        -8.8046 
 102   2.0000      -0.317255        -8.6329 
 103   2.0000      -0.315329        -8.5805 
 104   2.0000      -0.310867        -8.4591 
 105   2.0000      -0.299340        -8.1454 
 106   2.0000      -0.279859        -7.6153 
 107   2.0000      -0.274693        -7.4748 
 108   2.0000      -0.256045        -6.9674 
 109   2.0000      -0.217452        -5.9172 
 110   0.0000      -0.030044        -0.8175 
 111   0.0000       0.021567         0.5869 
 112   0.0000       0.028525         0.7762 
 113   0.0000       0.080209         2.1826 
 114   0.0000       0.089347         2.4312 
 115   0.0000       0.101449         2.7606 
 116   0.0000       0.103715         2.8222 
 117   0.0000       0.108190         2.9440 
 118   0.0000       0.108956         2.9648 
 119   0.0000       0.118698         3.2299 
 120   0.0000       0.119228         3.2444 
 121   0.0000       0.124896         3.3986 
 122   0.0000       0.129835         3.5330 
 123   0.0000       0.133792         3.6407 
 124   0.0000       0.136739         3.7209 
 125   0.0000       0.137817         3.7502 
 126   0.0000       0.141153         3.8410 
 127   0.0000       0.142692         3.8828 
 128   0.0000       0.143413         3.9025 
 129   0.0000       0.152852         4.1593 
 130   0.0000       0.156707         4.2642 
 131   0.0000       0.159235         4.3330 
 132   0.0000       0.161872         4.4047 
 133   0.0000       0.165068         4.4917 
 134   0.0000       0.166366         4.5270 
 135   0.0000       0.169671         4.6170 
 136   0.0000       0.170869         4.6496 
 137   0.0000       0.171355         4.6628 
 138   0.0000       0.175288         4.7698 
 139   0.0000       0.179601         4.8872 
 140   0.0000       0.183958         5.0058 
 141   0.0000       0.184149         5.0109 
 142   0.0000       0.185903         5.0587 
 143   0.0000       0.189303         5.1512 
 144   0.0000       0.191366         5.2073 
 145   0.0000       0.193948         5.2776 
 146   0.0000       0.195550         5.3212 
 147   0.0000       0.199772         5.4361 
 148   0.0000       0.201884         5.4935 
 149   0.0000       0.204508         5.5649 
 150   0.0000       0.205265         5.5855 
 151   0.0000       0.217581         5.9207 
 152   0.0000       0.222288         6.0488 
 153   0.0000       0.224923         6.1205 
 154   0.0000       0.233499         6.3538 
 155   0.0000       0.238103         6.4791 
 156   0.0000       0.244551         6.6546 
 157   0.0000       0.247338         6.7304 
 158   0.0000       0.250017         6.8033 
 159   0.0000       0.253103         6.8873 
 160   0.0000       0.257977         7.0199 
 161   0.0000       0.260387         7.0855 
 162   0.0000       0.262288         7.1372 
 163   0.0000       0.263944         7.1823 
 164   0.0000       0.269082         7.3221 
 165   0.0000       0.275228         7.4893 
 166   0.0000       0.277453         7.5499 
 167   0.0000       0.284061         7.7297 
 168   0.0000       0.287502         7.8233 
 169   0.0000       0.294235         8.0065 
 170   0.0000       0.295901         8.0519 
 171   0.0000       0.301705         8.2098 
 172   0.0000       0.302193         8.2231 
 173   0.0000       0.307675         8.3723 
 174   0.0000       0.315635         8.5889 
 175   0.0000       0.322631         8.7792 
 176   0.0000       0.330016         8.9802 
 177   0.0000       0.333432         9.0731 
 178   0.0000       0.349718         9.5163 
 179   0.0000       0.355933         9.6854 
 180   0.0000       0.366793         9.9809 
 181   0.0000       0.379733        10.3331 
 182   0.0000       0.383730        10.4418 
 183   0.0000       0.410774        11.1777 
 184   0.0000       0.418362        11.3842 
 185   0.0000       0.463592        12.6150 
 186   0.0000       0.479481        13.0473 
 187   0.0000       0.494752        13.4629 
 188   0.0000       0.504741        13.7347 
 189   0.0000       0.522101        14.2071 
 190   0.0000       0.524441        14.2708 
 191   0.0000       0.536267        14.5926 
 192   0.0000       0.542730        14.7684 
 193   0.0000       0.548403        14.9228 
 194   0.0000       0.558930        15.2092 
 195   0.0000       0.566094        15.4042 
 196   0.0000       0.576893        15.6981 
 197   0.0000       0.580931        15.8079 
 198   0.0000       0.584112        15.8945 
 199   0.0000       0.594439        16.1755 
 200   0.0000       0.609618        16.5885 
 201   0.0000       0.615855        16.7583 
 202   0.0000       0.626328        17.0433 
 203   0.0000       0.627417        17.0729 
 204   0.0000       0.637746        17.3539 
 205   0.0000       0.644239        17.5306 
 206   0.0000       0.650055        17.6889 
 207   0.0000       0.657900        17.9024 
 208   0.0000       0.661978        18.0133 
 209   0.0000       0.665961        18.1217 
 210   0.0000       0.673809        18.3353 
 211   0.0000       0.677726        18.4419 
 212   0.0000       0.685635        18.6571 
 213   0.0000       0.696183        18.9441 
 214   0.0000       0.701244        19.0818 
 215   0.0000       0.702173        19.1071 
 216   0.0000       0.711511        19.3612 
 217   0.0000       0.713559        19.4169 
 218   0.0000       0.725365        19.7382 
 219   0.0000       0.726952        19.7814 
 220   0.0000       0.728958        19.8360 
 221   0.0000       0.730357        19.8740 
 222   0.0000       0.738268        20.0893 
 223   0.0000       0.740721        20.1560 
 224   0.0000       0.747904        20.3515 
 225   0.0000       0.749389        20.3919 
 226   0.0000       0.752808        20.4849 
 227   0.0000       0.756196        20.5771 
 228   0.0000       0.760578        20.6964 
 229   0.0000       0.765535        20.8313 
 230   0.0000       0.767627        20.8882 
 231   0.0000       0.774879        21.0855 
 232   0.0000       0.777108        21.1462 
 233   0.0000       0.779049        21.1990 
 234   0.0000       0.787699        21.4344 
 235   0.0000       0.792162        21.5558 
 236   0.0000       0.797954        21.7134 
 237   0.0000       0.804609        21.8945 
 238   0.0000       0.814084        22.1524 
 239   0.0000       0.819754        22.3066 
 240   0.0000       0.826517        22.4907 
 241   0.0000       0.832044        22.6411 
 242   0.0000       0.838906        22.8278 
 243   0.0000       0.847069        23.0499 
 244   0.0000       0.854311        23.2470 
 245   0.0000       0.855887        23.2899 
 246   0.0000       0.859178        23.3794 
 247   0.0000       0.864200        23.5161 
 248   0.0000       0.870375        23.6841 
 249   0.0000       0.872913        23.7532 
 250   0.0000       0.873693        23.7744 
 251   0.0000       0.876705        23.8564 
 252   0.0000       0.878119        23.8948 
 253   0.0000       0.879240        23.9253 
 254   0.0000       0.881221        23.9793 
 255   0.0000       0.885694        24.1009 
 256   0.0000       0.887312        24.1450 
 257   0.0000       0.891778        24.2665 
 258   0.0000       0.900255        24.4972 
 259   0.0000       0.902261        24.5518 
 260   0.0000       0.904464        24.6117 
 261   0.0000       0.908181        24.7129 
 262   0.0000       0.908788        24.7294 
 263   0.0000       0.920173        25.0392 
 264   0.0000       0.922562        25.1042 
 265   0.0000       0.926540        25.2124 
 266   0.0000       0.930880        25.3305 
 267   0.0000       0.931971        25.3602 
 268   0.0000       0.935889        25.4668 
 269   0.0000       0.939975        25.5780 
 270   0.0000       0.943453        25.6727 
 271   0.0000       0.945555        25.7299 
 272   0.0000       0.948247        25.8031 
 273   0.0000       0.954869        25.9833 
 274   0.0000       0.959562        26.1110 
 275   0.0000       0.964286        26.2396 
 276   0.0000       0.969855        26.3911 
 277   0.0000       0.974219        26.5098 
 278   0.0000       0.978597        26.6290 
 279   0.0000       0.980792        26.6887 
 280   0.0000       0.992952        27.0196 
 281   0.0000       0.999704        27.2033 
 282   0.0000       1.004541        27.3349 
 283   0.0000       1.009768        27.4772 
 284   0.0000       1.020162        27.7600 
 285   0.0000       1.027570        27.9616 
 286   0.0000       1.036124        28.1944 
 287   0.0000       1.038772        28.2664 
 288   0.0000       1.059114        28.8200 
 289   0.0000       1.066531        29.0218 
 290   0.0000       1.070637        29.1335 
 291   0.0000       1.080634        29.4055 
 292   0.0000       1.089993        29.6602 
 293   0.0000       1.095307        29.8048 
 294   0.0000       1.102967        30.0133 
 295   0.0000       1.120100        30.4795 
 296   0.0000       1.127666        30.6854 
 297   0.0000       1.138585        30.9825 
 298   0.0000       1.150890        31.3173 
 299   0.0000       1.159377        31.5482 
 300   0.0000       1.162279        31.6272 
 301   0.0000       1.180266        32.1167 
 302   0.0000       1.196155        32.5490 
 303   0.0000       1.215655        33.0797 
 304   0.0000       1.235980        33.6327 
 305   0.0000       1.244652        33.8687 
 306   0.0000       1.256565        34.1929 
 307   0.0000       1.266312        34.4581 
 308   0.0000       1.285238        34.9731 
 309   0.0000       1.304107        35.4866 
 310   0.0000       1.320344        35.9284 
 311   0.0000       1.336385        36.3649 
 312   0.0000       1.366589        37.1868 
 313   0.0000       1.371553        37.3219 
 314   0.0000       1.405683        38.2506 
 315   0.0000       1.490284        40.5527 
 316   0.0000       1.525850        41.5205 
 317   0.0000       1.562400        42.5151 
 318   0.0000       1.606133        43.7051 
 319   0.0000       1.657279        45.0969 
 320   0.0000       6.207961       168.9272 
 321   0.0000       6.240004       169.7991 
 322   0.0000       6.266399       170.5174 
 323   0.0000       6.268662       170.5790 
 324   0.0000       6.283828       170.9917 
 325   0.0000       6.295609       171.3122 
 326   0.0000       6.300650       171.4494 
 327   0.0000       6.313504       171.7992 
 328   0.0000       6.317363       171.9042 
 329   0.0000       6.336704       172.4305 
 330   0.0000       6.343820       172.6241 
 331   0.0000       6.350441       172.8043 
 332   0.0000       6.358168       173.0145 
 333   0.0000       6.364665       173.1913 
 334   0.0000       6.384457       173.7299 
 335   0.0000       6.390702       173.8998 
 336   0.0000       6.395679       174.0353 
 337   0.0000       6.408228       174.3768 
 338   0.0000       6.419512       174.6838 
 339   0.0000       6.422297       174.7596 
 340   0.0000       6.431593       175.0126 
 341   0.0000       6.440678       175.2598 
 342   0.0000       6.453710       175.6144 
 343   0.0000       6.460209       175.7912 
 344   0.0000       6.467939       176.0016 
 345   0.0000       6.475600       176.2100 
 346   0.0000       6.481385       176.3675 
 347   0.0000       6.495040       176.7390 
 348   0.0000       6.510205       177.1517 
 349   0.0000       6.513622       177.2447 
 350   0.0000       6.524505       177.5408 
 351   0.0000       6.530727       177.7101 
 352   0.0000       6.540551       177.9774 
 353   0.0000       6.544709       178.0906 
 354   0.0000       6.547230       178.1592 
 355   0.0000       6.554167       178.3479 
 356   0.0000       6.557903       178.4496 
 357   0.0000       6.562472       178.5739 
 358   0.0000       6.564813       178.6377 
 359   0.0000       6.574582       178.9035 
 360   0.0000       6.579952       179.0496 
 361   0.0000       6.586569       179.2297 
 362   0.0000       6.589790       179.3173 
 363   0.0000       6.596179       179.4911 
 364   0.0000       6.604727       179.7238 
 365   0.0000       6.607405       179.7966 
 366   0.0000       6.612110       179.9247 
 367   0.0000       6.618871       180.1086 
 368   0.0000       6.620128       180.1429 
 369   0.0000       6.621559       180.1818 
 370   0.0000       6.623149       180.2250 
 371   0.0000       6.626348       180.3121 
 372   0.0000       6.633420       180.5045 
 373   0.0000       6.635698       180.5665 
 374   0.0000       6.640719       180.7032 
[...]
     69 H        0.000      0.000      0.000      0.000      0.000      0.000
     70 H        0.000      0.000      0.000      0.000      0.003      0.037
     71 H        0.000      0.000      0.000     -0.000      0.001      0.019
     72 H        0.000      0.000      0.000      0.000      0.001      0.015
                 25 H       27 H       28 H       30 H       31 H       33 H  
      3 H        2.554     -0.103      0.060      0.000      0.000      2.459
      4 H        0.119     -0.004      0.004      0.000      0.000      0.105
      8 H       -0.351      0.011      0.000      0.000      0.000     -0.320
      9 H        0.000      0.000      0.000      0.000      0.000      0.133
     10 H        0.000      0.000      0.000      0.000      0.000      0.000
     11 H        0.000      0.000      0.000      0.000      0.000      0.000
     13 H       -0.103      0.004     -0.003      0.000      0.000     -0.105
     16 H       -0.381      0.012     -0.005     -0.021     -0.001     -0.350
     17 H       -0.379      0.011      0.000      0.000      0.000     -0.331
     19 H        0.980     -0.048      0.016      0.087      0.007      1.191
     21 H       -2.903      0.192      0.648     -0.212     -0.026     -2.663
     24 H      -14.178      4.387      2.239      0.737     -0.501     -0.164
     25 H        0.000     12.989      5.348     -0.634     -0.349     -2.456
     27 H       12.989      0.000    -13.639      3.977     13.006      0.070
     28 H        5.348    -13.639      0.000      2.672      4.103      0.280
     30 H       -0.634      3.977      2.672      0.000    -12.965      0.012
     31 H       -0.349     13.006      4.103    -12.965      0.000     -0.324
     33 H       -2.456      0.070      0.280      0.012     -0.324      0.000
     35 H        0.000      0.000      0.000      0.000      0.000      0.000
     37 H        0.265      0.007     -0.034      0.540     -0.040      6.229
     38 H        0.207      0.002     -0.030     -0.022      0.120     12.244
     40 H       -0.014      0.023      0.138     -0.001     -0.038     -0.239
     41 H        0.013      0.019     -0.030      0.012      0.089     -0.383
     42 H       -0.019      0.007     -0.004     -0.264     -0.387     -0.202
     45 H       -0.016     -0.204      0.040     -0.201     -0.477     -0.140
     46 H        0.013      0.035      0.063     -0.324      0.048      0.939
     47 H       -0.060     -0.116     -0.145     -0.163      1.814     -0.467
     48 H       -0.015      0.031      0.021      0.035      0.018     -0.004
     52 H       -0.002     -0.001      0.010     -0.008      0.003      0.017
     53 H       -0.000      0.000     -0.001      0.000     -0.001     -0.002
     57 H        0.000      0.000      0.000      0.001      0.001     -0.000
     58 H        0.000      0.000      0.000      0.000      0.000      0.000
     61 H        0.000      0.000      0.000     -0.000      0.000     -0.000
     62 H        0.000      0.000      0.000      0.000      0.000      0.000
     63 H        0.000      0.000      0.000      0.000     -0.000     -0.000
     64 H        0.000      0.000      0.000      0.000      0.000      0.000
     65 H        0.000      0.000      0.000     -0.000     -0.000      0.000
     66 H        0.000      0.000      0.000      0.000      0.000      0.000
     67 H        0.000      0.000      0.000      0.000      0.000      0.000
     68 H        0.000      0.000      0.000      0.000      0.000      0.000
     69 H        0.000      0.000      0.000      0.000      0.000      0.000
     70 H        0.000     -0.008     -0.010      0.050     -0.060      0.007
     71 H        0.002     -0.003     -0.007     -0.454     -0.099      0.005
     72 H        0.000     -0.005     -0.005      0.036     -0.001      0.002
                 35 H       37 H       38 H       40 H       41 H       42 H  
      3 H       -0.078     -0.043     -0.042      0.000      0.000      0.000
      4 H       -0.165     -0.002     -0.002      0.000      0.000      0.000
      8 H        0.021      0.006      0.004      0.000      0.001      0.000
      9 H       -0.091     -0.002     -0.002      0.000     -0.000      0.000
     10 H       -0.181      0.000     -0.002      0.000      0.000      0.000
     11 H       -0.102     -0.000     -0.000      0.000      0.000      0.000
     13 H       13.738      0.002      0.002      0.000      0.000      0.000
     16 H        0.005      0.007      0.002     -0.001      0.001     -0.001
     17 H        0.007      0.005      0.005     -0.000      0.002      0.000
     19 H       -0.005     -0.005      0.115      0.004     -0.010      0.007
     21 H       -0.004      0.024     -0.499     -0.009      0.058     -0.027
     24 H       -0.001     -0.049     -0.078     -0.022      0.072     -0.025
     25 H        0.000      0.265      0.207     -0.014      0.013     -0.019
     27 H        0.000      0.007      0.002      0.023      0.019      0.007
     28 H        0.000     -0.034     -0.030      0.138     -0.030     -0.004
     30 H        0.000      0.540     -0.022     -0.001      0.012     -0.264
     31 H        0.000     -0.040      0.120     -0.038      0.089     -0.387
     33 H        0.000      6.229     12.244     -0.239     -0.383     -0.202
     35 H        0.000      0.000      0.000      0.000      0.000      0.000
     37 H        0.000      0.000    -12.062      9.428      2.243     -0.249
     38 H        0.000    -12.062      0.000      7.298     11.233     -0.460
     40 H        0.000      9.428      7.298      0.000    -13.709      9.675
     41 H        0.000      2.243     11.233    -13.709      0.000      8.131
     42 H        0.000     -0.249     -0.460      9.675      8.131      0.000
     45 H        0.000      0.056      0.037     -0.071      0.016      0.967
     46 H        0.000     -0.158      0.011      0.041      0.033     -0.401
     47 H        0.000      0.096     -0.072     -0.111     -0.037     -0.107
     48 H        0.000      0.135      0.005     -0.154     -0.444     10.623
     52 H        0.000     -0.007     -0.000     -0.028      0.071     -0.558
     53 H        0.000      0.009      0.016     -0.218     -0.034     -0.403
     57 H        0.000      0.002      0.008     -0.015     -0.006      0.039
     58 H        0.000      0.000      0.001     -0.005      0.002     -0.002
     61 H        0.000      0.000     -0.000      0.000      0.000      0.000
     62 H        0.000      0.000      0.000     -0.001     -0.001      0.000
     63 H        0.000      0.000      0.000      0.003      0.006     -0.004
     64 H        0.000     -0.000     -0.000     -0.009     -0.009      0.001
     65 H        0.000      0.001      0.002     -0.083     -0.054      0.001
     66 H        0.000      0.001      0.002     -0.012     -0.009      0.002
     67 H        0.000      0.000      0.000      0.001     -0.001     -0.000
     68 H        0.000      0.000      0.000      0.001      0.000     -0.000
     69 H        0.000     -0.000      0.000     -0.001     -0.001     -0.003
     70 H        0.000      0.063      0.010     -0.040     -0.014     -0.435
     71 H        0.000     -0.016     -0.002      0.036     -0.003     -0.162
     72 H        0.000     -0.024      0.031     -0.003     -0.071     -0.346
                 45 H       46 H       47 H       48 H       52 H       53 H  
      3 H       -0.022      0.000      0.000      0.000      0.000      0.000
      4 H       -0.001     -0.001      0.001      0.000      0.000      0.000
      8 H        0.003      0.002     -0.003      0.000      0.000      0.000
      9 H       -0.001      0.000      0.001      0.000      0.000      0.000
     10 H       -0.001      0.000      0.000      0.000      0.000      0.000
     11 H       -0.000      0.000      0.000      0.000      0.000      0.000
     13 H        0.001      0.001     -0.001      0.000      0.000      0.000
     16 H        0.002      0.002     -0.004      0.000      0.000      0.000
     17 H        0.003      0.000     -0.004      0.000      0.000      0.000
     19 H       -0.010     -0.007      0.011      0.006      0.000      0.000
     21 H        0.033      0.013     -0.017     -0.017      0.004     -0.000
     24 H       -0.023     -0.016     -0.023      0.003      0.000     -0.000
     25 H       -0.016      0.013     -0.060     -0.015     -0.002     -0.000
     27 H       -0.204      0.035     -0.116      0.031     -0.001      0.000
     28 H        0.040      0.063     -0.145      0.021      0.010     -0.001
     30 H       -0.201     -0.324     -0.163      0.035     -0.008      0.000
     31 H       -0.477      0.048      1.814      0.018      0.003     -0.001
     33 H       -0.140      0.939     -0.467     -0.004      0.017     -0.002
     35 H        0.000      0.000      0.000      0.000      0.000      0.000
     37 H        0.056     -0.158      0.096      0.135     -0.007      0.009
     38 H        0.037      0.011     -0.072      0.005     -0.000      0.016
     40 H       -0.071      0.041     -0.111     -0.154     -0.028     -0.218
     41 H        0.016      0.033     -0.037     -0.444      0.071     -0.034
     42 H        0.967     -0.401     -0.107     10.623     -0.558     -0.403
     45 H        0.000    -12.956    -13.627     -0.145      0.015      0.004
     46 H      -12.956      0.000    -12.996     -0.045      0.010     -0.004
     47 H      -13.627    -12.996      0.000     -0.234      0.016     -0.001
     48 H       -0.145     -0.045     -0.234      0.000      5.860     -2.029
     52 H        0.015      0.010      0.016      5.860      0.000     16.802
     53 H        0.004     -0.004     -0.001     -2.029     16.802      0.000
     57 H        0.000     -0.001     -0.000      0.093     -0.676      9.849
     58 H        0.000     -0.000      0.000     -0.059      0.072     -0.328
     61 H        0.000     -0.000     -0.000     -0.050      0.096     -0.144
     62 H        0.000     -0.000     -0.000     -0.063      0.091     -0.294
     63 H        0.000      0.000      0.000      0.181     -0.424     -0.051
     64 H        0.000      0.000     -0.000     -0.024      0.041     -0.034
     65 H        0.000     -0.000     -0.000      0.001     -0.003      0.039
     66 H        0.000     -0.000     -0.000      0.009      0.012      0.003
     67 H        0.000      0.000      0.000     -0.006      0.043      0.116
     68 H        0.000      0.000      0.000      0.001     -0.009      0.037
     69 H        0.000      0.000      0.000      0.182     -0.077      0.031
     70 H       -0.029     -0.018     -0.010      1.870     -0.210     -0.047
     71 H       -0.075     -0.302     -0.024      5.614     -0.032     -0.408
     72 H       -0.036     -0.055      0.023     12.365     -0.235      0.141
                 57 H       58 H       61 H       62 H       63 H       64 H  
      3 H        0.000      0.000      0.000      0.000      0.000      0.000
      4 H        0.000      0.000      0.000      0.000      0.000      0.000
      8 H        0.000      0.000      0.000      0.000      0.000      0.000
      9 H        0.000      0.000      0.000      0.000      0.000      0.000
     10 H        0.000      0.000      0.000      0.000      0.000      0.000
     11 H        0.000      0.000      0.000      0.000      0.000      0.000
     13 H        0.000      0.000      0.000      0.000      0.000      0.000
     16 H        0.000      0.000      0.000      0.000      0.000      0.000
     17 H        0.000      0.000      0.000      0.000      0.000      0.000
     19 H        0.000      0.000      0.000      0.000      0.000      0.000
     21 H        0.000      0.000      0.000      0.000      0.000      0.000
     24 H        0.000      0.000      0.000      0.000      0.000      0.000
     25 H        0.000      0.000      0.000      0.000      0.000      0.000
     27 H        0.000      0.000      0.000      0.000      0.000      0.000
     28 H        0.000      0.000      0.000      0.000      0.000      0.000
     30 H        0.001      0.000     -0.000      0.000      0.000      0.000
     31 H        0.001      0.000      0.000      0.000     -0.000      0.000
     33 H       -0.000      0.000     -0.000      0.000     -0.000      0.000
     35 H        0.000      0.000      0.000      0.000      0.000      0.000
     37 H        0.002      0.000      0.000      0.000      0.000     -0.000
     38 H        0.008      0.001     -0.000      0.000      0.000     -0.000
     40 H       -0.015     -0.005      0.000     -0.001      0.003     -0.009
     41 H       -0.006      0.002      0.000     -0.001      0.006     -0.009
     42 H        0.039     -0.002      0.000      0.000     -0.004      0.001
     45 H        0.000      0.000      0.000      0.000      0.000      0.000
     46 H       -0.001     -0.000     -0.000     -0.000      0.000      0.000
     47 H       -0.000      0.000     -0.000     -0.000      0.000     -0.000
     48 H        0.093     -0.059     -0.050     -0.063      0.181     -0.024
     52 H       -0.676      0.072      0.096      0.091     -0.424      0.041
     53 H        9.849     -0.328     -0.144     -0.294     -0.051     -0.034
     57 H        0.000      9.936      2.607     12.727      4.138     -0.296
     58 H        9.936      0.000     -0.487     -0.330     -0.192      3.155
     61 H        2.607     -0.487      0.000    -12.636    -12.970      0.685
     62 H       12.727     -0.330    -12.636      0.000    -12.267     -0.082
     63 H        4.138     -0.192    -12.970    -12.267      0.000      0.021
     64 H       -0.296      3.155      0.685     -0.082      0.021      0.000
     65 H       -0.210      3.467      0.030      0.033      0.017    -12.439
     66 H       -0.366     12.845     -0.049      0.072      0.061    -12.367
     67 H       -0.316     12.659      0.011      0.096     -0.019     -0.214
     68 H       -0.185      4.264      0.017     -0.027     -0.248      0.022
     69 H       -0.463      2.449     -0.076      0.011     -0.060     -0.251
     70 H        0.010     -0.001     -0.001     -0.003      0.019     -0.001
     71 H        0.041     -0.012     -0.000     -0.029      0.196     -0.004
     72 H       -0.006      0.003     -0.002      0.004     -0.031      0.001
                 65 H       66 H       67 H       68 H       69 H       70 H  
      3 H        0.000      0.000      0.000      0.000      0.000      0.000
      4 H        0.000      0.000      0.000      0.000      0.000      0.000
      8 H        0.000      0.000      0.000      0.000      0.000      0.000
      9 H        0.000      0.000      0.000      0.000      0.000      0.000
     10 H        0.000      0.000      0.000      0.000      0.000      0.000
     11 H        0.000      0.000      0.000      0.000      0.000      0.000
     13 H        0.000      0.000      0.000      0.000      0.000      0.000
     16 H        0.000      0.000      0.000      0.000      0.000      0.000
     17 H        0.000      0.000      0.000      0.000      0.000      0.000
     19 H        0.000      0.000      0.000      0.000      0.000      0.000
     21 H       -0.000      0.000      0.000      0.000      0.000      0.003
     24 H        0.000      0.000      0.000      0.000      0.000      0.037
     25 H        0.000      0.000      0.000      0.000      0.000      0.000
     27 H        0.000      0.000      0.000      0.000      0.000     -0.008
     28 H        0.000      0.000      0.000      0.000      0.000     -0.010
     30 H       -0.000      0.000      0.000      0.000      0.000      0.050
     31 H       -0.000      0.000      0.000      0.000      0.000     -0.060
     33 H        0.000      0.000      0.000      0.000      0.000      0.007
     35 H        0.000      0.000      0.000      0.000      0.000      0.000
     37 H        0.001      0.001      0.000      0.000     -0.000      0.063
     38 H        0.002      0.002      0.000      0.000      0.000      0.010
     40 H       -0.083     -0.012      0.001      0.001     -0.001     -0.040
     41 H       -0.054     -0.009     -0.001      0.000     -0.001     -0.014
     42 H        0.001      0.002     -0.000     -0.000     -0.003     -0.435
     45 H        0.000      0.000      0.000      0.000      0.000     -0.029
     46 H       -0.000     -0.000      0.000      0.000      0.000     -0.018
     47 H       -0.000     -0.000      0.000      0.000      0.000     -0.010
     48 H        0.001      0.009     -0.006      0.001      0.182      1.870
     52 H       -0.003      0.012      0.043     -0.009     -0.077     -0.210
     53 H        0.039      0.003      0.116      0.037      0.031     -0.047
     57 H       -0.210     -0.366     -0.316     -0.185     -0.463      0.010
     58 H        3.467     12.845     12.659      4.264      2.449     -0.001
     61 H        0.030     -0.049      0.011      0.017     -0.076     -0.001
     62 H        0.033      0.072      0.096     -0.027      0.011     -0.003
     63 H        0.017      0.061     -0.019     -0.248     -0.060      0.019
     64 H      -12.439    -12.367     -0.214      0.022     -0.251     -0.001
     65 H        0.000    -12.766     -0.385      2.880      0.203      0.002
     66 H      -12.766      0.000     -0.285     -0.281     -0.213      0.000
     67 H       -0.385     -0.285      0.000    -12.071    -12.781      0.000
     68 H        2.880     -0.281    -12.071      0.000    -12.959      0.000
     69 H        0.203     -0.213    -12.781    -12.959      0.000      0.000
     70 H        0.002      0.000      0.000      0.000      0.000      0.000
     71 H        0.014     -0.000      0.000      0.000      0.000    -13.404
     72 H       -0.001     -0.000      0.000     -0.000      0.000    -12.984
                 71 H       72 H  
      3 H        0.000      0.000
      4 H        0.000      0.000
      8 H        0.000      0.000
      9 H        0.000      0.000
     10 H        0.000      0.000
     11 H        0.000      0.000
     13 H        0.000      0.000
     16 H        0.000      0.000
     17 H        0.000      0.000
     19 H       -0.000      0.000
     21 H        0.001      0.001
     24 H        0.019      0.015
     25 H        0.002      0.000
     27 H       -0.003     -0.005
     28 H       -0.007     -0.005
     30 H       -0.454      0.036
     31 H       -0.099     -0.001
     33 H        0.005      0.002
     35 H        0.000      0.000
     37 H       -0.016     -0.024
     38 H       -0.002      0.031
     40 H        0.036     -0.003
     41 H       -0.003     -0.071
     42 H       -0.162     -0.346
     45 H       -0.075     -0.036
     46 H       -0.302     -0.055
     47 H       -0.024      0.023
     48 H        5.614     12.365
     52 H       -0.032     -0.235
     53 H       -0.408      0.141
     57 H        0.041     -0.006
     58 H       -0.012      0.003
     61 H       -0.000     -0.002
     62 H       -0.029      0.004
     63 H        0.196     -0.031
     64 H       -0.004      0.001
     65 H        0.014     -0.001
     66 H       -0.000     -0.000
     67 H        0.000      0.000
     68 H        0.000     -0.000
     69 H        0.000      0.000
     70 H      -13.404    -12.984
     71 H        0.000    -11.565
     72 H      -11.565      0.000

Maximum memory used throughout the entire EPRNMR-calculation: 948.7 MB

Timings for individual modules:

Sum of individual times         ...      388.721 sec (=   6.479 min)
GTO integral calculation        ...        0.584 sec (=   0.010 min)   0.2 %
SCF iterations                  ...      103.847 sec (=   1.731 min)  26.7 %
EPR/NMR calculation             ...      284.290 sec (=   4.738 min)  73.1 %
                             ****ORCA TERMINATED NORMALLY****
TOTAL RUN TIME: 0 days 0 hours 6 minutes 29 seconds 241 msec
