
                                 *****************
                                 * O   R   C   A *
                                 *****************

                                            #,                                       
                                            ###                                      
                                            ####                                     
                                            #####                                    
                                            ######                                   
                                           ########,                                 
                                     ,,################,,,,,                         
                               ,,#################################,,                 
                          ,,##########################################,,             
                       ,#########################################, ''#####,          
                    ,#############################################,,   '####,        
                  ,##################################################,,,,####,       
                ,###########''''           ''''###############################       
              ,#####''   ,,,,##########,,,,          '''####'''          '####       
            ,##' ,,,,###########################,,,                        '##       
           ' ,,###''''                  '''############,,,                           
         ,,##''                                '''############,,,,        ,,,,,,###''
      ,#''                                            '''#######################'''  
     '                                                          ''''####''''         
             ,#######,   #######,   ,#######,      ##                                
            ,#'     '#,  ##    ##  ,#'     '#,    #''#        ,####,   ,####,        
            ##       ##  ##   ,#'  ##            #'  '#       #'       #'  '#        
            ##       ##  #######   ##           ,######,      #####,   #    #        
            '#,     ,#'  ##    ##  '#,     ,#' ,#      #,     #,   #   #,  ,#        
             '#######'   ##     ##  '#######'  #'      '#     '####' # '####'        



                #########################################################
                #                        -***-                          #
                #          Department of theory and spectroscopy        #
                #                                                       #
                #                      Frank Neese                      #
                #                                                       #
                #     Directorship, Architecture, Infrastructure        #
                #                    SHARK, DRIVERS                     #
                #        Core code/Algorithms in most modules           #
                #                                                       #
                #        Max Planck Institute fuer Kohlenforschung      #
                #                Kaiser Wilhelm Platz 1                 #
                #                 D-45470 Muelheim/Ruhr                 #
                #                      Germany                          #
                #                                                       #
                #                  All rights reserved                  #
                #                        -***-                          #
                #########################################################


                         Program Version 6.0.0  -   RELEASE  -


 With contributions from (in alphabetic order):
   Daniel Aravena         : Magnetic Suceptibility
   Michael Atanasov       : Ab Initio Ligand Field Theory (pilot matlab implementation)
   Alexander A. Auer      : GIAO ZORA, VPT2 properties, NMR spectrum
   Ute Becker             : All parallelization in ORCA, NUMFREQ, NUMCALC
   Giovanni Bistoni       : ED, misc. LED, open-shell LED, HFLD
   Martin Brehm           : Molecular dynamics
   Dmytro Bykov           : pre 5.0 version of the SCF Hessian
   Marcos Casanova-Páez   : Triplet and SCS-CIS(D). UHF-(DLPNO)-IP/EA/STEOM-CCSD. UHF-CVS-IP/STEOM-CCSD
   Vijay G. Chilkuri      : MRCI spin determinant printing, contributions to CSF-ICE
   Pauline Colinet        : FMM embedding
   Dipayan Datta          : RHF DLPNO-CCSD density
   Achintya Kumar Dutta   : EOM-CC, STEOM-CC
   Nicolas Foglia         : Exact transition moments, OPA infrastructure, MCD improvements
   Dmitry Ganyushin       : Spin-Orbit,Spin-Spin,Magnetic field MRCI
   Miquel Garcia          : C-PCM and meta-GGA Hessian, CCSD/C-PCM, Gaussian charge scheme
   Tiago L. C. Gouveia    : GS-ROHF, GS-ROCIS
   Yang Guo               : DLPNO-NEVPT2, F12-NEVPT2, CIM, IAO-localization
   Andreas Hansen         : Spin unrestricted coupled pair/coupled cluster methods
   Ingolf Harden          : AUTO-CI MPn and infrastructure 
   Benjamin Helmich-Paris : MC-RPA, TRAH-(SCF,CASSCF), AVAS, COSX integrals, SCF dyn. polar.
   Lee Huntington         : MR-EOM, pCC
   Robert Izsak           : Overlap fitted RIJCOSX, COSX-SCS-MP3, EOM
   Riya Kayal             : Wick's Theorem for AUTO-CI, AUTO-CI UHF-CCSDT
   Emily Kempfer          : AUTO-CI, RHF CISDT and CCSDT
   Christian Kollmar      : KDIIS, OOCD, Brueckner-CCSD(T), CCSD density, CASPT2, CASPT2-K, improved NEVPT2
   Axel Koslowski         : Symmetry handling
   Simone Kossmann        : Meta GGA functionals, TD-DFT gradient, OOMP2, (MP2 Hessian; deprecated post 5.0)
   Lucas Lang             : DCDCAS
   Marvin Lechner         : AUTO-CI (C++ implementation), FIC-MRCC
   Spencer Leger          : CASSCF response
   Dagmar Lenk            : GEPOL surface, SMD, ORCA-2-JSON
   Dimitrios Liakos       : Extrapolation schemes; Compound Job, initial MDCI parallelization
   Dimitrios Manganas     : Further ROCIS development; embedding schemes. LFT, Crystal Embedding
   Dimitrios Pantazis     : SARC Basis sets
   Anastasios Papadopoulos: AUTO-CI, single reference methods and gradients
   Taras Petrenko         : pre 6.0 DFT Hessian and TD-DFT gradient, (ASA, deprecated), ECA, 1-Electron XAS/XES, NRVS
   Peter Pinski           : DLPNO-MP2, DLPNO-MP2 Gradient
   Christoph Reimann      : Effective Core Potentials
   Marius Retegan         : Local ZFS, SOC
   Christoph Riplinger    : Optimizer, TS searches, QM/MM, DLPNO-CCSD(T), (RO)-DLPNO pert. Triples
   Michael Roemelt        : Original ROCIS implementation
   Masaaki Saitow         : Open-shell DLPNO-CCSD energy and density
   Barbara Sandhoefer     : DKH picture change effects
   Kantharuban Sivalingam : CASSCF convergence/infrastructure, NEVPT2 and variants, FIC-MRCI
   Bernardo de Souza      : ESD, SOC TD-DFT
   Georgi Stoychev        : AutoAux, RI-MP2 NMR, DLPNO-MP2 response, X2C
   Van Anh Tran           : RI-MP2 g-tensors
   Willem Van den Heuvel  : Paramagnetic NMR
   Zikuan Wang            : NOTCH, Electric field optimization 
   Frank Wennmohs         : Technical directorship and infrastructure
   Hang Xu                : AUTO-CI-Response properties 


 We gratefully acknowledge several colleagues who have allowed us to
 interface, adapt or use parts of their codes:
   Stefan Grimme, W. Hujo, H. Kruse, P. Pracht,  : VdW corrections, initial TS optimization,
                  C. Bannwarth, S. Ehlert,         DFT functionals, gCP, sTDA/sTD-DF
                  L. Wittmann, M. Mueller
   Ed Valeev, F. Pavosevic, A. Kumar             : LibInt (2-el integral package), F12 methods
   Garnet Chan, S. Sharma, J. Yang, R. Olivares  : DMRG
   Ulf Ekstrom                                   : XCFun DFT Library
   Mihaly Kallay                                 : mrcc  (arbitrary order and MRCC methods)
   Frank Weinhold                                : gennbo (NPA and NBO analysis)
   Simon Mueller                                 : openCOSMO-RS
   Christopher J. Cramer and Donald G. Truhlar   : smd solvation model
   Lars Goerigk                                  : TD-DFT with DH, B97 family of functionals
   V. Asgeirsson, H. Jonsson                     : NEB implementation
   FAccTs GmbH                                   : IRC, NEB, NEB-TS, DLPNO-Multilevel, CI-OPT
                                                   MM, QMMM, 2- and 3-layer-ONIOM, Crystal-QMMM,
                                                   LR-CPCM, SF, NACMEs, symmetry and pop. for TD-DFT,
                                                   nearIR, NL-DFT gradient (VV10), updates on ESD,
                                                   ML-optimized integration grids, MBIS, APM,
                                                   GOAT, DOCKER, SOLVATOR, interface openCOSMO-RS
   S Lehtola, MJT Oliveira, MAL Marques          : LibXC Library
   Liviu Ungur et al                             : ANISO software


 Your calculation uses the libint2 library for the computation of 2-el integrals
 For citations please refer to: http://libint.valeyev.net

 Your ORCA version has been built with support for libXC version: 6.2.2
 For citations please refer to: https://libxc.gitlab.io

 This ORCA versions uses:
   CBLAS   interface :  Fast vector & matrix operations
   LAPACKE interface :  Fast linear algebra routines
   SCALAPACK package :  Parallel linear algebra routines
   Shared memory     :  Shared parallel matrices
   BLAS/LAPACK       :  OpenBLAS 0.3.27  USE64BITINT DYNAMIC_ARCH NO_AFFINITY Zen SINGLE_THREADED
        Core in use  :  Zen
   Copyright (c) 2011-2014, The OpenBLAS Project


NOTE: MaxCore=8000 MB was set to SCF,MP2,MDCI,CIPSI,MRCI and CIS
      => If you want to overwrite this, your respective input block should be placed after the MaxCore statement
Your calculation utilizes the atom-pairwise dispersion correction
based on EEQ partial charges (D4)


================================================================================

----- Orbital basis set information -----
Your calculation utilizes the basis: pcJ-0
   F. Jensen, Theor. Chem. Acc. 126, 371 (2010).

----- AuxJ basis set information -----
Your calculation utilizes the auxiliary basis: def2/J
   F. Weigend, Phys. Chem. Chem. Phys. 8, 1057 (2006).

================================================================================
                                        WARNINGS
                       Please study these warnings very carefully!
================================================================================

WARNING: Old DensityContainer found on disk!
         Will remove this file - 
         If you want to keep old densities, please start your calculation with a different basename. 


================================================================================
                                       INPUT FILE
================================================================================
NAME = inpJ
|  1> ! pbe0
|  2> ! D4
|  3> ! pcJ-0
|  4> ! def2/J RIJCOSX
|  5> ! DEFGRID2
|  6> ! scfconv7
|  7> ! smallprint printgap noloewdin
|  8> ! NOSOSCF
|  9> %MaxCore 8000
| 10> %output
| 11>        print[P_BondOrder_M] 1
| 12>        print[P_Mayer] 1
| 13>        print[P_basis] 2
| 14> end
| 15> %pal
| 16>     nprocs 4
| 17> end
| 18> ! CPCM(chloroform)
| 19> *xyz 0 1
| 20> C   -5.0319721100   0.2903045500   0.3480283800
| 21> C   -6.4443865200  -0.1274553300   0.0127561600
| 22> C   -7.0090056100   0.6711194200  -1.1684992100
| 23> H   -7.0984415200   0.0663447900   0.8799299700
| 24> H   -6.4890051700  -1.2000028800  -0.2061214100
| 25> C   -4.8519958300   1.7493845600   0.5036458300
| 26> C   -5.4583382800   2.5758344200  -0.6079167200
| 27> C   -6.9101950000   2.1671373500  -0.8915745700
| 28> H   -4.8674769000   2.4143401500  -1.5223052300
| 29> H   -5.3978221500   3.6415636500  -0.3634264000
| 30> H   -7.3023675600   2.7281046000  -1.7480437300
| 31> H   -7.5380764100   2.4061066000  -0.0199523600
| 32> O   -8.3526521100   0.2720027500  -1.4695853900
| 33> H   -6.4333469200   0.4287391400  -2.0727492700
| 34> C   -4.0401825000  -0.6267801500   0.4427651800
| 35> C   -4.2466460500   2.3084684100   1.5577036800
| 36> H   -3.8399564900   1.7037761000   2.3635180400
| 37> H   -4.1551406500   3.3887877900   1.6415984600
| 38> C   -2.6386772700  -0.3561354700   0.6646136600
| 39> H   -4.3317525300  -1.6660108200   0.2971113000
| 40> C   -1.6629045500  -1.2735840700   0.8370411400
| 41> H   -2.3542257600   0.6934289200   0.6833240000
| 42> C   -1.8587480000  -2.7676186000   0.8877897200
| 43> C   -0.9240749100  -3.4995260400  -0.0931657900
| 44> H   -2.8962380900  -3.0574371800   0.7003676300
| 45> H   -1.6152441600  -3.1034608000   1.9085685300
| 46> C    0.5424599100  -3.0723823200   0.0565421100
| 47> H   -1.2625576600  -3.3093226900  -1.1195636400
| 48> H   -1.0092435300  -4.5812706400   0.0675045700
| 49> C    0.7078808600  -1.5500684500  -0.0530920500
| 50> H    1.1423800700  -3.5947524200  -0.6954421600
| 51> H    0.9136858500  -3.3919969900   1.0420202100
| 52> C   -0.2229596800  -0.9022941600   1.0207482400
| 53> H    0.0952566500  -1.3620730600   1.9747467600
| 54> C    0.2129805500   0.5588659700   1.0606403100
| 55> H   -8.8973082500   0.4758798100  -0.6975071500
| 56> C    1.7430544900   0.4876153100   0.8323618500
| 57> H   -0.0541240200   1.0430382900   2.0058155700
| 58> H   -0.2677535800   1.1293856500   0.2581954900
| 59> C    2.0764422600  -0.9760567000   0.4101649200
| 60> H    2.3005705900   0.7679556400   1.7315908400
| 61> H    2.0463180200   1.1874507800   0.0441873900
| 62> H    2.3631739300  -1.5420100400   1.3111869600
| 63> C    3.2822144200  -1.0424912500  -0.5583387100
| 64> C    0.3518441200  -1.0543742400  -1.4609359000
| 65> H   -0.7131550000  -1.1877304300  -1.6746259400
| 66> H    0.9191913100  -1.6041987900  -2.2198331400
| 67> H    0.5779682800   0.0095270400  -1.5839901700
| 68> H    3.0154242900  -0.4394813800  -1.4424951900
| 69> C    3.6058633600  -2.4591296700  -1.0306450600
| 70> C    4.4615289800  -0.3550503600   0.0910390200
| 71> C    5.5942796300  -0.9349951500   0.4902223000
| 72> H    4.3343490900   0.7139027200   0.2561310900
| 73> H    5.7297640000  -2.0057706900   0.3269483300
| 74> C    6.7664404600  -0.2640436000   1.1591238000
| 75> C    6.5618103500   1.2286848600   1.4116495900
| 76> C    8.0727762700  -0.5903773300   0.3818006600
| 77> H    6.8838559200  -0.7525728300   2.1419800700
| 78> H    8.0709946000  -1.6817854100   0.2364668200
| 79> C    9.3264126600  -0.2375582900   1.1854462000
| 80> C    8.1148763400   0.0635439100  -1.0008496600
| 81> H    5.6823578200   1.3961189400   2.0425027500
| 82> H    6.4102475900   1.7814920500   0.4782456400
| 83> H    7.4248314900   1.6620676100   1.9254022700
| 84> H    10.2242039500  -0.6056564700   0.6763605900
| 85> H    9.2971725500  -0.6831448100   2.1865371200
| 86> H    9.4370136400   0.8468174700   1.2989442800
| 87> H    8.2093383500   1.1525423100  -0.9191354600
| 88> H    7.2081168700  -0.1561378600  -1.5752382200
| 89> H    8.9767364900  -0.3002066600  -1.5710743700
| 90> H    4.5379619700  -2.4699528900  -1.6060123100
| 91> H    2.8147737100  -2.8479963500  -1.6748486500
| 92> H    3.7207303800  -3.1469688600  -0.1846224500
| 93> *
| 94> %eprnmr
| 95>  Nuclei = all C { ssfc }
| 96>  SpinSpinRThresh 8.0
| 97> end
| 98> 
| 99>                          ****END OF INPUT****
================================================================================

                       ****************************
                       * Single Point Calculation *
                       ****************************

---------------------------------
CARTESIAN COORDINATES (ANGSTROEM)
---------------------------------
  C     -5.031972    0.290305    0.348028
  C     -6.444387   -0.127455    0.012756
  C     -7.009006    0.671119   -1.168499
  H     -7.098442    0.066345    0.879930
  H     -6.489005   -1.200003   -0.206121
  C     -4.851996    1.749385    0.503646
  C     -5.458338    2.575834   -0.607917
  C     -6.910195    2.167137   -0.891575
  H     -4.867477    2.414340   -1.522305
  H     -5.397822    3.641564   -0.363426
  H     -7.302368    2.728105   -1.748044
  H     -7.538076    2.406107   -0.019952
  O     -8.352652    0.272003   -1.469585
  H     -6.433347    0.428739   -2.072749
  C     -4.040183   -0.626780    0.442765
  C     -4.246646    2.308468    1.557704
  H     -3.839956    1.703776    2.363518
  H     -4.155141    3.388788    1.641598
  C     -2.638677   -0.356135    0.664614
  H     -4.331753   -1.666011    0.297111
  C     -1.662905   -1.273584    0.837041
  H     -2.354226    0.693429    0.683324
  C     -1.858748   -2.767619    0.887790
  C     -0.924075   -3.499526   -0.093166
  H     -2.896238   -3.057437    0.700368
  H     -1.615244   -3.103461    1.908569
  C      0.542460   -3.072382    0.056542
  H     -1.262558   -3.309323   -1.119564
  H     -1.009244   -4.581271    0.067505
  C      0.707881   -1.550068   -0.053092
  H      1.142380   -3.594752   -0.695442
  H      0.913686   -3.391997    1.042020
  C     -0.222960   -0.902294    1.020748
  H      0.095257   -1.362073    1.974747
  C      0.212981    0.558866    1.060640
  H     -8.897308    0.475880   -0.697507
  C      1.743054    0.487615    0.832362
  H     -0.054124    1.043038    2.005816
  H     -0.267754    1.129386    0.258195
  C      2.076442   -0.976057    0.410165
  H      2.300571    0.767956    1.731591
  H      2.046318    1.187451    0.044187
  H      2.363174   -1.542010    1.311187
  C      3.282214   -1.042491   -0.558339
  C      0.351844   -1.054374   -1.460936
  H     -0.713155   -1.187730   -1.674626
  H      0.919191   -1.604199   -2.219833
  H      0.577968    0.009527   -1.583990
  H      3.015424   -0.439481   -1.442495
  C      3.605863   -2.459130   -1.030645
  C      4.461529   -0.355050    0.091039
  C      5.594280   -0.934995    0.490222
  H      4.334349    0.713903    0.256131
  H      5.729764   -2.005771    0.326948
  C      6.766440   -0.264044    1.159124
  C      6.561810    1.228685    1.411650
  C      8.072776   -0.590377    0.381801
  H      6.883856   -0.752573    2.141980
  H      8.070995   -1.681785    0.236467
  C      9.326413   -0.237558    1.185446
  C      8.114876    0.063544   -1.000850
  H      5.682358    1.396119    2.042503
  H      6.410248    1.781492    0.478246
  H      7.424831    1.662068    1.925402
  H     10.224204   -0.605656    0.676361
  H      9.297173   -0.683145    2.186537
  H      9.437014    0.846817    1.298944
  H      8.209338    1.152542   -0.919135
  H      7.208117   -0.156138   -1.575238
  H      8.976736   -0.300207   -1.571074
  H      4.537962   -2.469953   -1.606012
  H      2.814774   -2.847996   -1.674849
  H      3.720730   -3.146969   -0.184622

----------------------------
CARTESIAN COORDINATES (A.U.)
----------------------------
  NO LB      ZA    FRAG     MASS         X           Y           Z
   0 C     6.0000    0    12.011   -9.509049    0.548596    0.657678
   1 C     6.0000    0    12.011  -12.178126   -0.240856    0.024106
   2 C     6.0000    0    12.011  -13.245101    1.268232   -2.208143
   3 H     1.0000    0     1.008  -13.414110    0.125373    1.662827
   4 H     1.0000    0     1.008  -12.262443   -2.267677   -0.389513
   5 C     6.0000    0    12.011   -9.168943    3.305858    0.951753
   6 C     6.0000    0    12.011  -10.314764    4.867622   -1.148796
   7 C     6.0000    0    12.011  -13.058376    4.095296   -1.684832
   8 H     1.0000    0     1.008   -9.198198    4.562442   -2.876740
   9 H     1.0000    0     1.008  -10.200406    6.881558   -0.686776
  10 H     1.0000    0     1.008  -13.799475    5.155371   -3.303324
  11 H     1.0000    0     1.008  -14.244900    4.546883   -0.037704
  12 O     8.0000    0    15.999  -15.784225    0.514011   -2.777114
  13 H     1.0000    0     1.008  -12.157264    0.810200   -3.916928
  14 C     6.0000    0    12.011   -7.634838   -1.184443    0.836705
  15 C     6.0000    0    12.011   -8.024998    4.362373    2.943633
  16 H     1.0000    0     1.008   -7.256466    3.219670    4.466402
  17 H     1.0000    0     1.008   -7.852078    6.403881    3.102172
  18 C     6.0000    0    12.011   -4.986377   -0.672999    1.255938
  19 H     1.0000    0     1.008   -8.185826   -3.148304    0.561459
  20 C     6.0000    0    12.011   -3.142434   -2.406725    1.581779
  21 H     1.0000    0     1.008   -4.448842    1.310391    1.291295
  22 C     6.0000    0    12.011   -3.512525   -5.230041    1.677679
  23 C     6.0000    0    12.011   -1.746249   -6.613146   -0.176058
  24 H     1.0000    0     1.008   -5.473097   -5.777719    1.323503
  25 H     1.0000    0     1.008   -3.052369   -5.864691    3.606672
  26 C     6.0000    0    12.011    1.025101   -5.805961    0.106849
  27 H     1.0000    0     1.008   -2.385888   -6.253714   -2.115669
  28 H     1.0000    0     1.008   -1.907194   -8.657347    0.127565
  29 C     6.0000    0    12.011    1.337701   -2.929205   -0.100329
  30 H     1.0000    0     1.008    2.158785   -6.793098   -1.314195
  31 H     1.0000    0     1.008    1.726616   -6.409945    1.969133
  32 C     6.0000    0    12.011   -0.421333   -1.705089    1.928935
  33 H     1.0000    0     1.008    0.180009   -2.573945    3.731731
  34 C     6.0000    0    12.011    0.402475    1.056104    2.004320
  35 H     1.0000    0     1.008  -16.813476    0.899283   -1.318097
  36 C     6.0000    0    12.011    3.293896    0.921459    1.572936
  37 H     1.0000    0     1.008   -0.102280    1.971057    3.790442
  38 H     1.0000    0     1.008   -0.505981    2.134230    0.487919
  39 C     6.0000    0    12.011    3.923907   -1.844480    0.775099
  40 H     1.0000    0     1.008    4.347448    1.451226    3.272232
  41 H     1.0000    0     1.008    3.866981    2.243957    0.083502
  42 H     1.0000    0     1.008    4.465752   -2.913977    2.477784
  43 C     6.0000    0    12.011    6.202486   -1.970023   -1.055107
  44 C     6.0000    0    12.011    0.664889   -1.992479   -2.760769
  45 H     1.0000    0     1.008   -1.347668   -2.244485   -3.164584
  46 H     1.0000    0     1.008    1.737020   -3.031496   -4.194877
  47 H     1.0000    0     1.008    1.092202    0.018003   -2.993308
  48 H     1.0000    0     1.008    5.698326   -0.830499   -2.725921
  49 C     6.0000    0    12.011    6.814094   -4.647082   -1.947637
  50 C     6.0000    0    12.011    8.431068   -0.670948    0.172039
  51 C     6.0000    0    12.011   10.571656   -1.766885    0.926386
  52 H     1.0000    0     1.008    8.190733    1.349081    0.484018
  53 H     1.0000    0     1.008   10.827685   -3.790357    0.617843
  54 C     6.0000    0    12.011   12.786719   -0.498970    2.190427
  55 C     6.0000    0    12.011   12.400025    2.321878    2.667631
  56 C     6.0000    0    12.011   15.255336   -1.115651    0.721499
  57 H     1.0000    0     1.008   13.008602   -1.422157    4.047756
  58 H     1.0000    0     1.008   15.251969   -3.178114    0.446858
  59 C     6.0000    0    12.011   17.624366   -0.448920    2.240169
  60 C     6.0000    0    12.011   15.334894    0.120081   -1.891332
  61 H     1.0000    0     1.008   10.738100    2.638282    3.859771
  62 H     1.0000    0     1.008   12.113612    3.366532    0.903753
  63 H     1.0000    0     1.008   14.030898    3.140853    3.638483
  64 H     1.0000    0     1.008   19.320945   -1.144525    1.278136
  65 H     1.0000    0     1.008   17.569110   -1.290957    4.131956
  66 H     1.0000    0     1.008   17.833371    1.600253    2.454649
  67 H     1.0000    0     1.008   15.513401    2.177989   -1.736914
  68 H     1.0000    0     1.008   13.621367   -0.295058   -2.976769
  69 H     1.0000    0     1.008   16.963574   -0.567308   -2.968900
  70 H     1.0000    0     1.008    8.575505   -4.667535   -3.034923
  71 H     1.0000    0     1.008    5.319151   -5.381933   -3.165005
  72 H     1.0000    0     1.008    7.031161   -5.946909   -0.348886

--------------------------------
INTERNAL COORDINATES (ANGSTROEM)
--------------------------------
 C      0   0   0     0.000000000000     0.00000000     0.00000000
 C      1   0   0     1.510577784961     0.00000000     0.00000000
 C      2   1   0     1.533584232210   111.78923002     0.00000000
 H      2   1   3     1.103329890054   109.34511900   241.45658436
 H      2   1   3     1.095562166921   110.68127919   122.91042921
 C      1   2   3     1.478351354614   114.21391700    50.35895290
 C      6   1   2     1.512032354260   114.40934821   312.06842025
 C      3   2   1     1.524637806093   110.31520256   305.13507115
 H      7   6   1     1.100592529885   108.37776826   290.11607679
 H      7   6   1     1.095087444107   110.22081834   172.87667263
 H      8   3   2     1.096368092577   109.69317225   179.15213063
 H      8   3   2     1.100484731577   108.66024338   296.61349898
 O      3   2   1     1.433643233521   111.21429177   180.43547927
 H      3   2   1     1.098999225894   109.03050791    65.27262018
 C      1   2   3     1.354129254817   120.86741753   232.44931066
 C      6   1   2     1.337931634510   123.39696120   129.83121600
 H     16   6   1     1.086455692041   121.40689435     0.64286638
 H     16   6   1     1.087428864406   120.93019753   181.34150867
 C     15   1   2     1.444535288807   126.47398870   175.47531082
 H     15   1   2     1.089141184889   116.15402974   358.04084215
 C     19  15   1     1.350398300724   126.39707076   175.82712770
 H     19  15   1     1.087588224982   115.92548428   355.23998031
 C     21  19  15     1.507670140353   125.70997685   357.31548003
 C     23  21  19     1.539992207284   111.75804867   127.94805301
 H     23  21  19     1.093392672365   112.34317139     3.84393422
 H     23  21  19     1.101850027155   107.72920239   246.58767932
 C     24  23  21     1.534792686694   112.67710715    50.97925224
 H     24  23  21     1.097378892126   109.03848470   288.87992216
 H     24  23  21     1.096922986378   109.16346743   172.90637580
 C     27  24  23     1.535194860118   111.83693853   306.03046516
 H     27  24  23     1.094648373715   108.89634334   182.46554224
 H     27  24  23     1.100513208184   109.19830641    65.99982660
 C     21  19  15     1.498347664762   122.80072820   178.08166904
 H     33  21  19     1.105789964562   106.21838129   123.82486335
 C     33  21  19     1.525327567076   121.01368227     1.71739074
 H     13   3   2     0.966602801111   107.55573185    62.73953511
 C     35  33  21     1.548649080237   103.55891853   196.40848217
 H     35  33  21     1.095045185773   112.11141427    74.44199477
 H     35  33  21     1.095680472656   110.74712279   314.81983549
 C     30  27  24     1.554688655314   116.08399307   166.13164122
 H     37  35  33     1.094544507473   111.73809084   248.86561437
 H     37  35  33     1.096794161680   110.47229589   130.33394112
 H     40  30  27     1.101979559794   106.44300522   320.43639092
 C     40  30  27     1.547998492437   118.90757827    80.74206247
 C     30  27  24     1.534437752416   111.15276544   294.24757898
 H     45  30  27     1.094381301105   111.44376759    66.67741103
 H     45  30  27     1.095497553928   110.68855636   306.57542400
 H     45  30  27     1.094605144646   111.66602326   186.67622417
 H     44  40  30     1.102964440909   106.83753719    62.26332651
 C     44  40  30     1.527968042085   113.46389544   303.26260713
 C     44  40  30     1.511637934458   108.62638285   176.82120980
 C     51  44  40     1.333719342874   126.40070758   113.44116498
 H     51  44  40     1.089077960129   114.85842849   294.91291701
 H     52  51  44     1.091592717480   119.15583458     1.60953376
 C     52  51  44     1.507171592930   126.85490057   181.10032877
 C     55  52  51     1.527704491002   113.83905346     1.66225126
 C     55  52  51     1.554746994145   109.76295524   233.07093887
 H     55  52  51     1.103835878331   106.31247237   119.72864848
 H     57  55  52     1.101043458037   105.82455437   310.94174429
 C     57  55  52     1.530337095963   112.17007734   194.11590488
 C     57  55  52     1.530067747328   112.65684393    68.40426039
 H     56  55  52     1.095192509631   110.61923621    58.82590085
 H     56  55  52     1.095358385831   111.76518503   298.93572962
 H     56  55  52     1.093877466763   111.04341771   178.23128125
 H     60  57  55     1.095761666070   110.47264377   172.04561664
 H     60  57  55     1.096168491129   111.34758386    51.99704112
 H     60  57  55     1.095894693762   111.41920917   291.25121261
 H     61  57  55     1.096137672474   111.07582962    68.76282884
 H     61  57  55     1.095625407867   111.42484571   308.25508189
 H     61  57  55     1.095569995586   110.49234382   187.98816012
 H     50  44  40     1.095432532486   110.59441708   187.28026523
 H     50  44  40     1.091805108305   111.04653225    67.83886822
 H     50  44  40     1.096390186117   111.42772327   307.49027587

---------------------------
INTERNAL COORDINATES (A.U.)
---------------------------
 C      0   0   0     0.000000000000     0.00000000     0.00000000
 C      1   0   0     2.854578317561     0.00000000     0.00000000
 C      2   1   0     2.898054202177   111.78923002     0.00000000
 H      2   1   3     2.084991327572   109.34511900   241.45658436
 H      2   1   3     2.070312458165   110.68127919   122.91042921
 C      1   2   3     2.793679189932   114.21391700    50.35895290
 C      6   1   2     2.857327055179   114.40934821   312.06842025
 C      3   2   1     2.881147906939   110.31520256   305.13507115
 H      7   6   1     2.079818466522   108.37776826   290.11607679
 H      7   6   1     2.069415362058   110.22081834   172.87667263
 H      8   3   2     2.071835436940   109.69317225   179.15213063
 H      8   3   2     2.079614757243   108.66024338   296.61349898
 O      3   2   1     2.709193085104   111.21429177   180.43547927
 H      3   2   1     2.076807558331   109.03050791    65.27262018
 C      1   2   3     2.558933441536   120.86741753   232.44931066
 C      6   1   2     2.528324375134   123.39696120   129.83121600
 H     16   6   1     2.053103714597   121.40689435     0.64286638
 H     16   6   1     2.054942743849   120.93019753   181.34150867
 C     15   1   2     2.729776086630   126.47398870   175.47531082
 H     15   1   2     2.058178560615   116.15402974   358.04084215
 C     19  15   1     2.551882960080   126.39707076   175.82712770
 H     19  15   1     2.055243891694   115.92548428   355.23998031
 C     21  19  15     2.849083665558   125.70997685   357.31548003
 C     23  21  19     2.910163520141   111.75804867   127.94805301
 H     23  21  19     2.066212707606   112.34317139     3.84393422
 H     23  21  19     2.082194791976   107.72920239   246.58767932
 C     24  23  21     2.900337850197   112.67710715    50.97925224
 H     24  23  21     2.073745571264   109.03848470   288.87992216
 H     24  23  21     2.072884034257   109.16346743   172.90637580
 C     27  24  23     2.901097847826   111.83693853   306.03046516
 H     27  24  23     2.068585639263   108.89634334   182.46554224
 H     27  24  23     2.079668570231   109.19830641    65.99982660
 C     21  19  15     2.831466739801   122.80072820   178.08166904
 H     33  21  19     2.089640194661   106.21838129   123.82486335
 C     33  21  19     2.882451366295   121.01368227     1.71739074
 H     13   3   2     1.826614574381   107.55573185    62.73953511
 C     35  33  21     2.926522639196   103.55891853   196.40848217
 H     35  33  21     2.069335505380   112.11141427    74.44199477
 H     35  33  21     2.070536023605   110.74712279   314.81983549
 C     30  27  24     2.937935782057   116.08399307   166.13164122
 H     37  35  33     2.068389360512   111.73809084   248.86561437
 H     37  35  33     2.072640590858   110.47229589   130.33394112
 H     40  30  27     2.082439573190   106.44300522   320.43639092
 C     40  30  27     2.925293206429   118.90757827    80.74206247
 C     30  27  24     2.899667121616   111.15276544   294.24757898
 H     45  30  27     2.068080945172   111.44376759    66.67741103
 H     45  30  27     2.070190357305   110.68855636   306.57542400
 H     45  30  27     2.068503948163   111.66602326   186.67622417
 H     44  40  30     2.084300728771   106.83753719    62.26332651
 C     44  40  30     2.887441140925   113.46389544   303.26260713
 C     44  40  30     2.856581709772   108.62638285   176.82120980
 C     51  44  40     2.520364297544   126.40070758   113.44116498
 H     51  44  40     2.058059083133   114.85842849   294.91291701
 H     52  51  44     2.062811285821   119.15583458     1.60953376
 C     52  51  44     2.848141547464   126.85490057   181.10032877
 C     55  52  51     2.886943101555   113.83905346     1.66225126
 C     55  52  51     2.938046026472   109.76295524   233.07093887
 H     55  52  51     2.085947506841   106.31247237   119.72864848
 H     57  55  52     2.080670597236   105.82455437   310.94174429
 C     57  55  52     2.891918003951   112.17007734   194.11590488
 C     57  55  52     2.891409008796   112.65684393    68.40426039
 H     56  55  52     2.069613907124   110.61923621    58.82590085
 H     56  55  52     2.069927367714   111.76518503   298.93572962
 H     56  55  52     2.067128836249   111.04341771   178.23128125
 H     60  57  55     2.070689456921   110.47264377   172.04561664
 H     60  57  55     2.071458244868   111.34758386    51.99704112
 H     60  57  55     2.070940842828   111.41920917   291.25121261
 H     61  57  55     2.071400006050   111.07582962    68.76282884
 H     61  57  55     2.070431966235   111.42484571   308.25508189
 H     61  57  55     2.070327252199   110.49234382   187.98816012
 H     50  44  40     2.070067484585   110.59441708   187.28026523
 H     50  44  40     2.063212646312   111.04653225    67.83886822
 H     50  44  40     2.071877187681   111.42772327   307.49027587

---------------------
BASIS SET INFORMATION
---------------------
There are 3 groups of distinct atoms

 Group   1 Type C   : 7s4p contracted to 4s3p pattern {4111/211}
 Group   2 Type H   : 5s contracted to 3s pattern {311}
 Group   3 Type O   : 7s4p contracted to 4s3p pattern {4111/211}

Atom   0C    basis set group =>   1
Atom   1C    basis set group =>   1
Atom   2C    basis set group =>   1
Atom   3H    basis set group =>   2
Atom   4H    basis set group =>   2
Atom   5C    basis set group =>   1
Atom   6C    basis set group =>   1
Atom   7C    basis set group =>   1
Atom   8H    basis set group =>   2
Atom   9H    basis set group =>   2
Atom  10H    basis set group =>   2
Atom  11H    basis set group =>   2
Atom  12O    basis set group =>   3
Atom  13H    basis set group =>   2
Atom  14C    basis set group =>   1
Atom  15C    basis set group =>   1
Atom  16H    basis set group =>   2
Atom  17H    basis set group =>   2
Atom  18C    basis set group =>   1
Atom  19H    basis set group =>   2
Atom  20C    basis set group =>   1
Atom  21H    basis set group =>   2
Atom  22C    basis set group =>   1
Atom  23C    basis set group =>   1
Atom  24H    basis set group =>   2
Atom  25H    basis set group =>   2
Atom  26C    basis set group =>   1
Atom  27H    basis set group =>   2
Atom  28H    basis set group =>   2
Atom  29C    basis set group =>   1
Atom  30H    basis set group =>   2
Atom  31H    basis set group =>   2
Atom  32C    basis set group =>   1
Atom  33H    basis set group =>   2
Atom  34C    basis set group =>   1
Atom  35H    basis set group =>   2
Atom  36C    basis set group =>   1
Atom  37H    basis set group =>   2
Atom  38H    basis set group =>   2
Atom  39C    basis set group =>   1
Atom  40H    basis set group =>   2
Atom  41H    basis set group =>   2
Atom  42H    basis set group =>   2
Atom  43C    basis set group =>   1
Atom  44C    basis set group =>   1
Atom  45H    basis set group =>   2
Atom  46H    basis set group =>   2
Atom  47H    basis set group =>   2
Atom  48H    basis set group =>   2
Atom  49C    basis set group =>   1
Atom  50C    basis set group =>   1
Atom  51C    basis set group =>   1
Atom  52H    basis set group =>   2
Atom  53H    basis set group =>   2
Atom  54C    basis set group =>   1
Atom  55C    basis set group =>   1
Atom  56C    basis set group =>   1
Atom  57H    basis set group =>   2
Atom  58H    basis set group =>   2
Atom  59C    basis set group =>   1
Atom  60C    basis set group =>   1
Atom  61H    basis set group =>   2
Atom  62H    basis set group =>   2
Atom  63H    basis set group =>   2
Atom  64H    basis set group =>   2
Atom  65H    basis set group =>   2
Atom  66H    basis set group =>   2
Atom  67H    basis set group =>   2
Atom  68H    basis set group =>   2
Atom  69H    basis set group =>   2
Atom  70H    basis set group =>   2
Atom  71H    basis set group =>   2
Atom  72H    basis set group =>   2

-------------------------
BASIS SET IN INPUT FORMAT
-------------------------

 # Basis set for element : H 
 NewGTO H 
 S 3 
   1    1357.7500000000      0.0012928364
   2      54.3100000000      0.0588280685
   3       4.3448000000      0.9761499708
 S 1 
   1       0.6604910000      1.0000000000
 S 1 
   1       0.1366870000      1.0000000000
  end;

 # Basis set for element : C 
 NewGTO C 
 S 4 
   1  139534.0000000000      0.0001655246
   2    5581.3600000000      0.0074486101
   3     446.5090000000      0.1285821065
   4      67.4620000000      0.9218029311
 S 1 
   1      15.0674000000      1.0000000000
 S 1 
   1       3.9387600000      1.0000000000
 S 1 
   1       0.2999150000      1.0000000000
 P 2 
   1      28.3900000000      0.0816325586
   2       4.3676900000      0.9660360576
 P 1 
   1       0.8698170000      1.0000000000
 P 1 
   1       0.1889340000      1.0000000000
  end;

 # Basis set for element : O 
 NewGTO O 
 S 4 
   1  253789.0000000000      0.0001641076
   2   10151.6000000000      0.0074010921
   3     812.1250000000      0.1277711901
   4     122.6930000000      0.9223372164
 S 1 
   1      27.5608000000      1.0000000000
 S 1 
   1       7.3172600000      1.0000000000
 S 1 
   1       0.5792400000      1.0000000000
 P 2 
   1      53.4157000000      0.0793786106
   2       8.2177900000      0.9670506337
 P 1 
   1       1.6754400000      1.0000000000
 P 1 
   1       0.3506720000      1.0000000000
  end;

---------------------------------
AUXILIARY/J BASIS SET INFORMATION
---------------------------------
There are 3 groups of distinct atoms

 Group   1 Type C   : 12s5p4d2f1g contracted to 6s4p3d1f1g pattern {711111/2111/211/2/1}
 Group   2 Type H   : 5s2p1d contracted to 3s1p1d pattern {311/2/1}
 Group   3 Type O   : 12s5p4d2f1g contracted to 6s4p3d1f1g pattern {711111/2111/211/2/1}

Atom   0C    basis set group =>   1
Atom   1C    basis set group =>   1
Atom   2C    basis set group =>   1
Atom   3H    basis set group =>   2
Atom   4H    basis set group =>   2
Atom   5C    basis set group =>   1
Atom   6C    basis set group =>   1
Atom   7C    basis set group =>   1
Atom   8H    basis set group =>   2
Atom   9H    basis set group =>   2
Atom  10H    basis set group =>   2
Atom  11H    basis set group =>   2
Atom  12O    basis set group =>   3
Atom  13H    basis set group =>   2
Atom  14C    basis set group =>   1
Atom  15C    basis set group =>   1
Atom  16H    basis set group =>   2
Atom  17H    basis set group =>   2
Atom  18C    basis set group =>   1
Atom  19H    basis set group =>   2
Atom  20C    basis set group =>   1
Atom  21H    basis set group =>   2
Atom  22C    basis set group =>   1
Atom  23C    basis set group =>   1
Atom  24H    basis set group =>   2
Atom  25H    basis set group =>   2
Atom  26C    basis set group =>   1
Atom  27H    basis set group =>   2
Atom  28H    basis set group =>   2
Atom  29C    basis set group =>   1
Atom  30H    basis set group =>   2
Atom  31H    basis set group =>   2
Atom  32C    basis set group =>   1
Atom  33H    basis set group =>   2
Atom  34C    basis set group =>   1
Atom  35H    basis set group =>   2
Atom  36C    basis set group =>   1
Atom  37H    basis set group =>   2
Atom  38H    basis set group =>   2
Atom  39C    basis set group =>   1
Atom  40H    basis set group =>   2
Atom  41H    basis set group =>   2
Atom  42H    basis set group =>   2
Atom  43C    basis set group =>   1
Atom  44C    basis set group =>   1
Atom  45H    basis set group =>   2
Atom  46H    basis set group =>   2
Atom  47H    basis set group =>   2
Atom  48H    basis set group =>   2
Atom  49C    basis set group =>   1
Atom  50C    basis set group =>   1
Atom  51C    basis set group =>   1
Atom  52H    basis set group =>   2
Atom  53H    basis set group =>   2
Atom  54C    basis set group =>   1
Atom  55C    basis set group =>   1
Atom  56C    basis set group =>   1
Atom  57H    basis set group =>   2
Atom  58H    basis set group =>   2
Atom  59C    basis set group =>   1
Atom  60C    basis set group =>   1
Atom  61H    basis set group =>   2
Atom  62H    basis set group =>   2
Atom  63H    basis set group =>   2
Atom  64H    basis set group =>   2
Atom  65H    basis set group =>   2
Atom  66H    basis set group =>   2
Atom  67H    basis set group =>   2
Atom  68H    basis set group =>   2
Atom  69H    basis set group =>   2
Atom  70H    basis set group =>   2
Atom  71H    basis set group =>   2
Atom  72H    basis set group =>   2

-------------------------------------
AUXILIARY/J BASIS SET IN INPUT FORMAT
-------------------------------------

 # Auxiliary/J basis set for element : H 
 NewAuxJGTO H 
 S 3 
   1      15.6752927000      0.1007184237
   2       3.6063578000      0.3404257499
   3       1.2080016000      0.6491996172
 S 1 
   1       0.4726794000      1.0000000000
 S 1 
   1       0.2018100000      1.0000000000
 P 2 
   1       2.0281365000      0.5596620919
   2       0.5358730000      0.5596620919
 D 1 
   1       2.2165124000      1.0000000000
  end;

 # Auxiliary/J basis set for element : C 
 NewAuxJGTO C 
 S 7 
   1    1861.0916331000      0.0134602335
   2     642.9939764000      0.0299160374
   3     235.1105725000      0.1008649584
   4      90.7028894000      0.2370970548
   5      36.7794552000      0.3924037254
   6      15.6046273000      0.3195862154
   7       6.8907294000      0.0530104441
 S 1 
   1       3.1478850000     -1.0000000000
 S 1 
   1       1.4777287000      1.0000000000
 S 1 
   1       0.7076466000      1.0000000000
 S 1 
   1       0.3430122000      1.0000000000
 S 1 
   1       0.1669453000      1.0000000000
 P 2 
   1      13.5472892000     -0.6769313712
   2       5.4669419000     -0.3779500978
 P 1 
   1       2.1751721000      1.0000000000
 P 1 
   1       0.8582194000      1.0000000000
 P 1 
   1       0.3376720000      1.0000000000
 D 2 
   1       5.9287253000     -0.3533329857
   2       1.9809209000     -0.7456525731
 D 1 
   1       0.8055417000     -1.0000000000
 D 1 
   1       0.3531244000     -1.0000000000
 F 2 
   1       1.6755626000      0.6311076882
   2       0.5997536000      0.4968166032
 G 1 
   1       1.0024600000     -1.0000000000
  end;

 # Auxiliary/J basis set for element : O 
 NewAuxJGTO O 
 S 7 
   1    2876.8216605000      0.0168151159
   2    1004.7443032000      0.0340137548
   3     369.7579954000      0.1194951309
   4     142.9442404000      0.2664627624
   5      57.8366425000      0.4202764046
   6      24.3864983000      0.2765077335
   7      10.6622662000      0.0057008815
 S 1 
   1       4.8070437000     -1.0000000000
 S 1 
   1       2.2210770000      1.0000000000
 S 1 
   1       1.0447795000      1.0000000000
 S 1 
   1       0.4968425000      1.0000000000
 S 1 
   1       0.2371384000      1.0000000000
 P 2 
   1      64.2613382000     -0.2731534179
   2      16.3006076000     -0.8168011598
 P 1 
   1       4.3550542000      1.0000000000
 P 1 
   1       1.2019554000      1.0000000000
 P 1 
   1       0.3354196000      1.0000000000
 D 2 
   1       9.2146611000     -0.4661230638
   2       2.8435251000     -0.6600908911
 D 1 
   1       0.9955759000     -1.0000000000
 D 1 
   1       0.3649441000     -1.0000000000
 F 2 
   1       2.6420115000      0.5931563945
   2       0.7345613000      0.5931563945
 G 1 
   1       1.3931000000     -1.0000000000
  end;


Checking for AutoStart:
The File: inpJ.gbw exists
Trying to determine its content:
     ... Fine, the file contains calculation information
     ... Fine, the calculation information was read
     ... Fine, the file contains a basis set
     ... Fine, the basis set was read
     ... Fine, the file contains a geometry
     ... Fine, the geometry was read
     ... Fine, the file contains a set of orbitals
     ... Fine, the orbitals can be read
     => possible old guess file was deleted
     => GBW file was renamed to GES file
     => GES file is set as startup file
     => Guess is set to MORead
     ... now leaving AutoStart



           ************************************************************
           *        Program running with 4 parallel MPI-processes     *
           *              working on a common directory               *
           ************************************************************
------------------------------------------------------------------------------
                             ORCA STARTUP CALCULATIONS
                           -- RI-GTO INTEGRALS CHOSEN --
------------------------------------------------------------------------------
------------------------------------------------------------------------------
                   ___                                                        
                  /   \      - P O W E R E D   B Y -                         
                 /     \                                                     
                 |  |  |   _    _      __       _____    __    __             
                 |  |  |  | |  | |    /  \     |  _  \  |  |  /  |          
                  \  \/   | |  | |   /    \    | | | |  |  | /  /          
                 / \  \   | |__| |  /  /\  \   | |_| |  |  |/  /          
                |  |  |   |  __  | /  /__\  \  |    /   |      \           
                |  |  |   | |  | | |   __   |  |    \   |  |\   \          
                \     /   | |  | | |  |  |  |  | |\  \  |  | \   \       
                 \___/    |_|  |_| |__|  |__|  |_| \__\ |__|  \__/        
                                                                              
                      - O R C A' S   B I G   F R I E N D -                    
                                      &                                       
                       - I N T E G R A L  F E E D E R -                       
                                                                              
 v1 FN, 2020, v2 2021, v3 2022-2024                                           
------------------------------------------------------------------------------


----------------------
SHARK INTEGRAL PACKAGE
----------------------

Number of atoms                             ...     73
Number of basis functions                   ...    509
Number of shells                            ...    335
Maximum angular momentum                    ...      1
Integral batch strategy                     ... SHARK/LIBINT Hybrid
RI-J (if used) integral strategy            ... SPLIT-RIJ (Revised 2003 algorithm where possible)
Printlevel                                  ...      1
Contraction scheme used                     ... SEGMENTED contraction
Prescreening option                         ... SCHWARTZ
   Thresh                                   ... 3.000e-11
   Tcut                                     ... 1.000e-12
   Tpresel                                  ... 1.000e-12 
Coulomb Range Separation                    ... NOT USED
Exchange Range Separation                   ... NOT USED
Multipole approximations                    ... NOT USED
Finite Nucleus Model                        ... NOT USED
CABS basis                                  ... NOT available
Auxiliary Coulomb fitting basis             ... AVAILABLE
   # of basis functions in Aux-J            ...   1905
   # of shells in Aux-J                     ...    655
   Maximum angular momentum in Aux-J        ...      4
Auxiliary J/K fitting basis                 ... NOT available
Auxiliary Correlation fitting basis         ... NOT available
Auxiliary 'external' fitting basis          ... NOT available

Checking pre-screening integrals            ... done (  0.0 sec) Dimension = 335
Check shell pair data                       ... done (  0.0 sec)
Shell pair information
Shell pair cut-off parameter TPreSel        ...   1.0e-12
Total number of shell pairs                 ...     56280
Shell pairs after pre-screening             ...     21413
Total number of primitive shell pairs       ...    145865
Primitive shell pairs kept                  ...     36805
          la=0 lb=0:  10770 shell pairs
          la=1 lb=0:   8806 shell pairs
          la=1 lb=1:   1837 shell pairs

Calculating one electron integrals          ... done (  0.0 sec)
Calculating RI/J V-Matrix + Cholesky decomp.... done (  0.2 sec)
Calculating Nuclear repulsion               ... done (  0.0 sec) ENN=   2745.318725756475 Eh

Diagonalization of the overlap matrix:
Smallest eigenvalue                        ... 7.551e-03
Time for diagonalization                   ...    0.029 sec
Threshold for overlap eigenvalues          ... 1.000e-07
Number of eigenvalues below threshold      ... 0
Time for construction of square roots      ...    0.017 sec
Total time needed                          ...    0.049 sec

-------------------
DFT GRID GENERATION
-------------------

General Integration Accuracy     IntAcc      ... 4.388
Radial Grid Type                 RadialGrid  ... OptM3 with GC (2021)
Angular Grid (max. ang.)         AngularGrid ... 4 (Lebedev-302)
Angular grid pruning method      GridPruning ... 4 (adaptive)
Weight generation scheme         WeightScheme... mBecke (2022)
Basis function cutoff            BFCut       ... 1.0000e-11
Integration weight cutoff        WCut        ... 1.0000e-14
Partially contracted basis set               ... off
Rotationally invariant grid construction     ... off
Angular grids for H and He will be reduced by one unit

Total number of grid points                  ...   309971
Total number of batches                      ...     4879
Average number of points per batch           ...       63
Average number of grid points per atom       ...     4246

--------------------
COSX GRID GENERATION
--------------------

GRIDX 1
-------
General Integration Accuracy     IntAcc      ... 3.816
Radial Grid Type                 RadialGrid  ... OptM3 with GC (2021)
Angular Grid (max. ang.)         AngularGrid ... 1 (Lebedev-50)
Angular grid pruning method      GridPruning ... 4 (adaptive)
Weight generation scheme         WeightScheme... mBecke (2022)
Basis function cutoff            BFCut       ... 1.0000e-11
Integration weight cutoff        WCut        ... 1.0000e-14
Partially contracted basis set               ... on
Rotationally invariant grid construction     ... off
Angular grids for H and He will be reduced by one unit

Total number of grid points                  ...    39466
Total number of batches                      ...      356
Average number of points per batch           ...      110
Average number of grid points per atom       ...      541
UseSFitting                                  ... on

GRIDX 2
-------
General Integration Accuracy     IntAcc      ... 4.020
Radial Grid Type                 RadialGrid  ... OptM3 with GC (2021)
Angular Grid (max. ang.)         AngularGrid ... 2 (Lebedev-110)
Angular grid pruning method      GridPruning ... 4 (adaptive)
Weight generation scheme         WeightScheme... mBecke (2022)
Basis function cutoff            BFCut       ... 1.0000e-11
Integration weight cutoff        WCut        ... 1.0000e-14
Partially contracted basis set               ... on
Rotationally invariant grid construction     ... off
Angular grids for H and He will be reduced by one unit

Total number of grid points                  ...    81552
Total number of batches                      ...      679
Average number of points per batch           ...      120
Average number of grid points per atom       ...     1117
UseSFitting                                  ... on

GRIDX 3
-------
General Integration Accuracy     IntAcc      ... 4.338
Radial Grid Type                 RadialGrid  ... OptM3 with GC (2021)
Angular Grid (max. ang.)         AngularGrid ... 3 (Lebedev-194)
Angular grid pruning method      GridPruning ... 4 (adaptive)
Weight generation scheme         WeightScheme... mBecke (2022)
Basis function cutoff            BFCut       ... 1.0000e-11
Integration weight cutoff        WCut        ... 1.0000e-14
Partially contracted basis set               ... on
Rotationally invariant grid construction     ... off
Angular grids for H and He will be reduced by one unit

Total number of grid points                  ...   176451
Total number of batches                      ...     1420
Average number of points per batch           ...      124
Average number of grid points per atom       ...     2417
UseSFitting                                  ... on
Initializing property integral containers    ... done (  0.0 sec)

SHARK setup successfully completed in   3.9 seconds

Maximum memory used throughout the entire STARTUP-calculation: 84.9 MB


           ************************************************************
           *        Program running with 4 parallel MPI-processes     *
           *              working on a common directory               *
           ************************************************************
-------------------------------------------------------------------------------
                                 ORCA GUESS
                   Start orbitals & Density for SCF / CASSCF
-------------------------------------------------------------------------------

------------
SCF SETTINGS
------------
Hamiltonian:
 Density Functional     Method          .... DFT(GTOs)
 Exchange Functional    Exchange        .... PBE
   PBE kappa parameter   XKappa         ....  0.804000
   PBE mue parameter    XMuePBE         ....  0.219520
 Correlation Functional Correlation     .... PBE
   PBE beta parameter  CBetaPBE         ....  0.066725
 LDA part of GGA corr.  LDAOpt          .... PW91-LDA
 Gradients option       PostSCFGGA      .... off
 Hybrid DFT is turned on
   Fraction HF Exchange ScalHFX         ....  0.250000
   Scaling of DF-GGA-X  ScalDFX         ....  0.750000
   Scaling of DF-GGA-C  ScalDFC         ....  1.000000
   Scaling of DF-LDA-C  ScalLDAC        ....  1.000000
   Perturbative correction              ....  0.000000
   NL short-range parameter             ....  6.900000
 RI-approximation to the Coulomb term is turned on
   Number of AuxJ basis functions       .... 1905
   RIJ-COSX (HFX calculated with COS-X)).... on


General Settings:
 Integral files         IntName         .... inpJ
 Hartree-Fock type      HFTyp           .... RHF
 Total Charge           Charge          ....    0
 Multiplicity           Mult            ....    1
 Number of Electrons    NEL             ....  220
 Basis Dimension        Dim             ....  509
 Nuclear Repulsion      ENuc            ....   2745.3187257565 Eh

Convergence Acceleration:
 AO-DIIS                CNVDIIS         .... on
   Start iteration      DIISMaxIt       ....    12
   Startup error        DIISStart       ....  0.200000
   # of expansion vecs  DIISMaxEq       ....     5
   Bias factor          DIISBfac        ....   1.050
   Max. coefficient     DIISMaxC        ....  10.000
 MO-DIIS                CNVKDIIS        .... off
 Trust-Rad. Augm. Hess. CNVTRAH         .... auto
   Auto Start mean grad. ratio tolernc. ....  1.125000
   Auto Start start iteration           ....     1
   Auto Start num. interpolation iter.  ....    10
   Max. Number of Micro iterations      ....    24
   Max. Number of Macro iterations      .... Maxiter - #DIIS iter
   Number of Davidson start vectors     ....     2
   Converg. threshold    (grad. norm)   ....   1.000e-04
   Grad. Scal. Fac. for Micro threshold ....   0.100
   Minimum threshold for Micro iter.    ....   1.000e-02
   NR start threshold (gradient norm)   ....   1.000e-04
   Initial trust radius                 ....   0.400
   Minimum AH scaling param. (alpha)    ....   1.000
   Maximum AH scaling param. (alpha)    .... 1000.000
   Quad. conv. algorithm                .... NR
   White noise on init. David. guess    .... on
   Maximum white noise                  ....   0.010
   Pseudo random numbers                .... off
   Inactive MOs                         .... canonical
   Orbital update algorithm             .... Taylor
   Preconditioner                       .... Diag
   Full preconditioner red. dimension   ....   250
 SOSCF                  CNVSOSCF        .... off
 Level Shifting         CNVShift        .... on
   Level shift para.    LevelShift      ....    0.2500
   Turn off err/grad.   ShiftErr        ....    0.0010
 Zerner damping         CNVZerner       .... off
 Static damping         CNVDamp         .... on
   Fraction old density DampFac         ....    0.7000
   Max. Damping (<1)    DampMax         ....    0.9800
   Min. Damping (>=0)   DampMin         ....    0.0000
   Turn off err/grad.   DampErr         ....    0.1000

SCF Procedure:
 Maximum # iterations   MaxIter         ....   125
 SCF integral mode      SCFMode         .... Direct
   Integral package                     .... SHARK and LIBINT hybrid scheme
 Reset frequency        DirectResetFreq ....    20
 Integral Threshold     Thresh          ....  3.000e-11 Eh
 Primitive CutOff       TCut            ....  1.000e-12 Eh

Convergence Tolerance:
 Convergence Check Mode ConvCheckMode   .... Total+1el-Energy
 Convergence forced     ConvForced      .... 0
 Energy Change          TolE            ....  1.000e-07 Eh
 1-El. energy change                    ....  1.000e-04 Eh
 DIIS Error             TolErr          ....  1.000e-07

---------------------
INITIAL GUESS: MOREAD
---------------------
Guess MOs are being read from file: inpJ.ges
Input Geometry matches current geometry (good)
Input basis set matches current basis set (good)
Occupation numbers will be reassigned to an Aufbau configuration
MOs were renormalized
MOs were reorthogonalized (Cholesky)
                      ------------------
                      INITIAL GUESS DONE (   0.1 sec)
                      ------------------
             **** ENERGY FILE WAS UPDATED (inpJ.en.tmp) ****
Finished Guess after   0.2 sec
Maximum memory used throughout the entire GUESS-calculation: 36.3 MB


           ************************************************************
           *        Program running with 4 parallel MPI-processes     *
           *              working on a common directory               *
           ************************************************************

-------------------------------------------------------------------------------------------
                                      ORCA LEAN-SCF
                              memory conserving SCF solver
-------------------------------------------------------------------------------------------

--------------------
CPCM SOLVATION MODEL
--------------------
CPCM parameters:
  Epsilon                                         ...       4.8030
  Refrac                                          ...       1.4459
  Rsolv                                           ...       1.3000
  Surface type                                    ... GAUSSIAN VDW
  Discretization scheme                           ... Constant charge density
    Threshold for H atoms                         ...       5.0000 (charges/Ang^2)
    Threshold for non-H atoms                     ...       5.0000 (charges/Ang^2)
  Epsilon function type                           ...         CPCM
Solvent:                                          ... CHLOROFORM
Radii:
  Scheme                                          ... Element-dependent radii
  Radius for C  used is    3.8550 Bohr (=   2.0400 Ang.)
  Radius for H  used is    2.4944 Bohr (=   1.3200 Ang.)
  Radius for O  used is    3.4469 Bohr (=   1.8240 Ang.)
Calculating surface                               ...        done! (  0.0s)
Cavity surface points                             ...         5407
Cavity Volume                                     ...    3610.5702
Cavity Surface-area                               ...    1800.4776
Calculating surface distance matrix               ...        done! (  0.3s)
Performing Cholesky decomposition & store         ...        done! (  1.0s)
Overall time for CPCM initialization              ...                 1.2s

----------------------------------------D-I-I-S--------------------------------------------
Iteration    Energy (Eh)           Delta-E    RMSDP     MaxDP     DIISErr   Damp  Time(sec)
-------------------------------------------------------------------------------------------
               ***  Starting incremental Fock matrix formation  ***
    1    -1165.5091121914397263     0.00e+00  4.44e-08  5.97e-06  8.31e-06  0.700   6.2

  HOMO= 109 E= -5.927 eV LUMO=  5.977 eV gap=  11.903 eV
    2    -1165.5091122219082536    -3.05e-08  2.97e-08  3.55e-06  3.92e-06  0.700   1.9
                 **** Energy Check signals convergence ****

  HOMO= 109 E= -5.926 eV LUMO=  5.977 eV gap=  11.903 eV

               *****************************************************
               *                     SUCCESS                       *
               *           SCF CONVERGED AFTER   2 CYCLES          *
               *****************************************************

Recomputing exchange energy using gridx3       ... done (    8.117 sec)
Old exchange energy                            :    -42.068198576 Eh
New exchange energy                            :    -42.068212109 Eh
Exchange energy change after final integration :     -0.000013533 Eh
Total energy after final integration           :  -1165.509125755 Eh
             **** ENERGY FILE WAS UPDATED (inpJ.en.tmp) ****

----------------
TOTAL SCF ENERGY
----------------

Total Energy       :      -1165.50912575492043 Eh          -31715.11568 eV

Components:
Nuclear Repulsion  :       2745.31872575647549 Eh           74703.92040 eV
Electronic Energy  :      -3910.81243897163995 Eh         -106418.61668 eV
One Electron Energy:      -7032.66172506085422 Eh         -191368.45452 eV
Two Electron Energy:       3121.84928608921427 Eh           84949.83784 eV
CPCM Dielectric    :         -0.01539900674385 Eh              -0.41903 eV

Virial components:
Potential Energy   :      -2322.41244425692003 Eh          -63196.05543 eV
Kinetic Energy     :       1156.90331850199959 Eh           31480.93976 eV
Virial Ratio       :          2.00743865724585

DFT components:
N(Alpha)           :      110.000104327118 electrons
N(Beta)            :      110.000104327118 electrons
N(Total)           :      220.000208654236 electrons
E(X)               :     -125.747447003665 Eh       
E(C)               :       -7.327612312241 Eh       
E(XC)              :     -133.075059315906 Eh       

CPCM Solvation Model Properties:
Surface-charge          :         -0.03351321873694
Corrected charge        :         -0.00000000000000
Outlying charge corr.   :          0.00003887880880 Eh               0.00106 eV
Free-energy (cav+disp)  :  This term is not implemented in the current solvation scheme

---------------
SCF CONVERGENCE
---------------

  Last Energy change         ...    3.0469e-08  Tolerance :   1.0000e-07
  Last MAX-Density change    ...    3.5452e-06  Tolerance :   1.0000e-05
  Last RMS-Density change    ...    2.9736e-08  Tolerance :   1.0000e-06
  Last DIIS Error            ...    3.9231e-06  Tolerance :   1.0000e-07


----------------
ORBITAL ENERGIES
----------------

  NO   OCC          E(Eh)            E(eV) 
   0   2.0000     -19.215187      -522.8718 
   1   2.0000     -10.301467      -280.3172 
   2   2.0000     -10.269650      -279.4514 
   3   2.0000     -10.266976      -279.3786 
   4   2.0000     -10.262144      -279.2471 
   5   2.0000     -10.256664      -279.0980 
   6   2.0000     -10.253619      -279.0151 
   7   2.0000     -10.251965      -278.9702 
   8   2.0000     -10.250836      -278.9394 
   9   2.0000     -10.249332      -278.8985 
  10   2.0000     -10.248940      -278.8878 
  11   2.0000     -10.246527      -278.8222 
  12   2.0000     -10.246214      -278.8137 
  13   2.0000     -10.245796      -278.8023 
  14   2.0000     -10.243980      -278.7529 
  15   2.0000     -10.243404      -278.7372 
  16   2.0000     -10.242638      -278.7163 
  17   2.0000     -10.242070      -278.7009 
  18   2.0000     -10.241640      -278.6892 
  19   2.0000     -10.241249      -278.6785 
  20   2.0000     -10.239237      -278.6238 
  21   2.0000     -10.235442      -278.5205 
  22   2.0000     -10.234902      -278.5058 
  23   2.0000     -10.233647      -278.4717 
  24   2.0000     -10.224852      -278.2324 
  25   2.0000     -10.224295      -278.2172 
  26   2.0000     -10.224083      -278.2114 
  27   2.0000     -10.221948      -278.1533 
  28   2.0000     -10.220778      -278.1215 
  29   2.0000      -1.045921       -28.4610 
  30   2.0000      -0.901244       -24.5241 
  31   2.0000      -0.883838       -24.0505 
  32   2.0000      -0.859789       -23.3961 
  33   2.0000      -0.846006       -23.0210 
  34   2.0000      -0.822358       -22.3775 
  35   2.0000      -0.814409       -22.1612 
  36   2.0000      -0.795258       -21.6401 
  37   2.0000      -0.794887       -21.6300 
  38   2.0000      -0.776182       -21.1210 
  39   2.0000      -0.758055       -20.6277 
  40   2.0000      -0.740110       -20.1394 
  41   2.0000      -0.728629       -19.8270 
  42   2.0000      -0.714227       -19.4351 
  43   2.0000      -0.702067       -19.1042 
  44   2.0000      -0.699460       -19.0333 
  45   2.0000      -0.694229       -18.8909 
  46   2.0000      -0.673905       -18.3379 
  47   2.0000      -0.668944       -18.2029 
  48   2.0000      -0.636655       -17.3243 
  49   2.0000      -0.622190       -16.9307 
  50   2.0000      -0.619597       -16.8601 
  51   2.0000      -0.608323       -16.5533 
  52   2.0000      -0.597762       -16.2659 
  53   2.0000      -0.573076       -15.5942 
  54   2.0000      -0.556970       -15.1559 
  55   2.0000      -0.541574       -14.7370 
  56   2.0000      -0.534590       -14.5469 
  57   2.0000      -0.529796       -14.4165 
  58   2.0000      -0.515187       -14.0189 
  59   2.0000      -0.509767       -13.8715 
  60   2.0000      -0.502749       -13.6805 
  61   2.0000      -0.492195       -13.3933 
  62   2.0000      -0.486901       -13.2492 
  63   2.0000      -0.480348       -13.0709 
  64   2.0000      -0.476045       -12.9538 
  65   2.0000      -0.470538       -12.8040 
  66   2.0000      -0.464454       -12.6384 
  67   2.0000      -0.459607       -12.5066 
  68   2.0000      -0.457109       -12.4386 
  69   2.0000      -0.453781       -12.3480 
  70   2.0000      -0.449108       -12.2209 
  71   2.0000      -0.441253       -12.0071 
  72   2.0000      -0.437985       -11.9182 
  73   2.0000      -0.432011       -11.7556 
  74   2.0000      -0.430429       -11.7126 
  75   2.0000      -0.422313       -11.4917 
  76   2.0000      -0.414011       -11.2658 
  77   2.0000      -0.412834       -11.2338 
  78   2.0000      -0.410007       -11.1568 
  79   2.0000      -0.406299       -11.0560 
  80   2.0000      -0.401981       -10.9385 
  81   2.0000      -0.397700       -10.8220 
  82   2.0000      -0.397386       -10.8134 
  83   2.0000      -0.387820       -10.5531 
  84   2.0000      -0.386123       -10.5069 
  85   2.0000      -0.379872       -10.3368 
  86   2.0000      -0.374491       -10.1904 
  87   2.0000      -0.370285       -10.0760 
  88   2.0000      -0.367441        -9.9986 
  89   2.0000      -0.364895        -9.9293 
  90   2.0000      -0.362419        -9.8619 
  91   2.0000      -0.357322        -9.7232 
  92   2.0000      -0.350621        -9.5409 
  93   2.0000      -0.345175        -9.3927 
  94   2.0000      -0.342475        -9.3192 
  95   2.0000      -0.340289        -9.2597 
  96   2.0000      -0.337974        -9.1967 
  97   2.0000      -0.334171        -9.0933 
  98   2.0000      -0.329623        -8.9695 
  99   2.0000      -0.328603        -8.9418 
 100   2.0000      -0.326738        -8.8910 
 101   2.0000      -0.324059        -8.8181 
 102   2.0000      -0.320658        -8.7255 
 103   2.0000      -0.316289        -8.6067 
 104   2.0000      -0.311964        -8.4890 
 105   2.0000      -0.301076        -8.1927 
 106   2.0000      -0.280177        -7.6240 
 107   2.0000      -0.274934        -7.4813 
 108   2.0000      -0.255083        -6.9412 
 109   2.0000      -0.217794        -5.9265 
 110   0.0000      -0.030354        -0.8260 
 111   0.0000       0.021147         0.5754 
 112   0.0000       0.031209         0.8492 
 113   0.0000       0.082462         2.2439 
 114   0.0000       0.093987         2.5575 
 115   0.0000       0.101373         2.7585 
 116   0.0000       0.102033         2.7765 
 117   0.0000       0.107359         2.9214 
 118   0.0000       0.109480         2.9791 
 119   0.0000       0.112491         3.0610 
 120   0.0000       0.118431         3.2227 
*Only the first 10 virtual orbitals were printed.

                    ********************************
                    * MULLIKEN POPULATION ANALYSIS *
                    ********************************

-----------------------
MULLIKEN ATOMIC CHARGES
-----------------------
   0 C :    0.107998
   1 C :   -0.499807
   2 C :   -0.054899
   3 H :    0.207319
   4 H :    0.222197
   5 C :    0.135562
   6 C :   -0.475786
   7 C :   -0.451699
   8 H :    0.214231
   9 H :    0.224115
  10 H :    0.229127
  11 H :    0.204700
  12 O :   -0.487391
  13 H :    0.233902
  14 C :   -0.283319
  15 C :   -0.516860
  16 H :    0.201285
  17 H :    0.196761
  18 C :   -0.260135
  19 H :    0.217830
  20 C :    0.151111
  21 H :    0.219011
  22 C :   -0.480059
  23 C :   -0.427315
  24 H :    0.211702
  25 H :    0.206669
  26 C :   -0.396874
  27 H :    0.208063
  28 H :    0.216911
  29 C :    0.001022
  30 H :    0.222276
  31 H :    0.194233
  32 C :   -0.228788
  33 H :    0.227529
  34 C :   -0.430521
  35 H :    0.343189
  36 C :   -0.427143
  37 H :    0.207897
  38 H :    0.198910
  39 C :   -0.184656
  40 H :    0.210561
  41 H :    0.205556
  42 H :    0.212535
  43 C :   -0.238739
  44 C :   -0.627418
  45 H :    0.208896
  46 H :    0.201133
  47 H :    0.205659
  48 H :    0.218453
  49 C :   -0.639484
  50 C :   -0.186671
  51 C :   -0.179273
  52 H :    0.225264
  53 H :    0.214630
  54 C :   -0.221016
  55 C :   -0.643539
  56 C :   -0.202472
  57 H :    0.225040
  58 H :    0.220583
  59 C :   -0.610534
  60 C :   -0.613769
  61 H :    0.201172
  62 H :    0.196570
  63 H :    0.212330
  64 H :    0.204199
  65 H :    0.200010
  66 H :    0.197629
  67 H :    0.195586
  68 H :    0.201930
  69 H :    0.199916
  70 H :    0.200415
  71 H :    0.214808
  72 H :    0.191745
Sum of atomic charges:    0.0000000

--------------------------------
MULLIKEN REDUCED ORBITAL CHARGES
--------------------------------
  0 C s       :     3.355892  s :     3.355892
      pz      :     1.008670  p :     2.536109
      px      :     0.793674
      py      :     0.733766

  1 C s       :     3.383647  s :     3.383647
      pz      :     1.031964  p :     3.116160
      px      :     0.943263
      py      :     1.140933

  2 C s       :     3.306277  s :     3.306277
      pz      :     1.070386  p :     2.748622
      px      :     0.789127
      py      :     0.889109

  3 H s       :     0.792681  s :     0.792681

  4 H s       :     0.777803  s :     0.777803

  5 C s       :     3.345329  s :     3.345329
      pz      :     0.824823  p :     2.519109
      px      :     0.937552
      py      :     0.756733

  6 C s       :     3.368306  s :     3.368306
      pz      :     1.042519  p :     3.107480
      px      :     0.943151
      py      :     1.121810

  7 C s       :     3.340453  s :     3.340453
      pz      :     1.186929  p :     3.111246
      px      :     0.986638
      py      :     0.937680

  8 H s       :     0.785769  s :     0.785769

  9 H s       :     0.775885  s :     0.775885

 10 H s       :     0.770873  s :     0.770873

 11 H s       :     0.795300  s :     0.795300

 12 O s       :     3.685493  s :     3.685493
      pz      :     1.637782  p :     4.801897
      px      :     1.287254
      py      :     1.876862

 13 H s       :     0.766098  s :     0.766098

 14 C s       :     3.392387  s :     3.392387
      pz      :     1.010768  p :     2.890932
      px      :     0.805644
      py      :     1.074521

 15 C s       :     3.386924  s :     3.386924
      pz      :     0.992286  p :     3.129937
      px      :     1.011738
      py      :     1.125913

 16 H s       :     0.798715  s :     0.798715

 17 H s       :     0.803239  s :     0.803239

 18 C s       :     3.396790  s :     3.396790
      pz      :     1.032715  p :     2.863345
      px      :     0.755257
      py      :     1.075373

 19 H s       :     0.782170  s :     0.782170

 20 C s       :     3.350415  s :     3.350415
      pz      :     0.958243  p :     2.498474
      px      :     0.751763
      py      :     0.788469

 21 H s       :     0.780989  s :     0.780989

 22 C s       :     3.372469  s :     3.372469
      pz      :     1.093551  p :     3.107589
      px      :     1.125863
      py      :     0.888175

 23 C s       :     3.327094  s :     3.327094
      pz      :     1.082679  p :     3.100221
      px      :     0.898915
      py      :     1.118627

 24 H s       :     0.788298  s :     0.788298

 25 H s       :     0.793331  s :     0.793331

 26 C s       :     3.349935  s :     3.349935
      pz      :     1.179552  p :     3.046939
      px      :     0.955901
      py      :     0.911486

 27 H s       :     0.791937  s :     0.791937

 28 H s       :     0.783089  s :     0.783089

 29 C s       :     3.318197  s :     3.318197
      pz      :     0.867355  p :     2.680781
      px      :     0.906539
      py      :     0.906888

 30 H s       :     0.777724  s :     0.777724

 31 H s       :     0.805767  s :     0.805767

 32 C s       :     3.362446  s :     3.362446
      pz      :     1.065161  p :     2.866343
      px      :     0.870497
      py      :     0.930685

 33 H s       :     0.772471  s :     0.772471

 34 C s       :     3.344536  s :     3.344536
      pz      :     1.188155  p :     3.085985
      px      :     0.930361
      py      :     0.967468

 35 H s       :     0.656811  s :     0.656811

 36 C s       :     3.336073  s :     3.336073
      pz      :     1.160002  p :     3.091070
      px      :     0.953844
      py      :     0.977224

 37 H s       :     0.792103  s :     0.792103

 38 H s       :     0.801090  s :     0.801090

 39 C s       :     3.338585  s :     3.338585
      pz      :     1.049149  p :     2.846071
      px      :     0.863530
      py      :     0.933393

 40 H s       :     0.789439  s :     0.789439

 41 H s       :     0.794444  s :     0.794444

 42 H s       :     0.787465  s :     0.787465

 43 C s       :     3.348419  s :     3.348419
      pz      :     1.039236  p :     2.890320
      px      :     0.878687
      py      :     0.972396

 44 C s       :     3.365942  s :     3.365942
      pz      :     0.965213  p :     3.261477
      px      :     1.157182
      py      :     1.139082

 45 H s       :     0.791104  s :     0.791104

 46 H s       :     0.798867  s :     0.798867

 47 H s       :     0.794341  s :     0.794341

 48 H s       :     0.781547  s :     0.781547

 49 C s       :     3.352253  s :     3.352253
      pz      :     1.143039  p :     3.287231
      px      :     1.166050
      py      :     0.978142

 50 C s       :     3.350672  s :     3.350672
      pz      :     0.964144  p :     2.836000
      px      :     0.797566
      py      :     1.074290

 51 C s       :     3.349948  s :     3.349948
      pz      :     0.955929  p :     2.829325
      px      :     0.802410
      py      :     1.070985

 52 H s       :     0.774736  s :     0.774736

 53 H s       :     0.785370  s :     0.785370

 54 C s       :     3.341165  s :     3.341165
      pz      :     1.073758  p :     2.879851
      px      :     0.873778
      py      :     0.932316

 55 C s       :     3.351871  s :     3.351871
      pz      :     1.159460  p :     3.291668
      px      :     1.172854
      py      :     0.959354

 56 C s       :     3.311967  s :     3.311967
      pz      :     0.880504  p :     2.890505
      px      :     0.880999
      py      :     1.129002

 57 H s       :     0.774960  s :     0.774960

 58 H s       :     0.779417  s :     0.779417

 59 C s       :     3.341842  s :     3.341842
      pz      :     1.102424  p :     3.268693
      px      :     1.018771
      py      :     1.147498

 60 C s       :     3.344649  s :     3.344649
      pz      :     0.985808  p :     3.269120
      px      :     1.166053
      py      :     1.117259

 61 H s       :     0.798828  s :     0.798828

 62 H s       :     0.803430  s :     0.803430

 63 H s       :     0.787670  s :     0.787670

 64 H s       :     0.795801  s :     0.795801

 65 H s       :     0.799990  s :     0.799990

 66 H s       :     0.802371  s :     0.802371

 67 H s       :     0.804414  s :     0.804414

 68 H s       :     0.798070  s :     0.798070

 69 H s       :     0.800084  s :     0.800084

 70 H s       :     0.799585  s :     0.799585

 71 H s       :     0.785192  s :     0.785192

 72 H s       :     0.808255  s :     0.808255


------------------------
MULLIKEN OVERLAP CHARGES
------------------------
B(  0-C ,  1-C ) :   0.4958 B(  0-C ,  2-C ) :  -0.1305 B(  0-C ,  3-H ) :  -0.0877 
B(  0-C ,  4-H ) :  -0.0673 B(  0-C ,  5-C ) :   0.4213 B(  0-C ,  6-C ) :  -0.1565 
B(  0-C , 14-C ) :   0.9461 B(  0-C , 15-C ) :  -0.2027 B(  0-C , 18-C ) :  -0.1836 
B(  0-C , 19-H ) :  -0.0751 B(  1-C ,  2-C ) :   0.5269 B(  1-C ,  3-H ) :   0.7958 
B(  1-C ,  4-H ) :   0.8137 B(  1-C ,  5-C ) :  -0.1483 B(  1-C ,  7-C ) :  -0.1691 
B(  1-C , 12-O ) :  -0.0831 B(  1-C , 13-H ) :  -0.0843 B(  1-C , 14-C ) :  -0.1078 
B(  2-C ,  3-H ) :  -0.0820 B(  2-C ,  4-H ) :  -0.0581 B(  2-C ,  6-C ) :  -0.1288 
B(  2-C ,  7-C ) :   0.5343 B(  2-C , 10-H ) :  -0.0697 B(  2-C , 11-H ) :  -0.0825 
B(  2-C , 12-O ) :   0.6904 B(  2-C , 13-H ) :   0.7986 B(  2-C , 35-H ) :  -0.1131 
B(  5-C ,  6-C ) :   0.5391 B(  5-C ,  7-C ) :  -0.1715 B(  5-C ,  8-H ) :  -0.0881 
B(  5-C ,  9-H ) :  -0.0736 B(  5-C , 14-C ) :  -0.1964 B(  5-C , 15-C ) :   1.0582 
B(  5-C , 16-H ) :  -0.0995 B(  5-C , 17-H ) :  -0.0943 B(  6-C ,  7-C ) :   0.5412 
B(  6-C ,  8-H ) :   0.8036 B(  6-C ,  9-H ) :   0.8190 B(  6-C , 11-H ) :  -0.0739 
B(  6-C , 15-C ) :  -0.1290 B(  7-C ,  8-H ) :  -0.0770 B(  7-C , 10-H ) :   0.8059 
B(  7-C , 11-H ) :   0.7945 B(  7-C , 12-O ) :  -0.0901 B(  7-C , 13-H ) :  -0.0841 
B( 12-O , 35-H ) :   0.6599 B( 14-C , 18-C ) :   0.6127 B( 14-C , 19-H ) :   0.8251 
B( 14-C , 20-C ) :  -0.1951 B( 14-C , 21-H ) :  -0.0733 B( 15-C , 16-H ) :   0.8143 
B( 15-C , 17-H ) :   0.8069 B( 18-C , 19-H ) :  -0.0610 B( 18-C , 20-C ) :   0.9217 
B( 18-C , 21-H ) :   0.8317 B( 18-C , 22-C ) :  -0.1497 B( 18-C , 32-C ) :  -0.1483 
B( 20-C , 21-H ) :  -0.0846 B( 20-C , 22-C ) :   0.5324 B( 20-C , 23-C ) :  -0.1714 
B( 20-C , 24-H ) :  -0.0667 B( 20-C , 25-H ) :  -0.0930 B( 20-C , 29-C ) :  -0.1239 
B( 20-C , 32-C ) :   0.5182 B( 20-C , 33-H ) :  -0.0917 B( 20-C , 34-C ) :  -0.0984 
[...]
        0.0000         1.6142        0.0000
        0.0000         0.0000        1.6142

 Diagonalized JT*J matrix:
 
 J[55,60](FC)             1.614            1.614            1.614  iso=      1.614
                ---------------  ---------------  ---------------  ---------------
 J[55,60](Total)          1.614            1.614            1.614  iso=      1.614



-----------------------------------------------------------
 NUCLEUS A = C   56 NUCLEUS B = C   59 
 ( 13C  gnA =  1.405  13C  gnB =  1.405) r(AB) =     1.5303
-----------------------------------------------------------

Fermi-contact contribution to J (Hz):
       26.9574         0.0000        0.0000
        0.0000        26.9574        0.0000
        0.0000         0.0000       26.9574

Total spin-spin coupling tensor J (Hz):
       26.9574         0.0000        0.0000
        0.0000        26.9574        0.0000
        0.0000         0.0000       26.9574

 Diagonalized JT*J matrix:
 
 J[56,59](FC)            26.957           26.957           26.957  iso=     26.957
                ---------------  ---------------  ---------------  ---------------
 J[56,59](Total)         26.957           26.957           26.957  iso=     26.957



-----------------------------------------------------------
 NUCLEUS A = C   56 NUCLEUS B = C   60 
 ( 13C  gnA =  1.405  13C  gnB =  1.405) r(AB) =     1.5301
-----------------------------------------------------------

Fermi-contact contribution to J (Hz):
       26.9441         0.0000        0.0000
        0.0000        26.9441        0.0000
        0.0000         0.0000       26.9441

Total spin-spin coupling tensor J (Hz):
       26.9441         0.0000        0.0000
        0.0000        26.9441        0.0000
        0.0000         0.0000       26.9441

 Diagonalized JT*J matrix:
 
 J[56,60](FC)            26.944           26.944           26.944  iso=     26.944
                ---------------  ---------------  ---------------  ---------------
 J[56,60](Total)         26.944           26.944           26.944  iso=     26.944



-----------------------------------------------------------
 NUCLEUS A = C   59 NUCLEUS B = C   60 
 ( 13C  gnA =  1.405  13C  gnB =  1.405) r(AB) =     2.5176
-----------------------------------------------------------

Fermi-contact contribution to J (Hz):
       -0.8466         0.0000        0.0000
        0.0000        -0.8466        0.0000
        0.0000         0.0000       -0.8466

Total spin-spin coupling tensor J (Hz):
       -0.8466         0.0000        0.0000
        0.0000        -0.8466        0.0000
        0.0000         0.0000       -0.8466

 Diagonalized JT*J matrix:
 
 J[59,60](FC)            -0.847           -0.847           -0.847  iso=     -0.847
                ---------------  ---------------  ---------------  ---------------
 J[59,60](Total)         -0.847           -0.847           -0.847  iso=     -0.847



-----------------------------------------------------------------------------
                SUMMARY OF ISOTROPIC COUPLING CONSTANTS J (Hz)                
-----------------------------------------------------------------------------
                  0 C        1 C        2 C        5 C        6 C        7 C  
      0 C        0.000     32.405     -2.378     42.201     -0.174      0.893
      1 C       32.405      0.000     25.315     -1.183      0.381     -0.380
      2 C       -2.378     25.315      0.000      2.003     -1.356     25.797
      5 C       42.201     -1.183      2.003      0.000     30.968     -2.901
      6 C       -0.174      0.381     -1.356     30.968      0.000     23.077
      7 C        0.893     -0.380     25.797     -2.901     23.077      0.000
     14 C       70.192     -0.375      3.571     -3.187      2.739     -0.709
     15 C       -3.288      2.726     -0.834     64.291     -0.897      2.835
     18 C       -2.642      4.231     -1.066      3.285     -1.016      0.208
     20 C        6.957     -1.154      1.253     -1.507      0.785     -0.147
     22 C       -0.939      0.333     -0.379      0.446     -0.236      0.047
     23 C        0.794     -0.270      0.290     -0.332      0.189      0.000
     26 C       -0.077      0.030      0.000      0.041      0.000      0.000
     29 C        1.118     -0.358      0.000     -0.484      0.256      0.000
     32 C       -1.152      0.557     -0.413      0.515     -0.277      0.059
     34 C        0.021     -0.015      0.016     -0.017      0.008     -0.002
     36 C       -0.013      0.000      0.000      0.015     -0.008      0.000
     39 C       -0.080      0.000      0.000      0.034      0.000      0.000
     43 C        0.000      0.000      0.000      0.000      0.000      0.000
     44 C        0.006     -0.002      0.003     -0.005      0.004     -0.001
     49 C        0.000      0.000      0.000      0.000      0.000      0.000
     50 C        0.000      0.000      0.000      0.000      0.000      0.000
     51 C        0.000      0.000      0.000      0.000      0.000      0.000
     54 C        0.000      0.000      0.000      0.000      0.000      0.000
     55 C        0.000      0.000      0.000      0.000      0.000      0.000
     56 C        0.000      0.000      0.000      0.000      0.000      0.000
     59 C        0.000      0.000      0.000      0.000      0.000      0.000
     60 C        0.000      0.000      0.000      0.000      0.000      0.000
                 14 C       15 C       18 C       20 C       22 C       23 C  
      0 C       70.192     -3.288     -2.642      6.957     -0.939      0.794
      1 C       -0.375      2.726      4.231     -1.154      0.333     -0.270
      2 C        3.571     -0.834     -1.066      1.253     -0.379      0.290
      5 C       -3.187     64.291      3.285     -1.507      0.446     -0.332
      6 C        2.739     -0.897     -1.016      0.785     -0.236      0.189
      7 C       -0.709      2.835      0.208     -0.147      0.047      0.000
     14 C        0.000      3.065     54.479     -2.773      3.883     -0.890
     15 C        3.065      0.000     -1.128      1.072     -0.276      0.237
     18 C       54.479     -1.128      0.000     70.036     -2.161      2.472
     20 C       -2.773      1.072     70.036      0.000     32.237     -2.863
     22 C        3.883     -0.276     -2.161     32.237      0.000     24.467
     23 C       -0.890      0.237      2.472     -2.863     24.467      0.000
     26 C        0.116     -0.021     -0.365      1.025     -1.922     25.401
     29 C       -1.146      0.339      2.386     -2.345      1.079     -2.189
     32 C        4.415     -0.338     -1.331     37.039     -0.203      1.537
     34 C        0.062      0.004      2.461     -1.317      1.618     -0.253
     36 C        0.011     -0.014     -0.154      3.474      0.073      0.172
     39 C        0.269     -0.024     -0.054      2.952     -0.339      2.539
     43 C        0.014      0.000      0.298      0.226     -0.005     -0.109
     44 C        0.005      0.003     -0.080      0.697     -0.132      0.620
     49 C       -0.002      0.000     -0.009     -0.031      0.143      0.055
     50 C        0.000      0.000      0.004      0.218     -0.008      0.114
     51 C        0.000      0.000      0.000      0.066     -0.003      0.001
     54 C        0.000      0.000      0.000      0.000      0.000      0.000
     55 C        0.000      0.000      0.000      0.000      0.000      0.000
     56 C        0.000      0.000      0.000      0.000      0.000      0.000
     59 C        0.000      0.000      0.000      0.000      0.000      0.000
     60 C        0.000      0.000      0.000      0.000      0.000      0.000
                 26 C       29 C       32 C       34 C       36 C       39 C  
      0 C       -0.077      1.118     -1.152      0.021     -0.013     -0.080
      1 C        0.030     -0.358      0.557     -0.015      0.000      0.000
      2 C        0.000      0.000     -0.413      0.016      0.000      0.000
      5 C        0.041     -0.484      0.515     -0.017      0.015      0.034
      6 C        0.000      0.256     -0.277      0.008     -0.008      0.000
      7 C        0.000      0.000      0.059     -0.002      0.000      0.000
     14 C        0.116     -1.146      4.415      0.062      0.011      0.269
     15 C       -0.021      0.339     -0.338      0.004     -0.014     -0.024
     18 C       -0.365      2.386     -1.331      2.461     -0.154     -0.054
     20 C        1.025     -2.345     37.039     -1.317      3.474      2.952
     22 C       -1.922      1.079     -0.203      1.618      0.073     -0.339
     23 C       25.401     -2.189      1.537     -0.253      0.172      2.539
     26 C        0.000     27.856     -0.935      2.312      3.031     -0.559
     29 C       27.856      0.000     23.353      0.865      0.713     28.049
     32 C       -0.935     23.353      0.000     27.989      1.241      3.419
     34 C        2.312      0.865     27.989      0.000     26.113      0.022
     36 C        3.031      0.713      1.241     26.113      0.000     26.461
     39 C       -0.559     28.049      3.419      0.022     26.461      0.000
     43 C       -0.022     -0.672      2.856      1.562     -0.015     27.809
     44 C       -0.588     27.219     -0.996      0.802      0.306     -1.245
     49 C        0.442      0.112     -0.004      0.062      3.277     -0.992
     50 C       -0.075      3.022      0.014      0.097      1.407     -2.781
     51 C       -0.016      0.157      0.148     -0.036      0.070      2.776
     54 C       -0.002      0.088     -0.037      0.014     -0.001     -0.840
     55 C        0.000      0.003      0.006     -0.002      0.004      0.046
     56 C       -0.003      0.031      0.000     -0.006      0.016      0.885
     59 C        0.000      0.000      0.000      0.000     -0.001     -0.042
     60 C        0.000     -0.000      0.000      0.000     -0.001      0.003
                 43 C       44 C       49 C       50 C       51 C       54 C  
      0 C        0.000      0.006      0.000      0.000      0.000      0.000
      1 C        0.000     -0.002      0.000      0.000      0.000      0.000
      2 C        0.000      0.003      0.000      0.000      0.000      0.000
      5 C        0.000     -0.005      0.000      0.000      0.000      0.000
      6 C        0.000      0.004      0.000      0.000      0.000      0.000
      7 C        0.000     -0.001      0.000      0.000      0.000      0.000
     14 C        0.014      0.005     -0.002      0.000      0.000      0.000
     15 C        0.000      0.003      0.000      0.000      0.000      0.000
     18 C        0.298     -0.080     -0.009      0.004      0.000      0.000
     20 C        0.226      0.697     -0.031      0.218      0.066      0.000
     22 C       -0.005     -0.132      0.143     -0.008     -0.003      0.000
     23 C       -0.109      0.620      0.055      0.114      0.001      0.000
     26 C       -0.022     -0.588      0.442     -0.075     -0.016     -0.002
     29 C       -0.672     27.219      0.112      3.022      0.157      0.088
     32 C        2.856     -0.996     -0.004      0.014      0.148     -0.037
     34 C        1.562      0.802      0.062      0.097     -0.036      0.014
     36 C       -0.015      0.306      3.277      1.407      0.070     -0.001
     39 C       27.809     -1.245     -0.992     -2.781      2.776     -0.840
     43 C        0.000      1.404     27.305     35.914     -1.339      3.389
     44 C        1.404      0.000     -0.033     -0.105      0.079      0.008
     49 C       27.305     -0.033      0.000     -1.982      3.111      0.001
     50 C       35.914     -0.105     -1.982      0.000     69.252     -1.616
     51 C       -1.339      0.079      3.111     69.252      0.000     36.699
     54 C        3.389      0.008      0.001     -1.616     36.699      0.000
     55 C       -0.018     -0.001      0.091      2.846     -1.690     27.669
     56 C       -0.707      0.003      0.035      3.099     -1.404     25.736
     59 C        0.169      0.000     -0.009      0.401      3.738     -0.321
     60 C        0.006      0.000     -0.004     -0.088      0.488     -1.350
                 55 C       56 C       59 C       60 C  
      0 C        0.000      0.000      0.000      0.000
      1 C        0.000      0.000      0.000      0.000
      2 C        0.000      0.000      0.000      0.000
      5 C        0.000      0.000      0.000      0.000
      6 C        0.000      0.000      0.000      0.000
      7 C        0.000      0.000      0.000      0.000
     14 C        0.000      0.000      0.000      0.000
     15 C        0.000      0.000      0.000      0.000
     18 C        0.000      0.000      0.000      0.000
     20 C        0.000      0.000      0.000      0.000
     22 C        0.000      0.000      0.000      0.000
     23 C        0.000      0.000      0.000      0.000
     26 C        0.000     -0.003      0.000      0.000
     29 C        0.003      0.031      0.000     -0.000
     32 C        0.006      0.000      0.000      0.000
     34 C       -0.002     -0.006      0.000      0.000
     36 C        0.004      0.016     -0.001     -0.001
     39 C        0.046      0.885     -0.042      0.003
     43 C       -0.018     -0.707      0.169      0.006
     44 C       -0.001      0.003      0.000      0.000
     49 C        0.091      0.035     -0.009     -0.004
     50 C        2.846      3.099      0.401     -0.088
     51 C       -1.690     -1.404      3.738      0.488
     54 C       27.669     25.736     -0.321     -1.350
     55 C        0.000     -1.698      0.812      1.614
     56 C       -1.698      0.000     26.957     26.944
     59 C        0.812     26.957      0.000     -0.847
     60 C        1.614     26.944     -0.847      0.000

NMR spin-spin coupling calculation done in   0.3 sec 

Maximum memory used throughout the entire PROP-calculation: 33.8 MB

--------------------------------
SUGGESTED CITATIONS FOR THIS RUN
--------------------------------

Below you find a list of papers that are relevant to this ORCA run
We neither can nor want to force you to cite these papers, but we appreciate if you do
You receive ORCA, which is the product of decades of hard work by many enthusiastic individuals, for free
The only thing we kindly ask in return is that you cite our papers,
We deeply appreciate it, if you show your appreciation for ORCA by not just citing the generic ORCA reference.

Please note that relegating all ORCA citations to the supporting information does *not* help us.
SI sections are not indexed - citations you put there will not count into any citation statistics
But we need these citations in order to attract the funding resources that allow us to do what we are doing

Therefore, if you are a happy ORCA user, please consider citing a few of the papers listed below in the main body of your paper

In addition to the list printed below, the program has created the file inpJ.bibtex that contains the list in bibtex format
You can import this file easily into all common literature databanks and citation aid programs


List of essential papers. We consider these as the minimum necessary citations

  1. Neese,F.
     Software update: the ORCA program system, version 5.0
     WIRES Comput. Molec. Sci., 2022 12(1)e1606
     doi.org/10.1002/wcms.1606

List of papers to cite with high priority. The work reported in these papers was absolutely
necessary for this run to complete.
Our perspective: the developers of density functionals and basis sets usually get cited in chemistry papers
Good! But without the algorithms to do something with them, the functionals or basis sets would not do anything.
Hence, in our opinion, the algorithm design and method developments papers are equally worthy of getting cited

  1. Neese,F.
     An improvement of the resolution of the identity approximation for the formation of the Coulomb matrix
     J. Comp. Chem., 2003 24(14)1740-1747
     doi.org/10.1002/jcc.10318
  2. Neese,F.; Wennmohs,F.; Hansen,A.; Becker,U.
     Efficient, approximate and parallel Hartree-Fock and hybrid DFT calculations. A 'chain-of-spheres' algorithm for the Hartree-Fock exchange
     Chem. Phys., 2009 356(1-3)98-109
     doi.org/10.1016/j.chemphys.2008.10.036
  3. Stoychev,G.L.; Auer,A.A.; Izsak,R.; Neese,F.
     Self-Consistent Field Calculation of Nuclear Magnetic Resonance Chemical Shielding Constants Using Gauge-Including Atomic Orbitals and Approximate Two-Electron Integrals
     J. Chem. Theory Comput., 2018 14(2)619-637
     doi.org/10.1021/acs.jctc.7b01006
  4. Garcia-Rates,M.; Neese,F.
     Effect of the Solute Cavity on the Solvation Energy and its Derivatives within the Framework of the Gaussian Charge Scheme
     J. Comput. Chem., 2020 41 922-939
     doi.org/10.1002/jcc.26139
  5. Helmich-Paris,B.; de Souza,B.; Neese,F.; Izsák,R.
     An improved chain of spheres for exchange algorithm
     J. Chem. Phys., 2021 155 104109
     doi.org/doi: 10.1063/5.0058766.
  6. Neese,F.
     The SHARK Integral Generation and Digestion System
     J. Comp. Chem., 2022  1-16
     doi.org/10.1002/jcc.26942
  7. Grimme,S.; Bannwarth,C.; Dohm,S.; Hansen,A.; Pisarek,J.; Pracht,P.; Seibert,J.; Neese,F.
     Fully Automated Quantum-Chemistry-Based Computation of Spin-Spin-Coupled Nuclear Magnetic Resonance Spectra
     Angew. Chem., Int. Ed., 2017 56 14763-14769
     doi.org/10.1002/anie.201708266
  8. Caldeweyher,E.; Bannwarth,C.; Grimme,S.
     Extension of the D3 dispersion coefficient model
     J. Chem. Phys., 2017 147 034112-XXXX
     doi.org/10.1063/1.4993215
  9. Caldeweyher,E.; Ehlert,S.; Hansen,A.; Neugebauer,H.; Spicher,S.; Bannwarth,C.; Grimme,S.
     A generally applicable atomic-charge dependent London dispersion correction
     J. Chem. Phys., 2019 150 154122-XXXX
     doi.org/10.1063/1.5090222
 10. Caldeweyher,E.; Mewes,J.; Ehlert,S.; Grimme,S.
     Extension and evaluation of the D4 London-dispersion model for periodic systems
     Phys. Chem. Chem. Phys., 2020 22(16)8499-8512
     doi.org/10.1039/D0CP00502A

List of suggested additional citations. These are papers that are important in the 'surrounding' of 
of this run, or papers that preceded the highly important papers. If you like your results we are grateful for a citation.

  1. Izsak,R.; Neese,F.
     An overlap fitted chain of spheres exchange method
     J. Chem. Phys., 2011 135 144105
     doi.org/10.1063/1.3646921
  2. Izsak,R.; Hansen,A.; Neese,F.
     The resolution of identity and chain of spheres approximations for the LPNO-CCSD singles Fock term
     Molec. Phys., 2012 110 2413-2417
     doi.org/10.1080/00268976.2012.687466
  3. Neese,F.
     The ORCA program system
     WIRES Comput. Molec. Sci., 2012 2(1)73-78
     doi.org/10.1002/wcms.81
  4. Izsak,R.; Neese,F.; Klopper,W.
     Robust fitting techniques in the chain of spheres approximation to the Fock exchange: The role of the complementary space
     J. Chem. Phys., 2013 139 
     doi.org/10.1063/1.4819264
  5. Neese,F.
     Software update: the ORCA program system, version 4.0
     WIRES Comput. Molec. Sci., 2018 8(1)1-6
     doi.org/10.1002/wcms.1327
  6. Neese,F.; Wennmohs,F.; Becker,U.; Riplinger,C.
     The ORCA quantum chemistry program package
     J. Chem. Phys., 2020 152 Art. No. L224108
     doi.org/10.1063/5.0004608

Timings for individual modules:

Sum of individual times          ...      130.309 sec (=   2.172 min)
Startup calculation              ...        4.086 sec (=   0.068 min)   3.1 %
SCF iterations                   ...       18.778 sec (=   0.313 min)  14.4 %
Property integrals               ...        0.641 sec (=   0.011 min)   0.5 %
SCF Response                     ...      106.174 sec (=   1.770 min)  81.5 %
Property calculations            ...        0.631 sec (=   0.011 min)   0.5 %
                             ****ORCA TERMINATED NORMALLY****
TOTAL RUN TIME: 0 days 0 hours 2 minutes 10 seconds 616 msec
