
                                 *****************
                                 * O   R   C   A *
                                 *****************

                                            #,                                       
                                            ###                                      
                                            ####                                     
                                            #####                                    
                                            ######                                   
                                           ########,                                 
                                     ,,################,,,,,                         
                               ,,#################################,,                 
                          ,,##########################################,,             
                       ,#########################################, ''#####,          
                    ,#############################################,,   '####,        
                  ,##################################################,,,,####,       
                ,###########''''           ''''###############################       
              ,#####''   ,,,,##########,,,,          '''####'''          '####       
            ,##' ,,,,###########################,,,                        '##       
           ' ,,###''''                  '''############,,,                           
         ,,##''                                '''############,,,,        ,,,,,,###''
      ,#''                                            '''#######################'''  
     '                                                          ''''####''''         
             ,#######,   #######,   ,#######,      ##                                
            ,#'     '#,  ##    ##  ,#'     '#,    #''#        ,####,   ,####,        
            ##       ##  ##   ,#'  ##            #'  '#       #'       #'  '#        
            ##       ##  #######   ##           ,######,      #####,   #    #        
            '#,     ,#'  ##    ##  '#,     ,#' ,#      #,     #,   #   #,  ,#        
             '#######'   ##     ##  '#######'  #'      '#     '####' # '####'        



                #########################################################
                #                        -***-                          #
                #          Department of theory and spectroscopy        #
                #                                                       #
                #                      Frank Neese                      #
                #                                                       #
                #     Directorship, Architecture, Infrastructure        #
                #                    SHARK, DRIVERS                     #
                #        Core code/Algorithms in most modules           #
                #                                                       #
                #        Max Planck Institute fuer Kohlenforschung      #
                #                Kaiser Wilhelm Platz 1                 #
                #                 D-45470 Muelheim/Ruhr                 #
                #                      Germany                          #
                #                                                       #
                #                  All rights reserved                  #
                #                        -***-                          #
                #########################################################


                         Program Version 6.0.0  -   RELEASE  -


 With contributions from (in alphabetic order):
   Daniel Aravena         : Magnetic Suceptibility
   Michael Atanasov       : Ab Initio Ligand Field Theory (pilot matlab implementation)
   Alexander A. Auer      : GIAO ZORA, VPT2 properties, NMR spectrum
   Ute Becker             : All parallelization in ORCA, NUMFREQ, NUMCALC
   Giovanni Bistoni       : ED, misc. LED, open-shell LED, HFLD
   Martin Brehm           : Molecular dynamics
   Dmytro Bykov           : pre 5.0 version of the SCF Hessian
   Marcos Casanova-Páez   : Triplet and SCS-CIS(D). UHF-(DLPNO)-IP/EA/STEOM-CCSD. UHF-CVS-IP/STEOM-CCSD
   Vijay G. Chilkuri      : MRCI spin determinant printing, contributions to CSF-ICE
   Pauline Colinet        : FMM embedding
   Dipayan Datta          : RHF DLPNO-CCSD density
   Achintya Kumar Dutta   : EOM-CC, STEOM-CC
   Nicolas Foglia         : Exact transition moments, OPA infrastructure, MCD improvements
   Dmitry Ganyushin       : Spin-Orbit,Spin-Spin,Magnetic field MRCI
   Miquel Garcia          : C-PCM and meta-GGA Hessian, CCSD/C-PCM, Gaussian charge scheme
   Tiago L. C. Gouveia    : GS-ROHF, GS-ROCIS
   Yang Guo               : DLPNO-NEVPT2, F12-NEVPT2, CIM, IAO-localization
   Andreas Hansen         : Spin unrestricted coupled pair/coupled cluster methods
   Ingolf Harden          : AUTO-CI MPn and infrastructure 
   Benjamin Helmich-Paris : MC-RPA, TRAH-(SCF,CASSCF), AVAS, COSX integrals, SCF dyn. polar.
   Lee Huntington         : MR-EOM, pCC
   Robert Izsak           : Overlap fitted RIJCOSX, COSX-SCS-MP3, EOM
   Riya Kayal             : Wick's Theorem for AUTO-CI, AUTO-CI UHF-CCSDT
   Emily Kempfer          : AUTO-CI, RHF CISDT and CCSDT
   Christian Kollmar      : KDIIS, OOCD, Brueckner-CCSD(T), CCSD density, CASPT2, CASPT2-K, improved NEVPT2
   Axel Koslowski         : Symmetry handling
   Simone Kossmann        : Meta GGA functionals, TD-DFT gradient, OOMP2, (MP2 Hessian; deprecated post 5.0)
   Lucas Lang             : DCDCAS
   Marvin Lechner         : AUTO-CI (C++ implementation), FIC-MRCC
   Spencer Leger          : CASSCF response
   Dagmar Lenk            : GEPOL surface, SMD, ORCA-2-JSON
   Dimitrios Liakos       : Extrapolation schemes; Compound Job, initial MDCI parallelization
   Dimitrios Manganas     : Further ROCIS development; embedding schemes. LFT, Crystal Embedding
   Dimitrios Pantazis     : SARC Basis sets
   Anastasios Papadopoulos: AUTO-CI, single reference methods and gradients
   Taras Petrenko         : pre 6.0 DFT Hessian and TD-DFT gradient, (ASA, deprecated), ECA, 1-Electron XAS/XES, NRVS
   Peter Pinski           : DLPNO-MP2, DLPNO-MP2 Gradient
   Christoph Reimann      : Effective Core Potentials
   Marius Retegan         : Local ZFS, SOC
   Christoph Riplinger    : Optimizer, TS searches, QM/MM, DLPNO-CCSD(T), (RO)-DLPNO pert. Triples
   Michael Roemelt        : Original ROCIS implementation
   Masaaki Saitow         : Open-shell DLPNO-CCSD energy and density
   Barbara Sandhoefer     : DKH picture change effects
   Kantharuban Sivalingam : CASSCF convergence/infrastructure, NEVPT2 and variants, FIC-MRCI
   Bernardo de Souza      : ESD, SOC TD-DFT
   Georgi Stoychev        : AutoAux, RI-MP2 NMR, DLPNO-MP2 response, X2C
   Van Anh Tran           : RI-MP2 g-tensors
   Willem Van den Heuvel  : Paramagnetic NMR
   Zikuan Wang            : NOTCH, Electric field optimization 
   Frank Wennmohs         : Technical directorship and infrastructure
   Hang Xu                : AUTO-CI-Response properties 


 We gratefully acknowledge several colleagues who have allowed us to
 interface, adapt or use parts of their codes:
   Stefan Grimme, W. Hujo, H. Kruse, P. Pracht,  : VdW corrections, initial TS optimization,
                  C. Bannwarth, S. Ehlert,         DFT functionals, gCP, sTDA/sTD-DF
                  L. Wittmann, M. Mueller
   Ed Valeev, F. Pavosevic, A. Kumar             : LibInt (2-el integral package), F12 methods
   Garnet Chan, S. Sharma, J. Yang, R. Olivares  : DMRG
   Ulf Ekstrom                                   : XCFun DFT Library
   Mihaly Kallay                                 : mrcc  (arbitrary order and MRCC methods)
   Frank Weinhold                                : gennbo (NPA and NBO analysis)
   Simon Mueller                                 : openCOSMO-RS
   Christopher J. Cramer and Donald G. Truhlar   : smd solvation model
   Lars Goerigk                                  : TD-DFT with DH, B97 family of functionals
   V. Asgeirsson, H. Jonsson                     : NEB implementation
   FAccTs GmbH                                   : IRC, NEB, NEB-TS, DLPNO-Multilevel, CI-OPT
                                                   MM, QMMM, 2- and 3-layer-ONIOM, Crystal-QMMM,
                                                   LR-CPCM, SF, NACMEs, symmetry and pop. for TD-DFT,
                                                   nearIR, NL-DFT gradient (VV10), updates on ESD,
                                                   ML-optimized integration grids, MBIS, APM,
                                                   GOAT, DOCKER, SOLVATOR, interface openCOSMO-RS
   S Lehtola, MJT Oliveira, MAL Marques          : LibXC Library
   Liviu Ungur et al                             : ANISO software


 Your calculation uses the libint2 library for the computation of 2-el integrals
 For citations please refer to: http://libint.valeyev.net

 Your ORCA version has been built with support for libXC version: 6.2.2
 For citations please refer to: https://libxc.gitlab.io

 This ORCA versions uses:
   CBLAS   interface :  Fast vector & matrix operations
   LAPACKE interface :  Fast linear algebra routines
   SCALAPACK package :  Parallel linear algebra routines
   Shared memory     :  Shared parallel matrices
   BLAS/LAPACK       :  OpenBLAS 0.3.27  USE64BITINT DYNAMIC_ARCH NO_AFFINITY Zen SINGLE_THREADED
        Core in use  :  Zen
   Copyright (c) 2011-2014, The OpenBLAS Project


NOTE: MaxCore=8000 MB was set to SCF,MP2,MDCI,CIPSI,MRCI and CIS
      => If you want to overwrite this, your respective input block should be placed after the MaxCore statement
Your calculation utilizes the atom-pairwise dispersion correction
based on EEQ partial charges (D4)


================================================================================

----- Orbital basis set information -----
Your calculation utilizes the basis: def2-SVP
   F. Weigend and R. Ahlrichs, Phys. Chem. Chem. Phys. 7, 3297 (2005).

----- AuxJ basis set information -----
Your calculation utilizes the auxiliary basis: def2/J
   F. Weigend, Phys. Chem. Chem. Phys. 8, 1057 (2006).

================================================================================
                                        WARNINGS
                       Please study these warnings very carefully!
================================================================================

WARNING: Old DensityContainer found on disk!
         Will remove this file - 
         If you want to keep old densities, please start your calculation with a different basename. 


================================================================================
                                       INPUT FILE
================================================================================
NAME = inpS
|  1> ! wb97x-d4
|  2> ! def2-svp
|  3> ! def2/J RIJCOSX
|  4> ! DEFGRID2
|  5> ! scfconv7
|  6> ! smallprint printgap noloewdin
|  7> ! NOSOSCF
|  8> %MaxCore 8000
|  9> %output
| 10>        print[P_BondOrder_M] 1
| 11>        print[P_Mayer] 1
| 12>        print[P_basis] 2
| 13> end
| 14> %pal
| 15>     nprocs 4
| 16> end
| 17> ! CPCM(chloroform)
| 18> *xyz 0 1
| 19> C   -5.0319721100   0.2903045500   0.3480283800
| 20> C   -6.4443865200  -0.1274553300   0.0127561600
| 21> C   -7.0090056100   0.6711194200  -1.1684992100
| 22> H   -7.0984415200   0.0663447900   0.8799299700
| 23> H   -6.4890051700  -1.2000028800  -0.2061214100
| 24> C   -4.8519958300   1.7493845600   0.5036458300
| 25> C   -5.4583382800   2.5758344200  -0.6079167200
| 26> C   -6.9101950000   2.1671373500  -0.8915745700
| 27> H   -4.8674769000   2.4143401500  -1.5223052300
| 28> H   -5.3978221500   3.6415636500  -0.3634264000
| 29> H   -7.3023675600   2.7281046000  -1.7480437300
| 30> H   -7.5380764100   2.4061066000  -0.0199523600
| 31> O   -8.3526521100   0.2720027500  -1.4695853900
| 32> H   -6.4333469200   0.4287391400  -2.0727492700
| 33> C   -4.0401825000  -0.6267801500   0.4427651800
| 34> C   -4.2466460500   2.3084684100   1.5577036800
| 35> H   -3.8399564900   1.7037761000   2.3635180400
| 36> H   -4.1551406500   3.3887877900   1.6415984600
| 37> C   -2.6386772700  -0.3561354700   0.6646136600
| 38> H   -4.3317525300  -1.6660108200   0.2971113000
| 39> C   -1.6629045500  -1.2735840700   0.8370411400
| 40> H   -2.3542257600   0.6934289200   0.6833240000
| 41> C   -1.8587480000  -2.7676186000   0.8877897200
| 42> C   -0.9240749100  -3.4995260400  -0.0931657900
| 43> H   -2.8962380900  -3.0574371800   0.7003676300
| 44> H   -1.6152441600  -3.1034608000   1.9085685300
| 45> C    0.5424599100  -3.0723823200   0.0565421100
| 46> H   -1.2625576600  -3.3093226900  -1.1195636400
| 47> H   -1.0092435300  -4.5812706400   0.0675045700
| 48> C    0.7078808600  -1.5500684500  -0.0530920500
| 49> H    1.1423800700  -3.5947524200  -0.6954421600
| 50> H    0.9136858500  -3.3919969900   1.0420202100
| 51> C   -0.2229596800  -0.9022941600   1.0207482400
| 52> H    0.0952566500  -1.3620730600   1.9747467600
| 53> C    0.2129805500   0.5588659700   1.0606403100
| 54> H   -8.8973082500   0.4758798100  -0.6975071500
| 55> C    1.7430544900   0.4876153100   0.8323618500
| 56> H   -0.0541240200   1.0430382900   2.0058155700
| 57> H   -0.2677535800   1.1293856500   0.2581954900
| 58> C    2.0764422600  -0.9760567000   0.4101649200
| 59> H    2.3005705900   0.7679556400   1.7315908400
| 60> H    2.0463180200   1.1874507800   0.0441873900
| 61> H    2.3631739300  -1.5420100400   1.3111869600
| 62> C    3.2822144200  -1.0424912500  -0.5583387100
| 63> C    0.3518441200  -1.0543742400  -1.4609359000
| 64> H   -0.7131550000  -1.1877304300  -1.6746259400
| 65> H    0.9191913100  -1.6041987900  -2.2198331400
| 66> H    0.5779682800   0.0095270400  -1.5839901700
| 67> H    3.0154242900  -0.4394813800  -1.4424951900
| 68> C    3.6058633600  -2.4591296700  -1.0306450600
| 69> C    4.4615289800  -0.3550503600   0.0910390200
| 70> C    5.5942796300  -0.9349951500   0.4902223000
| 71> H    4.3343490900   0.7139027200   0.2561310900
| 72> H    5.7297640000  -2.0057706900   0.3269483300
| 73> C    6.7664404600  -0.2640436000   1.1591238000
| 74> C    6.5618103500   1.2286848600   1.4116495900
| 75> C    8.0727762700  -0.5903773300   0.3818006600
| 76> H    6.8838559200  -0.7525728300   2.1419800700
| 77> H    8.0709946000  -1.6817854100   0.2364668200
| 78> C    9.3264126600  -0.2375582900   1.1854462000
| 79> C    8.1148763400   0.0635439100  -1.0008496600
| 80> H    5.6823578200   1.3961189400   2.0425027500
| 81> H    6.4102475900   1.7814920500   0.4782456400
| 82> H    7.4248314900   1.6620676100   1.9254022700
| 83> H    10.2242039500  -0.6056564700   0.6763605900
| 84> H    9.2971725500  -0.6831448100   2.1865371200
| 85> H    9.4370136400   0.8468174700   1.2989442800
| 86> H    8.2093383500   1.1525423100  -0.9191354600
| 87> H    7.2081168700  -0.1561378600  -1.5752382200
| 88> H    8.9767364900  -0.3002066600  -1.5710743700
| 89> H    4.5379619700  -2.4699528900  -1.6060123100
| 90> H    2.8147737100  -2.8479963500  -1.6748486500
| 91> H    3.7207303800  -3.1469688600  -0.1846224500
| 92> *
| 93> %eprnmr
| 94>  Nuclei = all C { shift }
| 95>  origin giao
| 96>  giao_2el giao_2el_same_as_scf
| 97>  giao_1el giao_1el_analytic
| 98> end
| 99> 
|100>                          ****END OF INPUT****
================================================================================

                       ****************************
                       * Single Point Calculation *
                       ****************************

---------------------------------
CARTESIAN COORDINATES (ANGSTROEM)
---------------------------------
  C     -5.031972    0.290305    0.348028
  C     -6.444387   -0.127455    0.012756
  C     -7.009006    0.671119   -1.168499
  H     -7.098442    0.066345    0.879930
  H     -6.489005   -1.200003   -0.206121
  C     -4.851996    1.749385    0.503646
  C     -5.458338    2.575834   -0.607917
  C     -6.910195    2.167137   -0.891575
  H     -4.867477    2.414340   -1.522305
  H     -5.397822    3.641564   -0.363426
  H     -7.302368    2.728105   -1.748044
  H     -7.538076    2.406107   -0.019952
  O     -8.352652    0.272003   -1.469585
  H     -6.433347    0.428739   -2.072749
  C     -4.040183   -0.626780    0.442765
  C     -4.246646    2.308468    1.557704
  H     -3.839956    1.703776    2.363518
  H     -4.155141    3.388788    1.641598
  C     -2.638677   -0.356135    0.664614
  H     -4.331753   -1.666011    0.297111
  C     -1.662905   -1.273584    0.837041
  H     -2.354226    0.693429    0.683324
  C     -1.858748   -2.767619    0.887790
  C     -0.924075   -3.499526   -0.093166
  H     -2.896238   -3.057437    0.700368
  H     -1.615244   -3.103461    1.908569
  C      0.542460   -3.072382    0.056542
  H     -1.262558   -3.309323   -1.119564
  H     -1.009244   -4.581271    0.067505
  C      0.707881   -1.550068   -0.053092
  H      1.142380   -3.594752   -0.695442
  H      0.913686   -3.391997    1.042020
  C     -0.222960   -0.902294    1.020748
  H      0.095257   -1.362073    1.974747
  C      0.212981    0.558866    1.060640
  H     -8.897308    0.475880   -0.697507
  C      1.743054    0.487615    0.832362
  H     -0.054124    1.043038    2.005816
  H     -0.267754    1.129386    0.258195
  C      2.076442   -0.976057    0.410165
  H      2.300571    0.767956    1.731591
  H      2.046318    1.187451    0.044187
  H      2.363174   -1.542010    1.311187
  C      3.282214   -1.042491   -0.558339
  C      0.351844   -1.054374   -1.460936
  H     -0.713155   -1.187730   -1.674626
  H      0.919191   -1.604199   -2.219833
  H      0.577968    0.009527   -1.583990
  H      3.015424   -0.439481   -1.442495
  C      3.605863   -2.459130   -1.030645
  C      4.461529   -0.355050    0.091039
  C      5.594280   -0.934995    0.490222
  H      4.334349    0.713903    0.256131
  H      5.729764   -2.005771    0.326948
  C      6.766440   -0.264044    1.159124
  C      6.561810    1.228685    1.411650
  C      8.072776   -0.590377    0.381801
  H      6.883856   -0.752573    2.141980
  H      8.070995   -1.681785    0.236467
  C      9.326413   -0.237558    1.185446
  C      8.114876    0.063544   -1.000850
  H      5.682358    1.396119    2.042503
  H      6.410248    1.781492    0.478246
  H      7.424831    1.662068    1.925402
  H     10.224204   -0.605656    0.676361
  H      9.297173   -0.683145    2.186537
  H      9.437014    0.846817    1.298944
  H      8.209338    1.152542   -0.919135
  H      7.208117   -0.156138   -1.575238
  H      8.976736   -0.300207   -1.571074
  H      4.537962   -2.469953   -1.606012
  H      2.814774   -2.847996   -1.674849
  H      3.720730   -3.146969   -0.184622

----------------------------
CARTESIAN COORDINATES (A.U.)
----------------------------
  NO LB      ZA    FRAG     MASS         X           Y           Z
   0 C     6.0000    0    12.011   -9.509049    0.548596    0.657678
   1 C     6.0000    0    12.011  -12.178126   -0.240856    0.024106
   2 C     6.0000    0    12.011  -13.245101    1.268232   -2.208143
   3 H     1.0000    0     1.008  -13.414110    0.125373    1.662827
   4 H     1.0000    0     1.008  -12.262443   -2.267677   -0.389513
   5 C     6.0000    0    12.011   -9.168943    3.305858    0.951753
   6 C     6.0000    0    12.011  -10.314764    4.867622   -1.148796
   7 C     6.0000    0    12.011  -13.058376    4.095296   -1.684832
   8 H     1.0000    0     1.008   -9.198198    4.562442   -2.876740
   9 H     1.0000    0     1.008  -10.200406    6.881558   -0.686776
  10 H     1.0000    0     1.008  -13.799475    5.155371   -3.303324
  11 H     1.0000    0     1.008  -14.244900    4.546883   -0.037704
  12 O     8.0000    0    15.999  -15.784225    0.514011   -2.777114
  13 H     1.0000    0     1.008  -12.157264    0.810200   -3.916928
  14 C     6.0000    0    12.011   -7.634838   -1.184443    0.836705
  15 C     6.0000    0    12.011   -8.024998    4.362373    2.943633
  16 H     1.0000    0     1.008   -7.256466    3.219670    4.466402
  17 H     1.0000    0     1.008   -7.852078    6.403881    3.102172
  18 C     6.0000    0    12.011   -4.986377   -0.672999    1.255938
  19 H     1.0000    0     1.008   -8.185826   -3.148304    0.561459
  20 C     6.0000    0    12.011   -3.142434   -2.406725    1.581779
  21 H     1.0000    0     1.008   -4.448842    1.310391    1.291295
  22 C     6.0000    0    12.011   -3.512525   -5.230041    1.677679
  23 C     6.0000    0    12.011   -1.746249   -6.613146   -0.176058
  24 H     1.0000    0     1.008   -5.473097   -5.777719    1.323503
  25 H     1.0000    0     1.008   -3.052369   -5.864691    3.606672
  26 C     6.0000    0    12.011    1.025101   -5.805961    0.106849
  27 H     1.0000    0     1.008   -2.385888   -6.253714   -2.115669
  28 H     1.0000    0     1.008   -1.907194   -8.657347    0.127565
  29 C     6.0000    0    12.011    1.337701   -2.929205   -0.100329
  30 H     1.0000    0     1.008    2.158785   -6.793098   -1.314195
  31 H     1.0000    0     1.008    1.726616   -6.409945    1.969133
  32 C     6.0000    0    12.011   -0.421333   -1.705089    1.928935
  33 H     1.0000    0     1.008    0.180009   -2.573945    3.731731
  34 C     6.0000    0    12.011    0.402475    1.056104    2.004320
  35 H     1.0000    0     1.008  -16.813476    0.899283   -1.318097
  36 C     6.0000    0    12.011    3.293896    0.921459    1.572936
  37 H     1.0000    0     1.008   -0.102280    1.971057    3.790442
  38 H     1.0000    0     1.008   -0.505981    2.134230    0.487919
  39 C     6.0000    0    12.011    3.923907   -1.844480    0.775099
  40 H     1.0000    0     1.008    4.347448    1.451226    3.272232
  41 H     1.0000    0     1.008    3.866981    2.243957    0.083502
  42 H     1.0000    0     1.008    4.465752   -2.913977    2.477784
  43 C     6.0000    0    12.011    6.202486   -1.970023   -1.055107
  44 C     6.0000    0    12.011    0.664889   -1.992479   -2.760769
  45 H     1.0000    0     1.008   -1.347668   -2.244485   -3.164584
  46 H     1.0000    0     1.008    1.737020   -3.031496   -4.194877
  47 H     1.0000    0     1.008    1.092202    0.018003   -2.993308
  48 H     1.0000    0     1.008    5.698326   -0.830499   -2.725921
  49 C     6.0000    0    12.011    6.814094   -4.647082   -1.947637
  50 C     6.0000    0    12.011    8.431068   -0.670948    0.172039
  51 C     6.0000    0    12.011   10.571656   -1.766885    0.926386
  52 H     1.0000    0     1.008    8.190733    1.349081    0.484018
  53 H     1.0000    0     1.008   10.827685   -3.790357    0.617843
  54 C     6.0000    0    12.011   12.786719   -0.498970    2.190427
  55 C     6.0000    0    12.011   12.400025    2.321878    2.667631
  56 C     6.0000    0    12.011   15.255336   -1.115651    0.721499
  57 H     1.0000    0     1.008   13.008602   -1.422157    4.047756
  58 H     1.0000    0     1.008   15.251969   -3.178114    0.446858
  59 C     6.0000    0    12.011   17.624366   -0.448920    2.240169
  60 C     6.0000    0    12.011   15.334894    0.120081   -1.891332
  61 H     1.0000    0     1.008   10.738100    2.638282    3.859771
  62 H     1.0000    0     1.008   12.113612    3.366532    0.903753
  63 H     1.0000    0     1.008   14.030898    3.140853    3.638483
  64 H     1.0000    0     1.008   19.320945   -1.144525    1.278136
  65 H     1.0000    0     1.008   17.569110   -1.290957    4.131956
  66 H     1.0000    0     1.008   17.833371    1.600253    2.454649
  67 H     1.0000    0     1.008   15.513401    2.177989   -1.736914
  68 H     1.0000    0     1.008   13.621367   -0.295058   -2.976769
  69 H     1.0000    0     1.008   16.963574   -0.567308   -2.968900
  70 H     1.0000    0     1.008    8.575505   -4.667535   -3.034923
  71 H     1.0000    0     1.008    5.319151   -5.381933   -3.165005
  72 H     1.0000    0     1.008    7.031161   -5.946909   -0.348886

--------------------------------
INTERNAL COORDINATES (ANGSTROEM)
--------------------------------
 C      0   0   0     0.000000000000     0.00000000     0.00000000
 C      1   0   0     1.510577784961     0.00000000     0.00000000
 C      2   1   0     1.533584232210   111.78923002     0.00000000
 H      2   1   3     1.103329890054   109.34511900   241.45658436
 H      2   1   3     1.095562166921   110.68127919   122.91042921
 C      1   2   3     1.478351354614   114.21391700    50.35895290
 C      6   1   2     1.512032354260   114.40934821   312.06842025
 C      3   2   1     1.524637806093   110.31520256   305.13507115
 H      7   6   1     1.100592529885   108.37776826   290.11607679
 H      7   6   1     1.095087444107   110.22081834   172.87667263
 H      8   3   2     1.096368092577   109.69317225   179.15213063
 H      8   3   2     1.100484731577   108.66024338   296.61349898
 O      3   2   1     1.433643233521   111.21429177   180.43547927
 H      3   2   1     1.098999225894   109.03050791    65.27262018
 C      1   2   3     1.354129254817   120.86741753   232.44931066
 C      6   1   2     1.337931634510   123.39696120   129.83121600
 H     16   6   1     1.086455692041   121.40689435     0.64286638
 H     16   6   1     1.087428864406   120.93019753   181.34150867
 C     15   1   2     1.444535288807   126.47398870   175.47531082
 H     15   1   2     1.089141184889   116.15402974   358.04084215
 C     19  15   1     1.350398300724   126.39707076   175.82712770
 H     19  15   1     1.087588224982   115.92548428   355.23998031
 C     21  19  15     1.507670140353   125.70997685   357.31548003
 C     23  21  19     1.539992207284   111.75804867   127.94805301
 H     23  21  19     1.093392672365   112.34317139     3.84393422
 H     23  21  19     1.101850027155   107.72920239   246.58767932
 C     24  23  21     1.534792686694   112.67710715    50.97925224
 H     24  23  21     1.097378892126   109.03848470   288.87992216
 H     24  23  21     1.096922986378   109.16346743   172.90637580
 C     27  24  23     1.535194860118   111.83693853   306.03046516
 H     27  24  23     1.094648373715   108.89634334   182.46554224
 H     27  24  23     1.100513208184   109.19830641    65.99982660
 C     21  19  15     1.498347664762   122.80072820   178.08166904
 H     33  21  19     1.105789964562   106.21838129   123.82486335
 C     33  21  19     1.525327567076   121.01368227     1.71739074
 H     13   3   2     0.966602801111   107.55573185    62.73953511
 C     35  33  21     1.548649080237   103.55891853   196.40848217
 H     35  33  21     1.095045185773   112.11141427    74.44199477
 H     35  33  21     1.095680472656   110.74712279   314.81983549
 C     30  27  24     1.554688655314   116.08399307   166.13164122
 H     37  35  33     1.094544507473   111.73809084   248.86561437
 H     37  35  33     1.096794161680   110.47229589   130.33394112
 H     40  30  27     1.101979559794   106.44300522   320.43639092
 C     40  30  27     1.547998492437   118.90757827    80.74206247
 C     30  27  24     1.534437752416   111.15276544   294.24757898
 H     45  30  27     1.094381301105   111.44376759    66.67741103
 H     45  30  27     1.095497553928   110.68855636   306.57542400
 H     45  30  27     1.094605144646   111.66602326   186.67622417
 H     44  40  30     1.102964440909   106.83753719    62.26332651
 C     44  40  30     1.527968042085   113.46389544   303.26260713
 C     44  40  30     1.511637934458   108.62638285   176.82120980
 C     51  44  40     1.333719342874   126.40070758   113.44116498
 H     51  44  40     1.089077960129   114.85842849   294.91291701
 H     52  51  44     1.091592717480   119.15583458     1.60953376
 C     52  51  44     1.507171592930   126.85490057   181.10032877
 C     55  52  51     1.527704491002   113.83905346     1.66225126
 C     55  52  51     1.554746994145   109.76295524   233.07093887
 H     55  52  51     1.103835878331   106.31247237   119.72864848
 H     57  55  52     1.101043458037   105.82455437   310.94174429
 C     57  55  52     1.530337095963   112.17007734   194.11590488
 C     57  55  52     1.530067747328   112.65684393    68.40426039
 H     56  55  52     1.095192509631   110.61923621    58.82590085
 H     56  55  52     1.095358385831   111.76518503   298.93572962
 H     56  55  52     1.093877466763   111.04341771   178.23128125
 H     60  57  55     1.095761666070   110.47264377   172.04561664
 H     60  57  55     1.096168491129   111.34758386    51.99704112
 H     60  57  55     1.095894693762   111.41920917   291.25121261
 H     61  57  55     1.096137672474   111.07582962    68.76282884
 H     61  57  55     1.095625407867   111.42484571   308.25508189
 H     61  57  55     1.095569995586   110.49234382   187.98816012
 H     50  44  40     1.095432532486   110.59441708   187.28026523
 H     50  44  40     1.091805108305   111.04653225    67.83886822
 H     50  44  40     1.096390186117   111.42772327   307.49027587

---------------------------
INTERNAL COORDINATES (A.U.)
---------------------------
 C      0   0   0     0.000000000000     0.00000000     0.00000000
 C      1   0   0     2.854578317561     0.00000000     0.00000000
 C      2   1   0     2.898054202177   111.78923002     0.00000000
 H      2   1   3     2.084991327572   109.34511900   241.45658436
 H      2   1   3     2.070312458165   110.68127919   122.91042921
 C      1   2   3     2.793679189932   114.21391700    50.35895290
 C      6   1   2     2.857327055179   114.40934821   312.06842025
 C      3   2   1     2.881147906939   110.31520256   305.13507115
 H      7   6   1     2.079818466522   108.37776826   290.11607679
 H      7   6   1     2.069415362058   110.22081834   172.87667263
 H      8   3   2     2.071835436940   109.69317225   179.15213063
 H      8   3   2     2.079614757243   108.66024338   296.61349898
 O      3   2   1     2.709193085104   111.21429177   180.43547927
 H      3   2   1     2.076807558331   109.03050791    65.27262018
 C      1   2   3     2.558933441536   120.86741753   232.44931066
 C      6   1   2     2.528324375134   123.39696120   129.83121600
 H     16   6   1     2.053103714597   121.40689435     0.64286638
 H     16   6   1     2.054942743849   120.93019753   181.34150867
 C     15   1   2     2.729776086630   126.47398870   175.47531082
 H     15   1   2     2.058178560615   116.15402974   358.04084215
 C     19  15   1     2.551882960080   126.39707076   175.82712770
 H     19  15   1     2.055243891694   115.92548428   355.23998031
 C     21  19  15     2.849083665558   125.70997685   357.31548003
 C     23  21  19     2.910163520141   111.75804867   127.94805301
 H     23  21  19     2.066212707606   112.34317139     3.84393422
 H     23  21  19     2.082194791976   107.72920239   246.58767932
 C     24  23  21     2.900337850197   112.67710715    50.97925224
 H     24  23  21     2.073745571264   109.03848470   288.87992216
 H     24  23  21     2.072884034257   109.16346743   172.90637580
 C     27  24  23     2.901097847826   111.83693853   306.03046516
 H     27  24  23     2.068585639263   108.89634334   182.46554224
 H     27  24  23     2.079668570231   109.19830641    65.99982660
 C     21  19  15     2.831466739801   122.80072820   178.08166904
 H     33  21  19     2.089640194661   106.21838129   123.82486335
 C     33  21  19     2.882451366295   121.01368227     1.71739074
 H     13   3   2     1.826614574381   107.55573185    62.73953511
 C     35  33  21     2.926522639196   103.55891853   196.40848217
 H     35  33  21     2.069335505380   112.11141427    74.44199477
 H     35  33  21     2.070536023605   110.74712279   314.81983549
 C     30  27  24     2.937935782057   116.08399307   166.13164122
 H     37  35  33     2.068389360512   111.73809084   248.86561437
 H     37  35  33     2.072640590858   110.47229589   130.33394112
 H     40  30  27     2.082439573190   106.44300522   320.43639092
 C     40  30  27     2.925293206429   118.90757827    80.74206247
 C     30  27  24     2.899667121616   111.15276544   294.24757898
 H     45  30  27     2.068080945172   111.44376759    66.67741103
 H     45  30  27     2.070190357305   110.68855636   306.57542400
 H     45  30  27     2.068503948163   111.66602326   186.67622417
 H     44  40  30     2.084300728771   106.83753719    62.26332651
 C     44  40  30     2.887441140925   113.46389544   303.26260713
 C     44  40  30     2.856581709772   108.62638285   176.82120980
 C     51  44  40     2.520364297544   126.40070758   113.44116498
 H     51  44  40     2.058059083133   114.85842849   294.91291701
 H     52  51  44     2.062811285821   119.15583458     1.60953376
 C     52  51  44     2.848141547464   126.85490057   181.10032877
 C     55  52  51     2.886943101555   113.83905346     1.66225126
 C     55  52  51     2.938046026472   109.76295524   233.07093887
 H     55  52  51     2.085947506841   106.31247237   119.72864848
 H     57  55  52     2.080670597236   105.82455437   310.94174429
 C     57  55  52     2.891918003951   112.17007734   194.11590488
 C     57  55  52     2.891409008796   112.65684393    68.40426039
 H     56  55  52     2.069613907124   110.61923621    58.82590085
 H     56  55  52     2.069927367714   111.76518503   298.93572962
 H     56  55  52     2.067128836249   111.04341771   178.23128125
 H     60  57  55     2.070689456921   110.47264377   172.04561664
 H     60  57  55     2.071458244868   111.34758386    51.99704112
 H     60  57  55     2.070940842828   111.41920917   291.25121261
 H     61  57  55     2.071400006050   111.07582962    68.76282884
 H     61  57  55     2.070431966235   111.42484571   308.25508189
 H     61  57  55     2.070327252199   110.49234382   187.98816012
 H     50  44  40     2.070067484585   110.59441708   187.28026523
 H     50  44  40     2.063212646312   111.04653225    67.83886822
 H     50  44  40     2.071877187681   111.42772327   307.49027587

---------------------
BASIS SET INFORMATION
---------------------
There are 3 groups of distinct atoms

 Group   1 Type C   : 7s4p1d contracted to 3s2p1d pattern {511/31/1}
 Group   2 Type H   : 4s1p contracted to 2s1p pattern {31/1}
 Group   3 Type O   : 7s4p1d contracted to 3s2p1d pattern {511/31/1}

Atom   0C    basis set group =>   1
Atom   1C    basis set group =>   1
Atom   2C    basis set group =>   1
Atom   3H    basis set group =>   2
Atom   4H    basis set group =>   2
Atom   5C    basis set group =>   1
Atom   6C    basis set group =>   1
Atom   7C    basis set group =>   1
Atom   8H    basis set group =>   2
Atom   9H    basis set group =>   2
Atom  10H    basis set group =>   2
Atom  11H    basis set group =>   2
Atom  12O    basis set group =>   3
Atom  13H    basis set group =>   2
Atom  14C    basis set group =>   1
Atom  15C    basis set group =>   1
Atom  16H    basis set group =>   2
Atom  17H    basis set group =>   2
Atom  18C    basis set group =>   1
Atom  19H    basis set group =>   2
Atom  20C    basis set group =>   1
Atom  21H    basis set group =>   2
Atom  22C    basis set group =>   1
Atom  23C    basis set group =>   1
Atom  24H    basis set group =>   2
Atom  25H    basis set group =>   2
Atom  26C    basis set group =>   1
Atom  27H    basis set group =>   2
Atom  28H    basis set group =>   2
Atom  29C    basis set group =>   1
Atom  30H    basis set group =>   2
Atom  31H    basis set group =>   2
Atom  32C    basis set group =>   1
Atom  33H    basis set group =>   2
Atom  34C    basis set group =>   1
Atom  35H    basis set group =>   2
Atom  36C    basis set group =>   1
Atom  37H    basis set group =>   2
Atom  38H    basis set group =>   2
Atom  39C    basis set group =>   1
Atom  40H    basis set group =>   2
Atom  41H    basis set group =>   2
Atom  42H    basis set group =>   2
Atom  43C    basis set group =>   1
Atom  44C    basis set group =>   1
Atom  45H    basis set group =>   2
Atom  46H    basis set group =>   2
Atom  47H    basis set group =>   2
Atom  48H    basis set group =>   2
Atom  49C    basis set group =>   1
Atom  50C    basis set group =>   1
Atom  51C    basis set group =>   1
Atom  52H    basis set group =>   2
Atom  53H    basis set group =>   2
Atom  54C    basis set group =>   1
Atom  55C    basis set group =>   1
Atom  56C    basis set group =>   1
Atom  57H    basis set group =>   2
Atom  58H    basis set group =>   2
Atom  59C    basis set group =>   1
Atom  60C    basis set group =>   1
Atom  61H    basis set group =>   2
Atom  62H    basis set group =>   2
Atom  63H    basis set group =>   2
Atom  64H    basis set group =>   2
Atom  65H    basis set group =>   2
Atom  66H    basis set group =>   2
Atom  67H    basis set group =>   2
Atom  68H    basis set group =>   2
Atom  69H    basis set group =>   2
Atom  70H    basis set group =>   2
Atom  71H    basis set group =>   2
Atom  72H    basis set group =>   2

-------------------------
BASIS SET IN INPUT FORMAT
-------------------------

 # Basis set for element : H 
 NewGTO H 
 S 3 
   1      13.0107010000      0.0334854848
   2       1.9622572000      0.2347218709
   3       0.4445379600      0.8137702853
 S 1 
   1       0.1219496200      1.0000000000
 P 1 
   1       0.8000000000      1.0000000000
  end;

 # Basis set for element : C 
 NewGTO C 
 S 5 
   1    1238.4016938000      0.0055173650
   2     186.2900499200      0.0410888285
   3      42.2511763460      0.1822538213
   4      11.6765579320      0.4682845944
   5       3.5930506482      0.4457581734
 S 1 
   1       0.4024514736      1.0000000000
 S 1 
   1       0.1309018267      1.0000000000
 P 3 
   1       9.4680970621      0.0568883320
   2       2.0103545142      0.3129405934
   3       0.5477100471      0.7606501651
 P 1 
   1       0.1526861379      1.0000000000
 D 1 
   1       0.8000000000      1.0000000000
  end;

 # Basis set for element : O 
 NewGTO O 
 S 5 
   1    2266.1767785000     -0.0053893504
   2     340.8701019100     -0.0402347214
   3      77.3631351670     -0.1800818421
   4      21.4796449400     -0.4682885766
   5       6.6589433124     -0.4469261716
 S 1 
   1       0.8097597567      1.0000000000
 S 1 
   1       0.2553077223      1.0000000000
 P 3 
   1      17.7215043170      0.0626302488
   2       3.8635505440      0.3333113849
   3       1.0480920883      0.7414863830
 P 1 
   1       0.2764154441      1.0000000000
 D 1 
   1       1.2000000000      1.0000000000
  end;

---------------------------------
AUXILIARY/J BASIS SET INFORMATION
---------------------------------
There are 3 groups of distinct atoms

 Group   1 Type C   : 12s5p4d2f1g contracted to 6s4p3d1f1g pattern {711111/2111/211/2/1}
 Group   2 Type H   : 5s2p1d contracted to 3s1p1d pattern {311/2/1}
 Group   3 Type O   : 12s5p4d2f1g contracted to 6s4p3d1f1g pattern {711111/2111/211/2/1}

Atom   0C    basis set group =>   1
Atom   1C    basis set group =>   1
Atom   2C    basis set group =>   1
Atom   3H    basis set group =>   2
Atom   4H    basis set group =>   2
Atom   5C    basis set group =>   1
Atom   6C    basis set group =>   1
Atom   7C    basis set group =>   1
Atom   8H    basis set group =>   2
Atom   9H    basis set group =>   2
Atom  10H    basis set group =>   2
Atom  11H    basis set group =>   2
Atom  12O    basis set group =>   3
Atom  13H    basis set group =>   2
Atom  14C    basis set group =>   1
Atom  15C    basis set group =>   1
Atom  16H    basis set group =>   2
Atom  17H    basis set group =>   2
Atom  18C    basis set group =>   1
Atom  19H    basis set group =>   2
Atom  20C    basis set group =>   1
Atom  21H    basis set group =>   2
Atom  22C    basis set group =>   1
Atom  23C    basis set group =>   1
Atom  24H    basis set group =>   2
Atom  25H    basis set group =>   2
Atom  26C    basis set group =>   1
Atom  27H    basis set group =>   2
Atom  28H    basis set group =>   2
Atom  29C    basis set group =>   1
Atom  30H    basis set group =>   2
Atom  31H    basis set group =>   2
Atom  32C    basis set group =>   1
Atom  33H    basis set group =>   2
Atom  34C    basis set group =>   1
Atom  35H    basis set group =>   2
Atom  36C    basis set group =>   1
Atom  37H    basis set group =>   2
Atom  38H    basis set group =>   2
Atom  39C    basis set group =>   1
Atom  40H    basis set group =>   2
Atom  41H    basis set group =>   2
Atom  42H    basis set group =>   2
Atom  43C    basis set group =>   1
Atom  44C    basis set group =>   1
Atom  45H    basis set group =>   2
Atom  46H    basis set group =>   2
Atom  47H    basis set group =>   2
Atom  48H    basis set group =>   2
Atom  49C    basis set group =>   1
Atom  50C    basis set group =>   1
Atom  51C    basis set group =>   1
Atom  52H    basis set group =>   2
Atom  53H    basis set group =>   2
Atom  54C    basis set group =>   1
Atom  55C    basis set group =>   1
Atom  56C    basis set group =>   1
Atom  57H    basis set group =>   2
Atom  58H    basis set group =>   2
Atom  59C    basis set group =>   1
Atom  60C    basis set group =>   1
Atom  61H    basis set group =>   2
Atom  62H    basis set group =>   2
Atom  63H    basis set group =>   2
Atom  64H    basis set group =>   2
Atom  65H    basis set group =>   2
Atom  66H    basis set group =>   2
Atom  67H    basis set group =>   2
Atom  68H    basis set group =>   2
Atom  69H    basis set group =>   2
Atom  70H    basis set group =>   2
Atom  71H    basis set group =>   2
Atom  72H    basis set group =>   2

-------------------------------------
AUXILIARY/J BASIS SET IN INPUT FORMAT
-------------------------------------

 # Auxiliary/J basis set for element : H 
 NewAuxJGTO H 
 S 3 
   1      15.6752927000      0.1007184237
   2       3.6063578000      0.3404257499
   3       1.2080016000      0.6491996172
 S 1 
   1       0.4726794000      1.0000000000
 S 1 
   1       0.2018100000      1.0000000000
 P 2 
   1       2.0281365000      0.5596620919
   2       0.5358730000      0.5596620919
 D 1 
   1       2.2165124000      1.0000000000
  end;

 # Auxiliary/J basis set for element : C 
 NewAuxJGTO C 
 S 7 
   1    1861.0916331000      0.0134602335
   2     642.9939764000      0.0299160374
   3     235.1105725000      0.1008649584
   4      90.7028894000      0.2370970548
   5      36.7794552000      0.3924037254
   6      15.6046273000      0.3195862154
   7       6.8907294000      0.0530104441
 S 1 
   1       3.1478850000     -1.0000000000
 S 1 
   1       1.4777287000      1.0000000000
 S 1 
   1       0.7076466000      1.0000000000
 S 1 
   1       0.3430122000      1.0000000000
 S 1 
   1       0.1669453000      1.0000000000
 P 2 
   1      13.5472892000     -0.6769313712
   2       5.4669419000     -0.3779500978
 P 1 
   1       2.1751721000      1.0000000000
 P 1 
   1       0.8582194000      1.0000000000
 P 1 
   1       0.3376720000      1.0000000000
 D 2 
   1       5.9287253000     -0.3533329857
   2       1.9809209000     -0.7456525731
 D 1 
   1       0.8055417000     -1.0000000000
 D 1 
   1       0.3531244000     -1.0000000000
 F 2 
   1       1.6755626000      0.6311076882
   2       0.5997536000      0.4968166032
 G 1 
   1       1.0024600000     -1.0000000000
  end;

 # Auxiliary/J basis set for element : O 
 NewAuxJGTO O 
 S 7 
   1    2876.8216605000      0.0168151159
   2    1004.7443032000      0.0340137548
   3     369.7579954000      0.1194951309
   4     142.9442404000      0.2664627624
   5      57.8366425000      0.4202764046
   6      24.3864983000      0.2765077335
   7      10.6622662000      0.0057008815
 S 1 
   1       4.8070437000     -1.0000000000
 S 1 
   1       2.2210770000      1.0000000000
 S 1 
   1       1.0447795000      1.0000000000
 S 1 
   1       0.4968425000      1.0000000000
 S 1 
   1       0.2371384000      1.0000000000
 P 2 
   1      64.2613382000     -0.2731534179
   2      16.3006076000     -0.8168011598
 P 1 
   1       4.3550542000      1.0000000000
 P 1 
   1       1.2019554000      1.0000000000
 P 1 
   1       0.3354196000      1.0000000000
 D 2 
   1       9.2146611000     -0.4661230638
   2       2.8435251000     -0.6600908911
 D 1 
   1       0.9955759000     -1.0000000000
 D 1 
   1       0.3649441000     -1.0000000000
 F 2 
   1       2.6420115000      0.5931563945
   2       0.7345613000      0.5931563945
 G 1 
   1       1.3931000000     -1.0000000000
  end;


Checking for AutoStart:
The File: inpS.gbw exists
Trying to determine its content:
     ... Fine, the file contains calculation information
     ... Fine, the calculation information was read
     ... Fine, the file contains a basis set
     ... Fine, the basis set was read
     ... Fine, the file contains a geometry
     ... Fine, the geometry was read
     ... Fine, the file contains a set of orbitals
     ... Fine, the orbitals can be read
     => possible old guess file was deleted
     => GBW file was renamed to GES file
     => GES file is set as startup file
     => Guess is set to MORead
     ... now leaving AutoStart



           ************************************************************
           *        Program running with 4 parallel MPI-processes     *
           *              working on a common directory               *
           ************************************************************
------------------------------------------------------------------------------
                             ORCA STARTUP CALCULATIONS
                           -- RI-GTO INTEGRALS CHOSEN --
------------------------------------------------------------------------------
------------------------------------------------------------------------------
                   ___                                                        
                  /   \      - P O W E R E D   B Y -                         
                 /     \                                                     
                 |  |  |   _    _      __       _____    __    __             
                 |  |  |  | |  | |    /  \     |  _  \  |  |  /  |          
                  \  \/   | |  | |   /    \    | | | |  |  | /  /          
                 / \  \   | |__| |  /  /\  \   | |_| |  |  |/  /          
                |  |  |   |  __  | /  /__\  \  |    /   |      \           
                |  |  |   | |  | | |   __   |  |    \   |  |\   \          
                \     /   | |  | | |  |  |  |  | |\  \  |  | \   \       
                 \___/    |_|  |_| |__|  |__|  |_| \__\ |__|  \__/        
                                                                              
                      - O R C A' S   B I G   F R I E N D -                    
                                      &                                       
                       - I N T E G R A L  F E E D E R -                       
                                                                              
 v1 FN, 2020, v2 2021, v3 2022-2024                                           
------------------------------------------------------------------------------


----------------------
SHARK INTEGRAL PACKAGE
----------------------

Number of atoms                             ...     73
Number of basis functions                   ...    626
Number of shells                            ...    306
Maximum angular momentum                    ...      2
Integral batch strategy                     ... SHARK/LIBINT Hybrid
RI-J (if used) integral strategy            ... SPLIT-RIJ (Revised 2003 algorithm where possible)
Printlevel                                  ...      1
Contraction scheme used                     ... SEGMENTED contraction
Prescreening option                         ... SCHWARTZ
   Thresh                                   ... 3.000e-11
   Tcut                                     ... 1.000e-12
   Tpresel                                  ... 1.000e-12 
Coulomb Range Separation                    ... NOT USED
Exchange Range Separation                   ... Long Range
   Mu parameter                             ... 3.000e-01
   Scaling (regular/separated)              ... 1.670e-01 8.330e-01
Multipole approximations                    ... NOT USED
Finite Nucleus Model                        ... NOT USED
CABS basis                                  ... NOT available
Auxiliary Coulomb fitting basis             ... AVAILABLE
   # of basis functions in Aux-J            ...   1905
   # of shells in Aux-J                     ...    655
   Maximum angular momentum in Aux-J        ...      4
Auxiliary J/K fitting basis                 ... NOT available
Auxiliary Correlation fitting basis         ... NOT available
Auxiliary 'external' fitting basis          ... NOT available

Checking pre-screening integrals            ... done (  0.0 sec) Dimension = 306
Check shell pair data                       ... done (  0.0 sec)
Shell pair information
Shell pair cut-off parameter TPreSel        ...   1.0e-12
Total number of shell pairs                 ...     46971
Shell pairs after pre-screening             ...     26888
Total number of primitive shell pairs       ...    162105
Primitive shell pairs kept                  ...     59602
          la=0 lb=0:   9397 shell pairs
          la=1 lb=0:  10319 shell pairs
          la=1 lb=1:   2854 shell pairs
          la=2 lb=0:   2680 shell pairs
          la=2 lb=1:   1446 shell pairs
          la=2 lb=2:    192 shell pairs

Calculating one electron integrals          ... done (  0.1 sec)
Calculating RI/J V-Matrix + Cholesky decomp.... done (  0.2 sec)
Calculating Nuclear repulsion               ... done (  0.0 sec) ENN=   2745.318725756475 Eh

Diagonalization of the overlap matrix:
Smallest eigenvalue                        ... 4.408e-04
Time for diagonalization                   ...    0.049 sec
Threshold for overlap eigenvalues          ... 1.000e-07
Number of eigenvalues below threshold      ... 0
Time for construction of square roots      ...    0.026 sec
Total time needed                          ...    0.078 sec

-------------------
DFT GRID GENERATION
-------------------

General Integration Accuracy     IntAcc      ... 4.388
Radial Grid Type                 RadialGrid  ... OptM3 with GC (2021)
Angular Grid (max. ang.)         AngularGrid ... 4 (Lebedev-302)
Angular grid pruning method      GridPruning ... 4 (adaptive)
Weight generation scheme         WeightScheme... mBecke (2022)
Basis function cutoff            BFCut       ... 1.0000e-11
Integration weight cutoff        WCut        ... 1.0000e-14
Partially contracted basis set               ... off
Rotationally invariant grid construction     ... off
Angular grids for H and He will be reduced by one unit

Total number of grid points                  ...   309971
Total number of batches                      ...     4879
Average number of points per batch           ...       63
Average number of grid points per atom       ...     4246

--------------------
COSX GRID GENERATION
--------------------

GRIDX 1
-------
General Integration Accuracy     IntAcc      ... 3.816
Radial Grid Type                 RadialGrid  ... OptM3 with GC (2021)
Angular Grid (max. ang.)         AngularGrid ... 1 (Lebedev-50)
Angular grid pruning method      GridPruning ... 4 (adaptive)
Weight generation scheme         WeightScheme... mBecke (2022)
Basis function cutoff            BFCut       ... 1.0000e-11
Integration weight cutoff        WCut        ... 1.0000e-14
Partially contracted basis set               ... on
Rotationally invariant grid construction     ... off
Angular grids for H and He will be reduced by one unit

Total number of grid points                  ...    39466
Total number of batches                      ...      356
Average number of points per batch           ...      110
Average number of grid points per atom       ...      541
UseSFitting                                  ... on

GRIDX 2
-------
General Integration Accuracy     IntAcc      ... 4.020
Radial Grid Type                 RadialGrid  ... OptM3 with GC (2021)
Angular Grid (max. ang.)         AngularGrid ... 2 (Lebedev-110)
Angular grid pruning method      GridPruning ... 4 (adaptive)
Weight generation scheme         WeightScheme... mBecke (2022)
Basis function cutoff            BFCut       ... 1.0000e-11
Integration weight cutoff        WCut        ... 1.0000e-14
Partially contracted basis set               ... on
Rotationally invariant grid construction     ... off
Angular grids for H and He will be reduced by one unit

Total number of grid points                  ...    81552
Total number of batches                      ...      679
Average number of points per batch           ...      120
Average number of grid points per atom       ...     1117
UseSFitting                                  ... on

GRIDX 3
-------
General Integration Accuracy     IntAcc      ... 4.338
Radial Grid Type                 RadialGrid  ... OptM3 with GC (2021)
Angular Grid (max. ang.)         AngularGrid ... 3 (Lebedev-194)
Angular grid pruning method      GridPruning ... 4 (adaptive)
Weight generation scheme         WeightScheme... mBecke (2022)
Basis function cutoff            BFCut       ... 1.0000e-11
Integration weight cutoff        WCut        ... 1.0000e-14
Partially contracted basis set               ... on
Rotationally invariant grid construction     ... off
Angular grids for H and He will be reduced by one unit

Total number of grid points                  ...   176451
Total number of batches                      ...     1420
Average number of points per batch           ...      124
Average number of grid points per atom       ...     2417
UseSFitting                                  ... on
Initializing property integral containers    ... done (  0.0 sec)

SHARK setup successfully completed in   4.5 seconds

Maximum memory used throughout the entire STARTUP-calculation: 94.8 MB


           ************************************************************
           *        Program running with 4 parallel MPI-processes     *
           *              working on a common directory               *
           ************************************************************
-------------------------------------------------------------------------------
                                 ORCA GUESS
                   Start orbitals & Density for SCF / CASSCF
-------------------------------------------------------------------------------

------------
SCF SETTINGS
------------
Hamiltonian:
 Density Functional     Method          .... DFT(GTOs)
 Exchange Functional    Exchange        .... WB97X-V
 Correlation Functional Correlation     .... WB97X-V
 Gradients option       PostSCFGGA      .... off
 Hybrid DFT is turned on
   Fraction HF Exchange ScalHFX         ....  0.167000
   Scaling of DF-GGA-X  ScalDFX         ....  0.000000
   Scaling of DF-GGA-C  ScalDFC         ....  1.000000
   Scaling of DF-LDA-C  ScalLDAC        ....  1.000000
   Perturbative correction              ....  0.000000
 Long-range corrected/Screened/Range-Separated Hybrid DFT is turned on
   Amount of maximum screened exact exchange              ....  0.833000
   Range separation parameter mu (erf(mu*r12)/r12)        ....  0.300000
 RI-approximation to the Coulomb term is turned on
   Number of AuxJ basis functions       .... 1905
   RIJ-COSX (HFX calculated with COS-X)).... on


General Settings:
 Integral files         IntName         .... inpS
 Hartree-Fock type      HFTyp           .... RHF
 Total Charge           Charge          ....    0
 Multiplicity           Mult            ....    1
 Number of Electrons    NEL             ....  220
 Basis Dimension        Dim             ....  626
 Nuclear Repulsion      ENuc            ....   2745.3187257565 Eh

Convergence Acceleration:
 AO-DIIS                CNVDIIS         .... on
   Start iteration      DIISMaxIt       ....    12
   Startup error        DIISStart       ....  0.200000
   # of expansion vecs  DIISMaxEq       ....     5
   Bias factor          DIISBfac        ....   1.050
   Max. coefficient     DIISMaxC        ....  10.000
 MO-DIIS                CNVKDIIS        .... off
 Trust-Rad. Augm. Hess. CNVTRAH         .... auto
   Auto Start mean grad. ratio tolernc. ....  1.125000
   Auto Start start iteration           ....     1
   Auto Start num. interpolation iter.  ....    10
   Max. Number of Micro iterations      ....    24
   Max. Number of Macro iterations      .... Maxiter - #DIIS iter
   Number of Davidson start vectors     ....     2
   Converg. threshold    (grad. norm)   ....   1.000e-04
   Grad. Scal. Fac. for Micro threshold ....   0.100
   Minimum threshold for Micro iter.    ....   1.000e-02
   NR start threshold (gradient norm)   ....   1.000e-04
   Initial trust radius                 ....   0.400
   Minimum AH scaling param. (alpha)    ....   1.000
   Maximum AH scaling param. (alpha)    .... 1000.000
   Quad. conv. algorithm                .... NR
   White noise on init. David. guess    .... on
   Maximum white noise                  ....   0.010
   Pseudo random numbers                .... off
   Inactive MOs                         .... canonical
   Orbital update algorithm             .... Taylor
   Preconditioner                       .... Diag
   Full preconditioner red. dimension   ....   250
 SOSCF                  CNVSOSCF        .... off
 Level Shifting         CNVShift        .... on
   Level shift para.    LevelShift      ....    0.2500
   Turn off err/grad.   ShiftErr        ....    0.0010
 Zerner damping         CNVZerner       .... off
 Static damping         CNVDamp         .... on
   Fraction old density DampFac         ....    0.7000
   Max. Damping (<1)    DampMax         ....    0.9800
   Min. Damping (>=0)   DampMin         ....    0.0000
   Turn off err/grad.   DampErr         ....    0.1000

SCF Procedure:
 Maximum # iterations   MaxIter         ....   125
 SCF integral mode      SCFMode         .... Direct
   Integral package                     .... SHARK and LIBINT hybrid scheme
 Reset frequency        DirectResetFreq ....    20
 Integral Threshold     Thresh          ....  3.000e-11 Eh
 Primitive CutOff       TCut            ....  1.000e-12 Eh

Convergence Tolerance:
 Convergence Check Mode ConvCheckMode   .... Total+1el-Energy
 Convergence forced     ConvForced      .... 0
 Energy Change          TolE            ....  1.000e-07 Eh
 1-El. energy change                    ....  1.000e-04 Eh
 DIIS Error             TolErr          ....  1.000e-07

---------------------
INITIAL GUESS: MOREAD
---------------------
Guess MOs are being read from file: inpS.ges
Input Geometry matches current geometry (good)
Input basis set matches current basis set (good)
Occupation numbers will be reassigned to an Aufbau configuration
MOs were renormalized
MOs were reorthogonalized (Cholesky)
                      ------------------
                      INITIAL GUESS DONE (   0.2 sec)
                      ------------------
             **** ENERGY FILE WAS UPDATED (inpS.en.tmp) ****
Finished Guess after   0.4 sec
Maximum memory used throughout the entire GUESS-calculation: 51.8 MB


           ************************************************************
           *        Program running with 4 parallel MPI-processes     *
           *              working on a common directory               *
           ************************************************************

-------------------------------------------------------------------------------------------
                                      ORCA LEAN-SCF
                              memory conserving SCF solver
-------------------------------------------------------------------------------------------

--------------------
CPCM SOLVATION MODEL
--------------------
CPCM parameters:
  Epsilon                                         ...       4.8030
  Refrac                                          ...       1.4459
  Rsolv                                           ...       1.3000
  Surface type                                    ... GAUSSIAN VDW
  Discretization scheme                           ... Constant charge density
    Threshold for H atoms                         ...       5.0000 (charges/Ang^2)
    Threshold for non-H atoms                     ...       5.0000 (charges/Ang^2)
  Epsilon function type                           ...         CPCM
Solvent:                                          ... CHLOROFORM
Radii:
  Scheme                                          ... Element-dependent radii
  Radius for C  used is    3.8550 Bohr (=   2.0400 Ang.)
  Radius for H  used is    2.4944 Bohr (=   1.3200 Ang.)
  Radius for O  used is    3.4469 Bohr (=   1.8240 Ang.)
Calculating surface                               ...        done! (  0.0s)
Cavity surface points                             ...         5407
Cavity Volume                                     ...    3610.5702
Cavity Surface-area                               ...    1800.4776
Calculating surface distance matrix               ...        done! (  0.2s)
Performing Cholesky decomposition & store         ...        done! (  1.0s)
Overall time for CPCM initialization              ...                 1.3s

----------------------------------------D-I-I-S--------------------------------------------
Iteration    Energy (Eh)           Delta-E    RMSDP     MaxDP     DIISErr   Damp  Time(sec)
-------------------------------------------------------------------------------------------
               ***  Starting incremental Fock matrix formation  ***
    1    -1168.3620039631164218     0.00e+00  3.21e-08  1.80e-06  6.43e-06  0.700  23.1

  HOMO= 109 E= -7.885 eV LUMO=  8.093 eV gap=  15.978 eV
    2    -1168.3620039557504242     7.37e-09  2.81e-08  1.62e-06  3.23e-06  0.700   4.6
                 **** Energy Check signals convergence ****

  HOMO= 109 E= -7.885 eV LUMO=  8.093 eV gap=  15.978 eV

               *****************************************************
               *                     SUCCESS                       *
               *           SCF CONVERGED AFTER   2 CYCLES          *
               *****************************************************

Recomputing exchange energy using gridx3       ... done (   40.220 sec)
Old exchange energy                            :    -56.782991270 Eh
New exchange energy                            :    -56.783051500 Eh
Exchange energy change after final integration :     -0.000060230 Eh
Total energy after final integration           :  -1168.362064186 Eh
             **** ENERGY FILE WAS UPDATED (inpS.en.tmp) ****

----------------
TOTAL SCF ENERGY
----------------

Total Energy       :      -1168.36206418600887 Eh          -31792.74808 eV

Components:
Nuclear Repulsion  :       2745.31872575647549 Eh           74703.92040 eV
Electronic Energy  :      -3913.67009805816133 Eh         -106496.37754 eV
One Electron Energy:      -7035.92990166280833 Eh         -191457.38613 eV
Two Electron Energy:       3122.25980360464700 Eh           84961.00859 eV
CPCM Dielectric    :         -0.01063165406478 Eh              -0.28930 eV

Virial components:
Potential Energy   :      -2321.68292686218001 Eh          -63176.20426 eV
Kinetic Energy     :       1153.32086267617115 Eh           31383.45618 eV
Virial Ratio       :          2.01304164521479

DFT components:
N(Alpha)           :      110.000099940534 electrons
N(Beta)            :      110.000099940534 electrons
N(Total)           :      220.000199881068 electrons
E(X)               :     -111.771307770815 Eh       
E(C)               :       -8.951551042154 Eh       
E(XC)              :     -120.722858812969 Eh       

CPCM Solvation Model Properties:
Surface-charge          :         -0.04190503151837
Corrected charge        :         -0.00000000000000
Outlying charge corr.   :          0.00006078732205 Eh               0.00165 eV
Free-energy (cav+disp)  :  This term is not implemented in the current solvation scheme

---------------
SCF CONVERGENCE
---------------

  Last Energy change         ...   -7.3660e-09  Tolerance :   1.0000e-07
  Last MAX-Density change    ...    1.6221e-06  Tolerance :   1.0000e-05
  Last RMS-Density change    ...    2.8080e-08  Tolerance :   1.0000e-06
  Last DIIS Error            ...    3.2298e-06  Tolerance :   1.0000e-07


----------------
ORBITAL ENERGIES
----------------

  NO   OCC          E(Eh)            E(eV) 
   0   2.0000     -19.213693      -522.8312 
   1   2.0000     -10.329781      -281.0876 
   2   2.0000     -10.293479      -280.0998 
   3   2.0000     -10.290263      -280.0123 
   4   2.0000     -10.286145      -279.9002 
   5   2.0000     -10.286111      -279.8993 
   6   2.0000     -10.285129      -279.8726 
   7   2.0000     -10.283040      -279.8157 
   8   2.0000     -10.282152      -279.7916 
   9   2.0000     -10.282009      -279.7877 
  10   2.0000     -10.281205      -279.7658 
  11   2.0000     -10.280839      -279.7558 
  12   2.0000     -10.279454      -279.7182 
  13   2.0000     -10.278545      -279.6934 
  14   2.0000     -10.278423      -279.6901 
  15   2.0000     -10.277082      -279.6536 
  16   2.0000     -10.276770      -279.6451 
  17   2.0000     -10.276477      -279.6372 
  18   2.0000     -10.272577      -279.5310 
  19   2.0000     -10.271997      -279.5153 
  20   2.0000     -10.271681      -279.5067 
  21   2.0000     -10.271660      -279.5061 
  22   2.0000     -10.271556      -279.5033 
  23   2.0000     -10.270967      -279.4872 
  24   2.0000     -10.268428      -279.4181 
  25   2.0000     -10.268341      -279.4158 
  26   2.0000     -10.267965      -279.4055 
  27   2.0000     -10.267097      -279.3819 
  28   2.0000     -10.266524      -279.3663 
  29   2.0000      -1.131648       -30.7937 
  30   2.0000      -0.998274       -27.1644 
  31   2.0000      -0.979188       -26.6451 
  32   2.0000      -0.957266       -26.0485 
  33   2.0000      -0.942704       -25.6523 
  34   2.0000      -0.917594       -24.9690 
  35   2.0000      -0.910916       -24.7873 
  36   2.0000      -0.889626       -24.2080 
  37   2.0000      -0.887169       -24.1411 
  38   2.0000      -0.872013       -23.7287 
  39   2.0000      -0.853112       -23.2143 
  40   2.0000      -0.833423       -22.6786 
  41   2.0000      -0.822952       -22.3937 
  42   2.0000      -0.809162       -22.0184 
  43   2.0000      -0.800050       -21.7705 
  44   2.0000      -0.795310       -21.6415 
  45   2.0000      -0.787167       -21.4199 
  46   2.0000      -0.769479       -20.9386 
  47   2.0000      -0.758770       -20.6472 
  48   2.0000      -0.728614       -19.8266 
  49   2.0000      -0.713202       -19.4072 
  50   2.0000      -0.712256       -19.3815 
  51   2.0000      -0.700253       -19.0549 
  52   2.0000      -0.689854       -18.7719 
  53   2.0000      -0.663234       -18.0475 
  54   2.0000      -0.647439       -17.6177 
  55   2.0000      -0.632651       -17.2153 
  56   2.0000      -0.625855       -17.0304 
  57   2.0000      -0.620641       -16.8885 
  58   2.0000      -0.605046       -16.4641 
  59   2.0000      -0.602621       -16.3981 
  60   2.0000      -0.592507       -16.1229 
  61   2.0000      -0.584448       -15.9036 
  62   2.0000      -0.580572       -15.7982 
  63   2.0000      -0.568022       -15.4567 
  64   2.0000      -0.563850       -15.3431 
  65   2.0000      -0.561270       -15.2729 
  66   2.0000      -0.553826       -15.0704 
  67   2.0000      -0.548060       -14.9135 
  68   2.0000      -0.547063       -14.8863 
  69   2.0000      -0.544124       -14.8064 
  70   2.0000      -0.536467       -14.5980 
  71   2.0000      -0.530237       -14.4285 
  72   2.0000      -0.528099       -14.3703 
  73   2.0000      -0.520720       -14.1695 
  74   2.0000      -0.517754       -14.0888 
  75   2.0000      -0.511705       -13.9242 
  76   2.0000      -0.504151       -13.7186 
  77   2.0000      -0.501592       -13.6490 
  78   2.0000      -0.497594       -13.5402 
  79   2.0000      -0.494594       -13.4586 
  80   2.0000      -0.489946       -13.3321 
  81   2.0000      -0.487957       -13.2780 
  82   2.0000      -0.484428       -13.1819 
  83   2.0000      -0.477234       -12.9862 
  84   2.0000      -0.474159       -12.9025 
  85   2.0000      -0.466861       -12.7039 
  86   2.0000      -0.462521       -12.5858 
  87   2.0000      -0.461086       -12.5468 
  88   2.0000      -0.455064       -12.3829 
  89   2.0000      -0.452068       -12.3014 
  90   2.0000      -0.447707       -12.1827 
  91   2.0000      -0.444423       -12.0934 
  92   2.0000      -0.436010       -11.8644 
  93   2.0000      -0.431837       -11.7509 
  94   2.0000      -0.426753       -11.6125 
  95   2.0000      -0.426238       -11.5985 
  96   2.0000      -0.422839       -11.5060 
  97   2.0000      -0.421162       -11.4604 
  98   2.0000      -0.415169       -11.2973 
  99   2.0000      -0.412967       -11.2374 
 100   2.0000      -0.412211       -11.2168 
 101   2.0000      -0.408377       -11.1125 
 102   2.0000      -0.405739       -11.0407 
 103   2.0000      -0.400639       -10.9019 
 104   2.0000      -0.394574       -10.7369 
 105   2.0000      -0.382326       -10.4036 
 106   2.0000      -0.372284       -10.1304 
 107   2.0000      -0.357123        -9.7178 
 108   2.0000      -0.335333        -9.1249 
 109   2.0000      -0.289756        -7.8847 
 110   0.0000       0.047415         1.2902 
 111   0.0000       0.100487         2.7344 
 112   0.0000       0.112875         3.0715 
 113   0.0000       0.133477         3.6321 
 114   0.0000       0.142902         3.8886 
 115   0.0000       0.147072         4.0020 
 116   0.0000       0.153536         4.1779 
 117   0.0000       0.156539         4.2596 
 118   0.0000       0.158593         4.3155 
 119   0.0000       0.159544         4.3414 
 120   0.0000       0.169057         4.6003 
*Only the first 10 virtual orbitals were printed.

                    ********************************
                    * MULLIKEN POPULATION ANALYSIS *
                    ********************************

-----------------------
MULLIKEN ATOMIC CHARGES
-----------------------
   0 C :   -0.127081
   1 C :    0.144106
   2 C :    0.081654
   3 H :    0.016801
   4 H :    0.013347
   5 C :   -0.184439
   6 C :    0.111200
   7 C :    0.006571
   8 H :    0.029707
   9 H :    0.012212
  10 H :    0.023626
  11 H :    0.011368
  12 O :   -0.355171
  13 H :    0.014165
  14 C :   -0.024793
  15 C :   -0.044587
  16 H :    0.036369
  17 H :    0.029235
  18 C :   -0.060339
  19 H :   -0.006947
  20 C :   -0.116097
  21 H :    0.000751
  22 C :    0.115027
  23 C :   -0.001107
  24 H :    0.012762
  25 H :    0.017666
  26 C :    0.106020
  27 H :    0.012549
  28 H :    0.014914
  29 C :   -0.405195
  30 H :    0.008524
  31 H :   -0.002475
  32 C :   -0.044730
  33 H :    0.012021
  34 C :    0.121388
  35 H :    0.181704
  36 C :    0.046753
  37 H :    0.007453
  38 H :    0.015760
  39 C :   -0.051393
  40 H :    0.013484
  41 H :    0.010753
  42 H :   -0.010355
  43 C :   -0.004420
  44 C :    0.092597
  45 H :    0.023481
  46 H :    0.018795
  47 H :    0.019308
  48 H :    0.001953
  49 C :    0.061369
  50 C :   -0.082647
  51 C :   -0.072272
  52 H :    0.013423
  53 H :    0.004428
  54 C :   -0.049225
  55 C :    0.041497
  56 C :   -0.187414
  57 H :    0.011663
  58 H :    0.012938
  59 C :    0.039189
  60 C :    0.023749
  61 H :    0.023277
  62 H :    0.024862
  63 H :    0.018256
  64 H :    0.018836
  65 H :    0.015212
  66 H :    0.018596
  67 H :    0.017815
  68 H :    0.016392
  69 H :    0.018683
  70 H :    0.019404
  71 H :    0.028711
  72 H :    0.018366
Sum of atomic charges:    0.0000000

--------------------------------
MULLIKEN REDUCED ORBITAL CHARGES
--------------------------------
  0 C s       :     3.077804  s :     3.077804
      pz      :     1.004581  p :     3.006435
      px      :     0.998689
      py      :     1.003165
      dz2     :     0.003159  d :     0.042842
      dxz     :     0.007084
      dyz     :     0.006071
      dx2y2   :     0.014729
      dxy     :     0.011800

  1 C s       :     2.932376  s :     2.932376
      pz      :     0.981520  p :     2.889079
      px      :     0.939457
      py      :     0.968102
      dz2     :     0.006901  d :     0.034440
      dxz     :     0.009224
      dyz     :     0.004834
      dx2y2   :     0.009038
      dxy     :     0.004443

  2 C s       :     3.075223  s :     3.075223
      pz      :     1.043599  p :     2.771964
      px      :     0.755752
      py      :     0.972613
      dz2     :     0.011598  d :     0.071159
      dxz     :     0.015942
      dyz     :     0.009304
      dx2y2   :     0.019493
      dxy     :     0.014823

  3 H s       :     0.960005  s :     0.960005
      pz      :     0.010991  p :     0.023193
      px      :     0.007569
      py      :     0.004634

  4 H s       :     0.963862  s :     0.963862
      pz      :     0.004422  p :     0.022791
      px      :     0.003799
      py      :     0.014570

  5 C s       :     3.111853  s :     3.111853
      pz      :     1.002605  p :     3.027789
      px      :     0.975232
      py      :     1.049951
      dz2     :     0.011202  d :     0.044797
      dxz     :     0.006633
      dyz     :     0.011917
      dx2y2   :     0.008384
      dxy     :     0.006661

  6 C s       :     2.949138  s :     2.949138
      pz      :     0.975769  p :     2.904187
      px      :     0.965055
      py      :     0.963363
      dz2     :     0.006842  d :     0.035475
      dxz     :     0.009326
      dyz     :     0.005134
      dx2y2   :     0.009245
      dxy     :     0.004928

  7 C s       :     3.013163  s :     3.013163
      pz      :     0.990560  p :     2.945245
      px      :     0.988474
      py      :     0.966211
      dz2     :     0.005246  d :     0.035021
      dxz     :     0.008294
      dyz     :     0.006758
      dx2y2   :     0.009631
      dxy     :     0.005092

  8 H s       :     0.947004  s :     0.947004
      pz      :     0.011600  p :     0.023289
      px      :     0.007100
      py      :     0.004590

  9 H s       :     0.964968  s :     0.964968
      pz      :     0.004644  p :     0.022820
      px      :     0.003729
      py      :     0.014447

 10 H s       :     0.953683  s :     0.953683
      pz      :     0.010950  p :     0.022691
      px      :     0.005196
      py      :     0.006546

 11 H s       :     0.965942  s :     0.965942
      pz      :     0.011141  p :     0.022690
      px      :     0.007115
      py      :     0.004434

 12 O s       :     3.726301  s :     3.726301
      pz      :     1.526436  p :     4.616664
      px      :     1.251241
      py      :     1.838987
      dz2     :     0.002696  d :     0.012205
      dxz     :     0.004136
      dyz     :     0.001534
      dx2y2   :     0.001850
      dxy     :     0.001990

 13 H s       :     0.965614  s :     0.965614
      pz      :     0.011324  p :     0.020221
      px      :     0.004863
      py      :     0.004034

 14 C s       :     3.197264  s :     3.197264
      pz      :     0.989476  p :     2.791296
      px      :     0.887262
      py      :     0.914558
      dz2     :     0.002658  d :     0.036233
      dxz     :     0.007646
      dyz     :     0.003326
      dx2y2   :     0.012192
      dxy     :     0.010411

 15 C s       :     3.122737  s :     3.122737
      pz      :     0.979414  p :     2.895601
      px      :     1.000770
      py      :     0.915416
      dz2     :     0.007127  d :     0.026249
      dxz     :     0.004261
      dyz     :     0.007087
      dx2y2   :     0.004827
      dxy     :     0.002947

 16 H s       :     0.939084  s :     0.939084
      pz      :     0.010510  p :     0.024547
      px      :     0.006202
      py      :     0.007834

 17 H s       :     0.946139  s :     0.946139
      pz      :     0.004097  p :     0.024626
      px      :     0.004663
      py      :     0.015866

 18 C s       :     3.200929  s :     3.200929
      pz      :     1.029228  p :     2.824102
      px      :     0.877169
      py      :     0.917705
      dz2     :     0.002755  d :     0.035307
      dxz     :     0.007010
      dyz     :     0.003139
      dx2y2   :     0.012443
      dxy     :     0.009961

 19 H s       :     0.982624  s :     0.982624
      pz      :     0.004728  p :     0.024323
      px      :     0.004378
      py      :     0.015217

 20 C s       :     3.099774  s :     3.099774
      pz      :     0.955790  p :     2.972318
      px      :     0.991928
      py      :     1.024600
      dz2     :     0.003379  d :     0.044005
      dxz     :     0.007199
      dyz     :     0.006952
      dx2y2   :     0.014752
      dxy     :     0.011724

 21 H s       :     0.974721  s :     0.974721
      pz      :     0.004636  p :     0.024528
      px      :     0.004281
      py      :     0.015610

 22 C s       :     2.924214  s :     2.924214
      pz      :     1.000967  p :     2.925184
      px      :     0.975799
      py      :     0.948418
      dz2     :     0.009279  d :     0.035575
      dxz     :     0.004330
      dyz     :     0.006218
      dx2y2   :     0.009894
      dxy     :     0.005853

 23 C s       :     3.001443  s :     3.001443
      pz      :     1.009727  p :     2.963211
      px      :     0.968282
      py      :     0.985203
      dz2     :     0.009590  d :     0.036453
      dxz     :     0.007971
      dyz     :     0.003170
      dx2y2   :     0.010271
      dxy     :     0.005450

 24 H s       :     0.963994  s :     0.963994
      pz      :     0.004702  p :     0.023245
      px      :     0.013922
      py      :     0.004621

 25 H s       :     0.959023  s :     0.959023
      pz      :     0.013264  p :     0.023311
      px      :     0.004998
      py      :     0.005049

 26 C s       :     2.970729  s :     2.970729
      pz      :     0.967795  p :     2.887924
      px      :     0.974537
      py      :     0.945591
      dz2     :     0.006612  d :     0.035328
      dxz     :     0.006819
      dyz     :     0.005913
      dx2y2   :     0.008773
      dxy     :     0.007211

 27 H s       :     0.964575  s :     0.964575
      pz      :     0.013304  p :     0.022876
      px      :     0.004651
      py      :     0.004921

 28 H s       :     0.962442  s :     0.962442
      pz      :     0.004526  p :     0.022644
      px      :     0.003819
      py      :     0.014299

 29 C s       :     3.253878  s :     3.253878
      pz      :     1.041487  p :     3.100372
      px      :     1.000798
      py      :     1.058087
      dz2     :     0.011561  d :     0.050945
      dxz     :     0.010361
      dyz     :     0.009543
      dx2y2   :     0.011018
      dxy     :     0.008462

 30 H s       :     0.968401  s :     0.968401
      pz      :     0.009580  p :     0.023075
      px      :     0.007345
      py      :     0.006150

 31 H s       :     0.979931  s :     0.979931
      pz      :     0.012774  p :     0.022544
      px      :     0.005105
      py      :     0.004666

 32 C s       :     3.032173  s :     3.032173
      pz      :     0.985131  p :     2.968728
      px      :     0.951658
      py      :     1.031939
      dz2     :     0.008266  d :     0.043830
      dxz     :     0.007604
      dyz     :     0.008128
      dx2y2   :     0.011096
      dxy     :     0.008737

 33 H s       :     0.966690  s :     0.966690
      pz      :     0.011924  p :     0.021289
      px      :     0.004389
      py      :     0.004976

 34 C s       :     2.895309  s :     2.895309
      pz      :     0.987669  p :     2.948466
      px      :     0.976789
      py      :     0.984008
      dz2     :     0.005558  d :     0.034836
      dxz     :     0.005844
      dyz     :     0.008151
      dx2y2   :     0.008829
      dxy     :     0.006453

 35 H s       :     0.750174  s :     0.750174
[...]
 Total          141.729          174.413          191.276  iso=     169.139

 Orientation: 
  X           0.3008576   -0.5798178    0.7571631
  Y          -0.1574915   -0.8132537   -0.5601917
  Z           0.9405749    0.0492912   -0.3359899

 --------------
 Nucleus  39C :
 --------------

Diamagnetic contribution to the shielding tensor (ppm) : 
           263.880          4.580        -7.284
             5.147        259.070         2.870
            -5.914          2.090       266.005

Paramagnetic contribution to the shielding tensor (ppm): 
           -98.137         -1.803         7.058
             1.831       -129.207         1.325
            10.169         -1.290      -139.733

Total shielding tensor (ppm): 
           165.743          2.777        -0.226
             6.978        129.862         4.195
             4.255          0.800       126.273


 Diagonalized sT*s matrix:
 
 sDSO           262.144          262.413          264.399  iso=     262.985
 sPSO          -137.157         -132.048          -97.873  iso=    -122.359
        ---------------  ---------------  ---------------
 Total          124.987          130.365          166.526  iso=     140.626

 Orientation: 
  X           0.0152090   -0.1370277   -0.9904504
  Y          -0.4725993    0.8719484   -0.1278902
  Z           0.8811462    0.4700312   -0.0514978

 --------------
 Nucleus  43C :
 --------------

Diamagnetic contribution to the shielding tensor (ppm) : 
           257.305         -0.933        -5.659
            -1.192        246.591         7.870
            -6.779          1.085       254.118

Paramagnetic contribution to the shielding tensor (ppm): 
           -93.631         -1.731        -2.834
             3.971        -89.805        -6.079
            -1.068          3.149       -91.347

Total shielding tensor (ppm): 
           163.674         -2.665        -8.493
             2.780        156.786         1.791
            -7.847          4.234       162.771


 Diagonalized sT*s matrix:
 
 sDSO           245.691          249.569          262.754  iso=     252.671
 sPSO           -92.245          -91.470          -91.069  iso=     -91.594
        ---------------  ---------------  ---------------
 Total          153.446          158.100          171.686  iso=     161.077

 Orientation: 
  X          -0.5063881    0.4962675   -0.7051877
  Y           0.5811801    0.8005624    0.1460468
  Z          -0.6370250    0.3358847    0.6938160

 --------------
 Nucleus  44C :
 --------------

Diamagnetic contribution to the shielding tensor (ppm) : 
           250.686          0.879         2.149
            -0.340        255.499        -4.485
             0.328         -1.108       273.466

Paramagnetic contribution to the shielding tensor (ppm): 
           -71.434         -5.241        -2.406
            -2.319        -75.030         1.070
            -0.268         -2.402       -80.290

Total shielding tensor (ppm): 
           179.252         -4.362        -0.257
            -2.659        180.468        -3.415
             0.060         -3.510       193.177


 Diagonalized sT*s matrix:
 
 sDSO           253.295          252.645          273.712  iso=     259.884
 sPSO           -77.323          -69.821          -79.610  iso=     -75.585
        ---------------  ---------------  ---------------
 Total          175.972          182.824          194.101  iso=     184.299

 Orientation: 
  X           0.7270591   -0.6843937    0.0546842
  Y           0.6722413    0.6934289   -0.2593223
  Z           0.1395590    0.2253036    0.9642415

 --------------
 Nucleus  49C :
 --------------

Diamagnetic contribution to the shielding tensor (ppm) : 
           243.592         -5.006        -2.066
           -13.821        254.976         8.272
            -8.927          4.974       253.493

Paramagnetic contribution to the shielding tensor (ppm): 
           -64.114          3.318        -3.915
            11.425        -72.462        -3.346
             1.479         -0.856       -76.951

Total shielding tensor (ppm): 
           179.479         -1.689        -5.981
            -2.395        182.514         4.925
            -7.449          4.117       176.542


 Diagonalized sT*s matrix:
 
 sDSO           245.503          241.173          265.384  iso=     250.687
 sPSO           -74.846          -61.686          -76.994  iso=     -71.175
        ---------------  ---------------  ---------------
 Total          170.657          179.487          188.391  iso=     179.512

 Orientation: 
  X           0.5598412   -0.6108533    0.5598537
  Y          -0.2091773   -0.7579682   -0.6178423
  Z           0.8017623    0.2287849   -0.5521184

 --------------
 Nucleus  50C :
 --------------

Diamagnetic contribution to the shielding tensor (ppm) : 
           274.495         -2.576        10.866
             5.596        266.716        -5.670
            12.735         -1.878       255.307

Paramagnetic contribution to the shielding tensor (ppm): 
          -190.110        -15.704       -60.607
           -16.340       -299.374       -37.416
           -56.819        -40.409      -117.707

Total shielding tensor (ppm): 
            84.385        -18.281       -49.741
           -10.744        -32.658       -43.087
           -44.084        -42.287       137.600


 Diagonalized sT*s matrix:
 
 sDSO           268.046          277.394          251.078  iso=     265.506
 sPSO          -312.402         -213.086          -81.703  iso=    -202.397
        ---------------  ---------------  ---------------
 Total          -44.357           64.308          169.375  iso=      63.109

 Orientation: 
  X          -0.3533780    0.8215275   -0.4474557
  Y          -0.8821282   -0.4518570   -0.1329479
  Z          -0.3114064    0.3477324    0.8843688

 --------------
 Nucleus  51C :
 --------------

Diamagnetic contribution to the shielding tensor (ppm) : 
           269.781         -3.275        14.380
           -13.637        270.735        14.361
            15.154          2.866       247.135

Paramagnetic contribution to the shielding tensor (ppm): 
          -190.201        -15.174       -63.110
             0.489       -291.446       -54.551
           -50.826        -46.310      -114.506

Total shielding tensor (ppm): 
            79.579        -18.449       -48.730
           -13.148        -20.711       -40.190
           -35.672        -43.444       132.628


 Diagonalized sT*s matrix:
 
 sDSO           271.111          279.451          237.088  iso=     262.550
 sPSO          -306.691         -213.149          -76.314  iso=    -198.718
        ---------------  ---------------  ---------------
 Total          -35.580           66.302          160.774  iso=      63.832

 Orientation: 
  X          -0.3478036    0.8460926   -0.4039306
  Y          -0.8830703   -0.4403697   -0.1620538
  Z          -0.3149913    0.3003362    0.9003214

 --------------
 Nucleus  54C :
 --------------

Diamagnetic contribution to the shielding tensor (ppm) : 
           255.647         -1.808        -1.568
             1.544        259.038         2.348
            -4.107         11.382       244.402

Paramagnetic contribution to the shielding tensor (ppm): 
           -88.308         12.706        -2.902
             1.316       -113.528        -1.864
            -1.687         -9.707       -80.961

Total shielding tensor (ppm): 
           167.339         10.899        -4.470
             2.860        145.511         0.485
            -5.794          1.675       163.441


 Diagonalized sT*s matrix:
 
 sDSO           256.653          248.401          254.034  iso=     253.029
 sPSO          -113.438          -87.243          -82.117  iso=     -94.266
        ---------------  ---------------  ---------------
 Total          143.215          161.158          171.917  iso=     158.763

 Orientation: 
  X          -0.3085604   -0.4297617   -0.8485843
  Y           0.9424128   -0.2591357   -0.2114399
  Z          -0.1290297   -0.8649587    0.4849720

 --------------
 Nucleus  55C :
 --------------

Diamagnetic contribution to the shielding tensor (ppm) : 
           244.812         -0.885        -0.165
            19.131        262.595         1.640
            11.792          4.914       245.587

Paramagnetic contribution to the shielding tensor (ppm): 
           -60.217          2.607        -1.244
           -17.954        -71.418        -0.114
           -12.541         -2.719       -60.195

Total shielding tensor (ppm): 
           184.594          1.722        -1.409
             1.176        191.176         1.527
            -0.749          2.195       185.391


 Diagonalized sT*s matrix:
 
 sDSO           246.832          240.364          265.796  iso=     250.998
 sPSO           -63.639          -54.287          -73.905  iso=     -63.944
        ---------------  ---------------  ---------------
 Total          183.193          186.077          191.892  iso=     187.054

 Orientation: 
  X           0.7501032   -0.6434337   -0.1527685
  Y          -0.2752040   -0.0936545   -0.9568133
  Z           0.6013384    0.7597512   -0.2473261

 --------------
 Nucleus  56C :
 --------------

Diamagnetic contribution to the shielding tensor (ppm) : 
           253.184         -0.415        -2.033
             0.147        230.920        -3.118
             1.498          0.341       243.722

Paramagnetic contribution to the shielding tensor (ppm): 
           -78.217         -6.177         2.744
            -1.302        -67.821         8.431
            -7.760          5.219       -83.086

Total shielding tensor (ppm): 
           174.967         -6.592         0.711
            -1.155        163.099         5.314
            -6.262          5.560       160.636


 Diagonalized sT*s matrix:
 
 sDSO           240.032          238.034          249.760  iso=     242.609
 sPSO           -83.739          -72.895          -72.489  iso=     -76.375
        ---------------  ---------------  ---------------
 Total          156.293          165.139          177.271  iso=     166.234

 Orientation: 
  X          -0.0283274    0.4335367   -0.9006906
  Y          -0.6287896    0.6927237    0.3532103
  Z           0.7770593    0.5763504    0.2529803

 --------------
 Nucleus  59C :
 --------------

Diamagnetic contribution to the shielding tensor (ppm) : 
           251.384          1.612         6.974
             4.504        220.201         4.112
            19.196          2.931       216.812

Paramagnetic contribution to the shielding tensor (ppm): 
           -65.929         -0.637         8.887
             2.056        -60.826        -5.487
            -7.304         -5.818       -34.596

Total shielding tensor (ppm): 
           185.455          0.975        15.861
             6.559        159.374        -1.375
            11.892         -2.887       182.217


 Diagonalized sT*s matrix:
 
 sDSO           220.508          218.526          249.362  iso=     229.466
 sPSO           -62.587          -47.257          -51.507  iso=     -53.784
        ---------------  ---------------  ---------------
 Total          157.922          171.269          197.855  iso=     175.682

 Orientation: 
  X          -0.2343541   -0.6221585    0.7469919
  Y           0.9465735   -0.3211360    0.0294995
  Z           0.2215326    0.7139961    0.6641783

 --------------
 Nucleus  60C :
 --------------

Diamagnetic contribution to the shielding tensor (ppm) : 
           246.258          0.108        -2.413
             9.060        235.843        -7.951
           -27.359        -10.379       244.591

Paramagnetic contribution to the shielding tensor (ppm): 
           -69.067          0.992         3.917
            -8.913        -60.689        -0.078
            33.374          5.118       -50.723

Total shielding tensor (ppm): 
           177.191          1.101         1.504
             0.147        175.153        -8.029
             6.015         -5.260       193.868


 Diagonalized sT*s matrix:
 
 sDSO           233.650          249.705          243.337  iso=     242.231
 sPSO           -61.307          -72.419          -46.753  iso=     -60.160
        ---------------  ---------------  ---------------
 Total          172.343          177.286          196.584  iso=     182.071

 Orientation: 
  X          -0.3690191    0.9119490    0.1793712
  Y           0.8683725    0.4070901   -0.2832083
  Z           0.3312917   -0.0512517    0.9421354



--------------------------------
CHEMICAL SHIELDING SUMMARY (ppm)
--------------------------------


  Nucleus  Element    Isotropic     Anisotropy
  -------  -------  ------------   ------------
      0       C           59.672        148.143 
      1       C          151.158         30.130 
      2       C          128.868         55.154 
      5       C           51.517        179.222 
      6       C          164.989         22.925 
      7       C          161.631         22.572 
     14       C           74.678        128.329 
     15       C           83.046        121.135 
     18       C           79.563        134.299 
     20       C           52.404        174.904 
     22       C          169.225          8.634 
     23       C          174.505         12.669 
     26       C          158.661         23.774 
     29       C          153.978         17.773 
     32       C          143.367         28.195 
     34       C          174.775         23.335 
     36       C          169.139         33.206 
     39       C          140.626         38.850 
     43       C          161.077         15.913 
     44       C          184.299         14.703 
     49       C          179.512         13.319 
     50       C           63.109        159.399 
     51       C           63.832        145.413 
     54       C          158.763         19.730 
     55       C          187.054          7.256 
     56       C          166.234         16.555 
     59       C          175.682         33.260 
     60       C          182.071         21.770 


NMR shielding tensor and spin rotation calculation done in   1.0 sec 

Maximum memory used throughout the entire PROP-calculation: 51.2 MB

--------------------------------
SUGGESTED CITATIONS FOR THIS RUN
--------------------------------

Below you find a list of papers that are relevant to this ORCA run
We neither can nor want to force you to cite these papers, but we appreciate if you do
You receive ORCA, which is the product of decades of hard work by many enthusiastic individuals, for free
The only thing we kindly ask in return is that you cite our papers,
We deeply appreciate it, if you show your appreciation for ORCA by not just citing the generic ORCA reference.

Please note that relegating all ORCA citations to the supporting information does *not* help us.
SI sections are not indexed - citations you put there will not count into any citation statistics
But we need these citations in order to attract the funding resources that allow us to do what we are doing

Therefore, if you are a happy ORCA user, please consider citing a few of the papers listed below in the main body of your paper

In addition to the list printed below, the program has created the file inpS.bibtex that contains the list in bibtex format
You can import this file easily into all common literature databanks and citation aid programs


List of essential papers. We consider these as the minimum necessary citations

  1. Neese,F.
     Software update: the ORCA program system, version 5.0
     WIRES Comput. Molec. Sci., 2022 12(1)e1606
     doi.org/10.1002/wcms.1606

List of papers to cite with high priority. The work reported in these papers was absolutely
necessary for this run to complete.
Our perspective: the developers of density functionals and basis sets usually get cited in chemistry papers
Good! But without the algorithms to do something with them, the functionals or basis sets would not do anything.
Hence, in our opinion, the algorithm design and method developments papers are equally worthy of getting cited

  1. Neese,F.
     An improvement of the resolution of the identity approximation for the formation of the Coulomb matrix
     J. Comp. Chem., 2003 24(14)1740-1747
     doi.org/10.1002/jcc.10318
  2. Neese,F.; Wennmohs,F.; Hansen,A.; Becker,U.
     Efficient, approximate and parallel Hartree-Fock and hybrid DFT calculations. A 'chain-of-spheres' algorithm for the Hartree-Fock exchange
     Chem. Phys., 2009 356(1-3)98-109
     doi.org/10.1016/j.chemphys.2008.10.036
  3. Stoychev,G.L.; Auer,A.A.; Izsak,R.; Neese,F.
     Self-Consistent Field Calculation of Nuclear Magnetic Resonance Chemical Shielding Constants Using Gauge-Including Atomic Orbitals and Approximate Two-Electron Integrals
     J. Chem. Theory Comput., 2018 14(2)619-637
     doi.org/10.1021/acs.jctc.7b01006
  4. Garcia-Rates,M.; Neese,F.
     Effect of the Solute Cavity on the Solvation Energy and its Derivatives within the Framework of the Gaussian Charge Scheme
     J. Comput. Chem., 2020 41 922-939
     doi.org/10.1002/jcc.26139
  5. Helmich-Paris,B.; de Souza,B.; Neese,F.; Izsák,R.
     An improved chain of spheres for exchange algorithm
     J. Chem. Phys., 2021 155 104109
     doi.org/doi: 10.1063/5.0058766.
  6. Neese,F.
     The SHARK Integral Generation and Digestion System
     J. Comp. Chem., 2022  1-16
     doi.org/10.1002/jcc.26942
  7. Caldeweyher,E.; Bannwarth,C.; Grimme,S.
     Extension of the D3 dispersion coefficient model
     J. Chem. Phys., 2017 147 034112-XXXX
     doi.org/10.1063/1.4993215
  8. Caldeweyher,E.; Ehlert,S.; Hansen,A.; Neugebauer,H.; Spicher,S.; Bannwarth,C.; Grimme,S.
     A generally applicable atomic-charge dependent London dispersion correction
     J. Chem. Phys., 2019 150 154122-XXXX
     doi.org/10.1063/1.5090222
  9. Caldeweyher,E.; Mewes,J.; Ehlert,S.; Grimme,S.
     Extension and evaluation of the D4 London-dispersion model for periodic systems
     Phys. Chem. Chem. Phys., 2020 22(16)8499-8512
     doi.org/10.1039/D0CP00502A

List of suggested additional citations. These are papers that are important in the 'surrounding' of 
of this run, or papers that preceded the highly important papers. If you like your results we are grateful for a citation.

  1. Izsak,R.; Neese,F.
     An overlap fitted chain of spheres exchange method
     J. Chem. Phys., 2011 135 144105
     doi.org/10.1063/1.3646921
  2. Izsak,R.; Hansen,A.; Neese,F.
     The resolution of identity and chain of spheres approximations for the LPNO-CCSD singles Fock term
     Molec. Phys., 2012 110 2413-2417
     doi.org/10.1080/00268976.2012.687466
  3. Neese,F.
     The ORCA program system
     WIRES Comput. Molec. Sci., 2012 2(1)73-78
     doi.org/10.1002/wcms.81
  4. Izsak,R.; Neese,F.; Klopper,W.
     Robust fitting techniques in the chain of spheres approximation to the Fock exchange: The role of the complementary space
     J. Chem. Phys., 2013 139 
     doi.org/10.1063/1.4819264
  5. Neese,F.
     Software update: the ORCA program system, version 4.0
     WIRES Comput. Molec. Sci., 2018 8(1)1-6
     doi.org/10.1002/wcms.1327
  6. Neese,F.; Wennmohs,F.; Becker,U.; Riplinger,C.
     The ORCA quantum chemistry program package
     J. Chem. Phys., 2020 152 Art. No. L224108
     doi.org/10.1063/5.0004608

Timings for individual modules:

Sum of individual times          ...      175.610 sec (=   2.927 min)
Startup calculation              ...        4.716 sec (=   0.079 min)   2.7 %
SCF iterations                   ...       70.708 sec (=   1.178 min)  40.3 %
Property integrals               ...       61.233 sec (=   1.021 min)  34.9 %
SCF Response                     ...       37.664 sec (=   0.628 min)  21.4 %
Property calculations            ...        1.289 sec (=   0.021 min)   0.7 %
                             ****ORCA TERMINATED NORMALLY****
TOTAL RUN TIME: 0 days 0 hours 2 minutes 55 seconds 883 msec
