
                                 *****************
                                 * O   R   C   A *
                                 *****************

                                            #,                                       
                                            ###                                      
                                            ####                                     
                                            #####                                    
                                            ######                                   
                                           ########,                                 
                                     ,,################,,,,,                         
                               ,,#################################,,                 
                          ,,##########################################,,             
                       ,#########################################, ''#####,          
                    ,#############################################,,   '####,        
                  ,##################################################,,,,####,       
                ,###########''''           ''''###############################       
              ,#####''   ,,,,##########,,,,          '''####'''          '####       
            ,##' ,,,,###########################,,,                        '##       
           ' ,,###''''                  '''############,,,                           
         ,,##''                                '''############,,,,        ,,,,,,###''
      ,#''                                            '''#######################'''  
     '                                                          ''''####''''         
             ,#######,   #######,   ,#######,      ##                                
            ,#'     '#,  ##    ##  ,#'     '#,    #''#        ######   ,####,        
            ##       ##  ##   ,#'  ##            #'  '#       #        #'  '#        
            ##       ##  #######   ##           ,######,      #####,   #    #        
            '#,     ,#'  ##    ##  '#,     ,#' ,#      #,         ##   #,  ,#        
             '#######'   ##     ##  '#######'  #'      '#     #####' # '####'        



                  #######################################################
                  #                        -***-                        #
                  #          Department of theory and spectroscopy      #
                  #    Directorship and core code : Frank Neese         #
                  #        Max Planck Institute fuer Kohlenforschung    #
                  #                Kaiser Wilhelm Platz 1               #
                  #                 D-45470 Muelheim/Ruhr               #
                  #                      Germany                        #
                  #                                                     #
                  #                  All rights reserved                #
                  #                        -***-                        #
                  #######################################################


                         Program Version 5.0.2 -  RELEASE  -


 With contributions from (in alphabetic order):
   Daniel Aravena         : Magnetic Suceptibility
   Michael Atanasov       : Ab Initio Ligand Field Theory (pilot matlab implementation)
   Alexander A. Auer      : GIAO ZORA, VPT2 properties, NMR spectrum
   Ute Becker             : Parallelization
   Giovanni Bistoni       : ED, misc. LED, open-shell LED, HFLD
   Martin Brehm           : Molecular dynamics
   Dmytro Bykov           : SCF Hessian
   Vijay G. Chilkuri      : MRCI spin determinant printing, contributions to CSF-ICE
   Dipayan Datta          : RHF DLPNO-CCSD density
   Achintya Kumar Dutta   : EOM-CC, STEOM-CC
   Dmitry Ganyushin       : Spin-Orbit,Spin-Spin,Magnetic field MRCI
   Miquel Garcia          : C-PCM and meta-GGA Hessian, CC/C-PCM, Gaussian charge scheme
   Yang Guo               : DLPNO-NEVPT2, F12-NEVPT2, CIM, IAO-localization
   Andreas Hansen         : Spin unrestricted coupled pair/coupled cluster methods
   Benjamin Helmich-Paris : MC-RPA, TRAH-SCF, COSX integrals
   Lee Huntington         : MR-EOM, pCC
   Robert Izsak           : Overlap fitted RIJCOSX, COSX-SCS-MP3, EOM
   Marcus Kettner         : VPT2
   Christian Kollmar      : KDIIS, OOCD, Brueckner-CCSD(T), CCSD density, CASPT2, CASPT2-K
   Simone Kossmann        : Meta GGA functionals, TD-DFT gradient, OOMP2, MP2 Hessian
   Martin Krupicka        : Initial AUTO-CI
   Lucas Lang             : DCDCAS
   Marvin Lechner         : AUTO-CI (C++ implementation), FIC-MRCC
   Dagmar Lenk            : GEPOL surface, SMD
   Dimitrios Liakos       : Extrapolation schemes; Compound Job, initial MDCI parallelization
   Dimitrios Manganas     : Further ROCIS development; embedding schemes
   Dimitrios Pantazis     : SARC Basis sets
   Anastasios Papadopoulos: AUTO-CI, single reference methods and gradients
   Taras Petrenko         : DFT Hessian,TD-DFT gradient, ASA, ECA, R-Raman, ABS, FL, XAS/XES, NRVS
   Peter Pinski           : DLPNO-MP2, DLPNO-MP2 Gradient
   Christoph Reimann      : Effective Core Potentials
   Marius Retegan         : Local ZFS, SOC
   Christoph Riplinger    : Optimizer, TS searches, QM/MM, DLPNO-CCSD(T), (RO)-DLPNO pert. Triples
   Tobias Risthaus        : Range-separated hybrids, TD-DFT gradient, RPA, STAB
   Michael Roemelt        : Original ROCIS implementation
   Masaaki Saitow         : Open-shell DLPNO-CCSD energy and density
   Barbara Sandhoefer     : DKH picture change effects
   Avijit Sen             : IP-ROCIS
   Kantharuban Sivalingam : CASSCF convergence, NEVPT2, FIC-MRCI
   Bernardo de Souza      : ESD, SOC TD-DFT
   Georgi Stoychev        : AutoAux, RI-MP2 NMR, DLPNO-MP2 response
   Willem Van den Heuvel  : Paramagnetic NMR
   Boris Wezisla          : Elementary symmetry handling
   Frank Wennmohs         : Technical directorship


 We gratefully acknowledge several colleagues who have allowed us to
 interface, adapt or use parts of their codes:
   Stefan Grimme, W. Hujo, H. Kruse, P. Pracht,  : VdW corrections, initial TS optimization,
                  C. Bannwarth, S. Ehlert          DFT functionals, gCP, sTDA/sTD-DF
   Ed Valeev, F. Pavosevic, A. Kumar             : LibInt (2-el integral package), F12 methods
   Garnet Chan, S. Sharma, J. Yang, R. Olivares  : DMRG
   Ulf Ekstrom                                   : XCFun DFT Library
   Mihaly Kallay                                 : mrcc  (arbitrary order and MRCC methods)
   Jiri Pittner, Ondrej Demel                    : Mk-CCSD
   Frank Weinhold                                : gennbo (NPA and NBO analysis)
   Christopher J. Cramer and Donald G. Truhlar   : smd solvation model
   Lars Goerigk                                  : TD-DFT with DH, B97 family of functionals
   V. Asgeirsson, H. Jonsson                     : NEB implementation
   FAccTs GmbH                                   : IRC, NEB, NEB-TS, DLPNO-Multilevel, CI-OPT
                                                   MM, QMMM, 2- and 3-layer-ONIOM, Crystal-QMMM,
                                                   LR-CPCM, SF, NACMEs, symmetry and pop. for TD-DFT,
                                                   nearIR, NL-DFT gradient (VV10), updates on ESD,
                                                   ML-optimized integration grids
   S Lehtola, MJT Oliveira, MAL Marques          : LibXC Library
   Liviu Ungur et al                             : ANISO software


 Your calculation uses the libint2 library for the computation of 2-el integrals
 For citations please refer to: http://libint.valeyev.net

 Your ORCA version has been built with support for libXC version: 5.1.0
 For citations please refer to: https://tddft.org/programs/libxc/

 This ORCA versions uses:
   CBLAS   interface :  Fast vector & matrix operations
   LAPACKE interface :  Fast linear algebra routines
   SCALAPACK package :  Parallel linear algebra routines
   Shared memory     :  Shared parallel matrices
   BLAS/LAPACK       :  OpenBLAS 0.3.15  USE64BITINT DYNAMIC_ARCH NO_AFFINITY Zen SINGLE_THREADED
        Core in use  :  Zen
   Copyright (c) 2011-2014, The OpenBLAS Project


Your calculation utilizes the atom-pairwise dispersion correction
based on tight binding partial charges (D4)
Cite in your paper:
E.Caldeweyher, C.Bannwarth, S.Grimme, J.Chem.Phys., (2017), 147, 034112.
E.Caldeweyher, S.Ehlert, A.Hansen, H.Neugebauer, S.Grimme, J.Chem.Phys., (2018), in progress.
   

================================================================================

----- Orbital basis set information -----
Your calculation utilizes the basis: pcSseg-1
   F. Jensen, J. Chem. Theory Comput. 11, 132 (2015).

----- AuxJ basis set information -----
Your calculation utilizes the auxiliary basis: def2/J
   F. Weigend, Phys. Chem. Chem. Phys. 8, 1057 (2006).

================================================================================
                                        WARNINGS
                       Please study these warnings very carefully!
================================================================================



WARNING: Found flag for RIJCOSX approximation but no HF exchange needed!
  ===> : RIJCOSX  will be disabled and Split-RI-J is turned on

INFO   : the flag for use of the SHARK integral package has been found!

================================================================================
                                       INPUT FILE
================================================================================
NAME = inpS
|  1> ! revTPSS
|  2> ! D4
|  3> ! pcSseg-1
|  4> ! def2/J RIJCOSX
|  5> ! DEFGRID2
|  6> ! scfconv7
|  7> ! smallprint printgap noloewdin
|  8> ! NOSOSCF
|  9> %MaxCore 4000
| 10> %output
| 11>        print[P_BondOrder_M] 1
| 12>        print[P_Mayer] 1
| 13>        print[P_basis] 2
| 14> end
| 15> %pal
| 16>     nprocs 4
| 17> end
| 18> ! CPCM(chloroform)
| 19> *xyz 0 1
| 20> C   -4.9995135000   0.2311745500  -0.4594494300
| 21> C   -6.4541660400  -0.1445151900  -0.6160925200
| 22> C   -7.3360341500   0.7460846300   0.2683417000
| 23> H   -6.6108842800  -1.1989873800  -0.3625154800
| 24> H   -6.7677155800   0.0042739400  -1.6599997200
| 25> C   -4.7199310000   1.6654087500  -0.6915964800
| 26> C   -5.6287363400   2.6107460800   0.0625236600
| 27> C   -7.1068666500   2.2193019900  -0.0739096600
| 28> H   -5.4696092200   3.6398880700  -0.2765990600
| 29> H   -5.3532621600   2.5777397500   1.1276995900
| 30> H   -7.4390666000   2.3892348900  -1.1071226100
| 31> H   -7.7239403000   2.8472467300   0.5790576400
| 32> O   -7.0934353700   0.4804474700   1.6597380300
| 33> H   -8.3909808200   0.4924744500   0.1064758900
| 34> C   -4.0777524600  -0.6819105000  -0.0710257000
| 35> C   -3.7699922200   2.0983732700  -1.5277224600
| 36> H   -3.1382306500   1.4031296900  -2.0740272500
| 37> H   -3.6103666300   3.1616069700  -1.6909645100
| 38> C   -2.6864840500  -0.4198074200   0.2188091400
| 39> H   -4.4369966200  -1.7010686600   0.0661131800
| 40> C   -1.7411506400  -1.3405458600   0.5033710900
| 41> H   -2.3924140800   0.6273829300   0.2177177500
| 42> C   -1.9456106100  -2.8338220200   0.5189032200
| 43> C   -0.9468505500  -3.5469031400  -0.4127253600
| 44> H   -2.9667539800  -3.1170777400   0.2506199900
| 45> H   -1.7689668400  -3.1893993400   1.5464021000
| 46> C    0.5065691000  -3.1320370000  -0.1498638900
| 47> H   -1.2134455900  -3.3301885700  -1.4549486200
| 48> H   -1.0473241700  -4.6316597300  -0.2846138700
| 49> C    0.6860560900  -1.6086453100  -0.2072673300
| 50> H    1.1550231400  -3.6378888700  -0.8723512900
| 51> H    0.8067479800  -3.4803830500   0.8498716400
| 52> C   -0.3200280800  -0.9809941100   0.8107644600
| 53> H   -0.0781269700  -1.4689834400   1.7728391400
| 54> C    0.1192132600   0.4757258100   0.9200826400
| 55> H   -6.1371753100   0.3912378100   1.7787676400
| 56> C    1.6613665300   0.4012588500   0.8005607800
| 57> H   -0.2127907000   0.9360994600   1.8564168000
| 58> H   -0.2989539100   1.0716090500   0.1013117000
| 59> C    2.0187960700  -1.0533863100   0.3677425500
| 60> H    2.1531808100   0.6563489300   1.7444182300
| 61> H    2.0235106700   1.1177729900   0.0533614600
| 62> H    2.2406795900  -1.6415017900   1.2731755800
| 63> C    3.2920151900  -1.1019942500  -0.5120091900
| 64> C    0.4360195500  -1.0748717000  -1.6249390500
| 65> H    0.6701103200  -0.0083771200  -1.7030248200
| 66> H   -0.6097666000  -1.2009402000  -1.9216799800
| 67> H    1.0585274200  -1.6054179900  -2.3535983900
| 68> H    3.0944278100  -0.4718575500  -1.3952991800
| 69> C    3.6427522400  -2.5071388100  -0.9975670500
| 70> C    4.4201662400  -0.4422929600   0.2475783700
| 71> C    5.5163731500  -1.0407157200   0.7138855100
| 72> H    4.2817975800   0.6218485100   0.4344498000
| 73> H    5.6527420100  -2.1083469600   0.5353654500
| 74> C    6.5982749800  -0.4227420900   1.5716723600
| 75> C    6.4151732700  -0.9561857800   3.0054843300
| 76> C    6.6818999500   1.1150865500   1.5094420900
| 77> H    7.5647462900  -0.8089066800   1.2044573900
| 78> H    5.6882811300   1.5231065000   1.7499899100
| 79> C    7.0851249900   1.5874310900   0.1081074700
| 80> C    7.6725792100   1.6775870100   2.5346042100
| 81> H    5.5324198000  -0.4983414500   3.4686212400
| 82> H    7.2865325100  -0.7479613800   3.6331529300
| 83> H    6.2617609600  -2.0406381800   2.9941378900
| 84> H    6.4148838500   1.2033142600  -0.6653536300
| 85> H    8.1008316700   1.2422191500  -0.1238071300
| 86> H    7.0837513000   2.6815463900   0.0506652100
| 87> H    7.3456743700   1.5106372800   3.5648010100
| 88> H    7.7902448000   2.7576744100   2.3939271900
| 89> H    8.6605921300   1.2150875700   2.4109745000
| 90> H    2.9033962600  -2.8703235800  -1.7141228700
| 91> H    3.6841555500  -3.2204313000  -0.1659986800
| 92> H    4.6177033100  -2.5101563900  -1.4966932200
| 93> *
| 94> %eprnmr
| 95>  Nuclei = all H { shift }
| 96>  origin giao
| 97>  giao_2el giao_2el_same_as_scf
| 98>  giao_1el giao_1el_analytic
| 99> end
|100> 
|101>                          ****END OF INPUT****
================================================================================

                       ****************************
                       * Single Point Calculation *
                       ****************************

---------------------------------
CARTESIAN COORDINATES (ANGSTROEM)
---------------------------------
  C     -4.999513    0.231175   -0.459449
  C     -6.454166   -0.144515   -0.616093
  C     -7.336034    0.746085    0.268342
  H     -6.610884   -1.198987   -0.362515
  H     -6.767716    0.004274   -1.660000
  C     -4.719931    1.665409   -0.691596
  C     -5.628736    2.610746    0.062524
  C     -7.106867    2.219302   -0.073910
  H     -5.469609    3.639888   -0.276599
  H     -5.353262    2.577740    1.127700
  H     -7.439067    2.389235   -1.107123
  H     -7.723940    2.847247    0.579058
  O     -7.093435    0.480447    1.659738
  H     -8.390981    0.492474    0.106476
  C     -4.077752   -0.681910   -0.071026
  C     -3.769992    2.098373   -1.527722
  H     -3.138231    1.403130   -2.074027
  H     -3.610367    3.161607   -1.690965
  C     -2.686484   -0.419807    0.218809
  H     -4.436997   -1.701069    0.066113
  C     -1.741151   -1.340546    0.503371
  H     -2.392414    0.627383    0.217718
  C     -1.945611   -2.833822    0.518903
  C     -0.946851   -3.546903   -0.412725
  H     -2.966754   -3.117078    0.250620
  H     -1.768967   -3.189399    1.546402
  C      0.506569   -3.132037   -0.149864
  H     -1.213446   -3.330189   -1.454949
  H     -1.047324   -4.631660   -0.284614
  C      0.686056   -1.608645   -0.207267
  H      1.155023   -3.637889   -0.872351
  H      0.806748   -3.480383    0.849872
  C     -0.320028   -0.980994    0.810764
  H     -0.078127   -1.468983    1.772839
  C      0.119213    0.475726    0.920083
  H     -6.137175    0.391238    1.778768
  C      1.661367    0.401259    0.800561
  H     -0.212791    0.936099    1.856417
  H     -0.298954    1.071609    0.101312
  C      2.018796   -1.053386    0.367743
  H      2.153181    0.656349    1.744418
  H      2.023511    1.117773    0.053361
  H      2.240680   -1.641502    1.273176
  C      3.292015   -1.101994   -0.512009
  C      0.436020   -1.074872   -1.624939
  H      0.670110   -0.008377   -1.703025
  H     -0.609767   -1.200940   -1.921680
  H      1.058527   -1.605418   -2.353598
  H      3.094428   -0.471858   -1.395299
  C      3.642752   -2.507139   -0.997567
  C      4.420166   -0.442293    0.247578
  C      5.516373   -1.040716    0.713886
  H      4.281798    0.621849    0.434450
  H      5.652742   -2.108347    0.535365
  C      6.598275   -0.422742    1.571672
  C      6.415173   -0.956186    3.005484
  C      6.681900    1.115087    1.509442
  H      7.564746   -0.808907    1.204457
  H      5.688281    1.523106    1.749990
  C      7.085125    1.587431    0.108107
  C      7.672579    1.677587    2.534604
  H      5.532420   -0.498341    3.468621
  H      7.286533   -0.747961    3.633153
  H      6.261761   -2.040638    2.994138
  H      6.414884    1.203314   -0.665354
  H      8.100832    1.242219   -0.123807
  H      7.083751    2.681546    0.050665
  H      7.345674    1.510637    3.564801
  H      7.790245    2.757674    2.393927
  H      8.660592    1.215088    2.410975
  H      2.903396   -2.870324   -1.714123
  H      3.684156   -3.220431   -0.165999
  H      4.617703   -2.510156   -1.496693

----------------------------
CARTESIAN COORDINATES (A.U.)
----------------------------
  NO LB      ZA    FRAG     MASS         X           Y           Z
   0 C     6.0000    0    12.011   -9.447711    0.436857   -0.868234
   1 C     6.0000    0    12.011  -12.196606   -0.273094   -1.164246
   2 C     6.0000    0    12.011  -13.863095    1.409896    0.507092
   3 H     1.0000    0     1.008  -12.492761   -2.265758   -0.685055
   4 H     1.0000    0     1.008  -12.789129    0.008077   -3.136945
   5 C     6.0000    0    12.011   -8.919377    3.147166   -1.306928
   6 C     6.0000    0    12.011  -10.636770    4.933595    0.118153
   7 C     6.0000    0    12.011  -13.430032    4.193873   -0.139669
   8 H     1.0000    0     1.008  -10.336063    6.878392   -0.522696
   9 H     1.0000    0     1.008  -10.116199    4.871222    2.131043
  10 H     1.0000    0     1.008  -14.057799    4.515000   -2.092159
  11 H     1.0000    0     1.008  -14.596132    5.380517    1.094260
  12 O     8.0000    0    15.999  -13.404650    0.907914    3.136450
  13 H     1.0000    0     1.008  -15.856656    0.930642    0.201210
  14 C     6.0000    0    12.011   -7.705835   -1.288624   -0.134219
  15 C     6.0000    0    12.011   -7.124253    3.965351   -2.886977
  16 H     1.0000    0     1.008   -5.930396    2.651531   -3.919343
  17 H     1.0000    0     1.008   -6.822604    5.974571   -3.195460
  18 C     6.0000    0    12.011   -5.076719   -0.793321    0.413489
  19 H     1.0000    0     1.008   -8.384708   -3.214554    0.124936
  20 C     6.0000    0    12.011   -3.290298   -2.533265    0.951234
  21 H     1.0000    0     1.008   -4.521007    1.185582    0.411427
  22 C     6.0000    0    12.011   -3.676671   -5.355148    0.980585
  23 C     6.0000    0    12.011   -1.789288   -6.702676   -0.779938
  24 H     1.0000    0     1.008   -5.606353   -5.890423    0.473603
  25 H     1.0000    0     1.008   -3.342863   -6.027091    2.922276
  26 C     6.0000    0    12.011    0.957277   -5.918692   -0.283202
  27 H     1.0000    0     1.008   -2.293080   -6.293144   -2.749454
  28 H     1.0000    0     1.008   -1.979156   -8.752568   -0.537842
  29 C     6.0000    0    12.011    1.296458   -3.039899   -0.391678
  30 H     1.0000    0     1.008    2.182677   -6.874614   -1.648505
  31 H     1.0000    0     1.008    1.524533   -6.576971    1.606025
  32 C     6.0000    0    12.011   -0.604765   -1.853810    1.532123
  33 H     1.0000    0     1.008   -0.147639   -2.775976    3.350180
  34 C     6.0000    0    12.011    0.225280    0.898991    1.738704
  35 H     1.0000    0     1.008  -11.597581    0.739332    3.361384
  36 C     6.0000    0    12.011    3.139528    0.758269    1.512841
  37 H     1.0000    0     1.008   -0.402116    1.768972    3.508119
  38 H     1.0000    0     1.008   -0.564941    2.025048    0.191451
  39 C     6.0000    0    12.011    3.814972   -1.990612    0.694933
  40 H     1.0000    0     1.008    4.068922    1.240320    3.296473
  41 H     1.0000    0     1.008    3.823881    2.112285    0.100839
  42 H     1.0000    0     1.008    4.234271   -3.101989    2.405953
  43 C     6.0000    0    12.011    6.221007   -2.082467   -0.967557
  44 C     6.0000    0    12.011    0.823958   -2.031213   -3.070690
  45 H     1.0000    0     1.008    1.266325   -0.015830   -3.218251
  46 H     1.0000    0     1.008   -1.152292   -2.269448   -3.631449
  47 H     1.0000    0     1.008    2.000327   -3.033800   -4.447656
  48 H     1.0000    0     1.008    5.847621   -0.891682   -2.636733
  49 C     6.0000    0    12.011    6.883804   -4.737806   -1.885129
  50 C     6.0000    0    12.011    8.352904   -0.835813    0.467855
  51 C     6.0000    0    12.011   10.424435   -1.966668    1.349048
  52 H     1.0000    0     1.008    8.091425    1.175123    0.820991
  53 H     1.0000    0     1.008   10.682134   -3.984198    1.011694
  54 C     6.0000    0    12.011   12.468933   -0.798867    2.970030
  55 C     6.0000    0    12.011   12.122921   -1.806929    5.679542
  56 C     6.0000    0    12.011   12.626961    2.107208    2.852432
  57 H     1.0000    0     1.008   14.295299   -1.528612    2.276095
  58 H     1.0000    0     1.008   10.749294    2.878254    3.307002
  59 C     6.0000    0    12.011   13.388946    2.999810    0.204294
  60 C     6.0000    0    12.011   14.499073    3.170180    4.789708
  61 H     1.0000    0     1.008   10.454758   -0.941729    6.554744
  62 H     1.0000    0     1.008   13.769551   -1.413442    6.865664
  63 H     1.0000    0     1.008   11.833013   -3.856247    5.658101
  64 H     1.0000    0     1.008   12.122374    2.273934   -1.257336
  65 H     1.0000    0     1.008   15.308353    2.347454   -0.233962
  66 H     1.0000    0     1.008   13.386350    5.067388    0.095743
  67 H     1.0000    0     1.008   13.881313    2.854691    6.736498
  68 H     1.0000    0     1.008   14.721429    5.211249    4.523867
  69 H     1.0000    0     1.008   16.366147    2.296183    4.556082
  70 H     1.0000    0     1.008    5.486624   -5.424125   -3.239223
  71 H     1.0000    0     1.008    6.962045   -6.085733   -0.313692
  72 H     1.0000    0     1.008    8.726195   -4.743508   -2.828340

--------------------------------
INTERNAL COORDINATES (ANGSTROEM)
--------------------------------
 C      0   0   0     0.000000000000     0.00000000     0.00000000
 C      1   0   0     1.510527672873     0.00000000     0.00000000
 C      2   1   0     1.533976301097   110.45279680     0.00000000
 H      2   1   3     1.095798120754   110.67485861   237.85485295
 H      2   1   3     1.100088069862   109.83088016   118.70101805
 C      1   2   3     1.479556138705   114.00387963   306.22760501
 C      6   1   2     1.512708497715   114.45898750    49.51610082
 C      3   2   1     1.529713413121   110.12184611    56.87174286
 H      7   6   1     1.095198107705   110.21734351   188.91543330
 H      7   6   1     1.100715768724   108.26010628    72.26291799
 H      8   3   2     1.098527649780   108.30697003    64.29288480
 H      8   3   2     1.096111664424   109.51815164   181.30220828
 O      3   2   1     1.437150310847   110.72299047   292.87387424
 H      3   2   1     1.097010091289   109.48457680   177.31009498
 C      1   2   3     1.354341433104   121.16349960   122.98661250
 C      6   1   2     1.337515837573   123.09880879   231.39534276
 H     16   6   1     1.086708443161   121.33612668   359.06386291
 H     16   6   1     1.087471469367   120.96966179   178.46734182
 C     15   1   2     1.445105548978   126.19128729   185.44045361
 H     15   1   2     1.089287287173   116.25930785     3.19285235
 C     19  15   1     1.349959271365   126.35252654   185.60606262
 H     19  15   1     1.087697553330   115.76652467     6.55865830
 C     21  19  15     1.507288564416   125.65413437     2.63573034
 C     23  21  19     1.540758953316   111.36746685   124.60677469
 H     23  21  19     1.093134701904   112.38935382     1.04765679
 H     23  21  19     1.101540830101   107.91818167   243.10343763
 C     24  23  21     1.534157340541   112.66593128    51.49131013
 H     24  23  21     1.097391199112   108.98888337   289.29903667
 H     24  23  21     1.096906724263   109.12860678   173.37317262
 C     27  24  23     1.535002597934   111.88485014   306.10259398
 H     27  24  23     1.094699410584   108.85315339   182.56996834
 H     27  24  23     1.100419674712   109.17709548    66.13747341
 C     21  19  15     1.497784188523   122.95346459   180.82782355
 H     33  21  19     1.105548471624   106.27478979   127.04640071
 C     33  21  19     1.525423332904   121.14199439     4.57600067
 H     13   3   2     0.967760153057   107.63289952    42.43601029
 C     35  33  21     1.548569504840   103.60937559   196.92823023
 H     35  33  21     1.094939352774   112.05472188    74.98954888
 H     35  33  21     1.095594117348   110.85067121   315.35177720
 C     30  27  24     1.554073606194   116.16958359   165.99848892
 H     37  35  33     1.094449231736   111.69954381   248.78549867
 H     37  35  33     1.096744142799   110.48721447   130.21076601
 H     40  30  27     1.102234587589   106.61461181   320.41651489
 C     40  30  27     1.548358092754   118.93019002    80.68797484
 C     30  27  24     1.535325907993   111.13211299   294.05922248
 H     45  30  27     1.094671898445   111.70037118   186.39240075
 H     45  30  27     1.094356942575   111.46630582    66.37566921
 H     45  30  27     1.095417659075   110.68821011   306.30944453
 H     44  40  30     1.102866374434   106.84606869    62.55864453
 C     44  40  30     1.527486218644   113.47245002   303.41172988
 C     44  40  30     1.511589840185   108.33028596   177.14158729
 C     51  44  40     1.333124802122   126.41013603   113.51789474
 H     51  44  40     1.089249230247   114.69397258   294.96365827
 H     52  51  44     1.091009781085   119.00025778     0.97091871
 C     52  51  44     1.512680156929   127.09098255   185.43518360
 C     55  52  51     1.540748250663   107.53377231   105.36308724
 C     55  52  51     1.541357410893   115.05593941   338.59641452
 H     55  52  51     1.103647007795   107.13969470   220.10379426
 H     57  55  52     1.100736977103   108.18178412    54.28540196
 C     57  55  52     1.532787824378   111.01660843   294.91735927
 C     57  55  52     1.532582635938   111.97806568   172.61284277
 H     56  55  52     1.096982641939   110.12187816   287.50258076
 H     56  55  52     1.093888567138   111.92562090   166.56818323
 H     56  55  52     1.095308671757   110.47490085    46.41101774
 H     60  57  55     1.093165585834   112.16594291    55.42489262
 H     60  57  55     1.097549873586   109.85889714   295.42250446
 H     60  57  55     1.095623014523   110.81422428   176.52167159
 H     61  57  55     1.093638163879   112.38680149   294.02486315
 H     61  57  55     1.095547354825   110.20510051   173.93035376
 H     61  57  55     1.097888686198   110.59624222    54.94471150
 H     50  44  40     1.091788754979   111.04745889    68.29738919
 H     50  44  40     1.096360508388   111.47262708   307.97960643
 H     50  44  40     1.095292485258   110.59632729   187.71726521

---------------------------
INTERNAL COORDINATES (A.U.)
---------------------------
 C      0   0   0     0.000000000000     0.00000000     0.00000000
 C      1   0   0     2.854483619439     0.00000000     0.00000000
 C      2   1   0     2.898795104998   110.45279680     0.00000000
 H      2   1   3     2.070758346290   110.67485861   237.85485295
 H      2   1   3     2.078865175233   109.83088016   118.70101805
 C      1   2   3     2.795955901914   114.00387963   306.22760501
 C      6   1   2     2.858604781136   114.45898750    49.51610082
 C      3   2   1     2.890739414185   110.12184611    56.87174286
 H      7   6   1     2.069624485951   110.21734351   188.91543330
 H      7   6   1     2.080051354177   108.26010628    72.26291799
 H      8   3   2     2.075916408623   108.30697003    64.29288480
 H      8   3   2     2.071350857959   109.51815164   181.30220828
 O      3   2   1     2.715820500781   110.72299047   292.87387424
 H      3   2   1     2.073048638685   109.48457680   177.31009498
 C      1   2   3     2.559334400389   121.16349960   122.98661250
 C      6   1   2     2.527538632795   123.09880879   231.39534276
 H     16   6   1     2.053581344994   121.33612668   359.06386291
 H     16   6   1     2.055023255556   120.96966179   178.46734182
 C     15   1   2     2.730853722178   126.19128729   185.44045361
 H     15   1   2     2.058454653919   116.25930785     3.19285235
 C     19  15   1     2.551053314827   126.35252654   185.60606262
 H     19  15   1     2.055450492331   115.76652467     6.55865830
 C     21  19  15     2.848362591537   125.65413437     2.63573034
 C     23  21  19     2.911612460155   111.36746685   124.60677469
 H     23  21  19     2.065725214084   112.38935382     1.04765679
 H     23  21  19     2.081610494223   107.91818167   243.10343763
 C     24  23  21     2.899137219967   112.66593128    51.49131013
 H     24  23  21     2.073768828097   108.98888337   289.29903667
 H     24  23  21     2.072853303315   109.12860678   173.37317262
 C     27  24  23     2.900734524953   111.88485014   306.10259398
 H     27  24  23     2.068682084969   108.85315339   182.56996834
 H     27  24  23     2.079491817584   109.17709548    66.13747341
 C     21  19  15     2.830401924026   122.95346459   180.82782355
 H     33  21  19     2.089183839145   106.27478979   127.04640071
 C     33  21  19     2.882632337482   121.14199439     4.57600067
 H     13   3   2     1.828801652600   107.63289952    42.43601029
 C     35  33  21     2.926372263490   103.60937559   196.92823023
 H     35  33  21     2.069135509996   112.05472188    74.98954888
 H     35  33  21     2.070372835723   110.85067121   315.35177720
 C     30  27  24     2.936773507662   116.16958359   165.99848892
 H     37  35  33     2.068209315461   111.69954381   248.78549867
 H     37  35  33     2.072546068873   110.48721447   130.21076601
 H     40  30  27     2.082921505879   106.61461181   320.41651489
 C     40  30  27     2.925972752546   118.93019002    80.68797484
 C     30  27  24     2.901345492421   111.13211299   294.05922248
 H     45  30  27     2.068630094561   111.70037118   186.39240075
 H     45  30  27     2.068034914221   111.46630582    66.37566921
 H     45  30  27     2.070039377913   110.68821011   306.30944453
 H     44  40  30     2.084115409990   106.84606869    62.55864453
 C     44  40  30     2.886530626577   113.47245002   303.41172988
 C     44  40  30     2.856490824767   108.33028596   177.14158729
 C     51  44  40     2.519240778348   126.41013603   113.51789474
 H     51  44  40     2.058382736752   114.69397258   294.96365827
 H     52  51  44     2.061709695681   119.00025778     0.97091871
 C     52  51  44     2.858551224812   127.09098255   185.43518360
 C     55  52  51     2.911592235071   107.53377231   105.36308724
 C     55  52  51     2.912743381078   115.05593941   338.59641452
 H     55  52  51     2.085590593254   107.13969470   220.10379426
 H     57  55  52     2.080091432206   108.18178412    54.28540196
 C     57  55  52     2.896549209483   111.01660843   294.91735927
 C     57  55  52     2.896161459525   111.97806568   172.61284277
 H     56  55  52     2.072996766929   110.12187816   287.50258076
 H     56  55  52     2.067149812918   111.92562090   166.56818323
 H     56  55  52     2.069833421730   110.47490085    46.41101774
 H     60  57  55     2.065783576253   112.16594291    55.42489262
 H     60  57  55     2.074068679397   109.85889714   295.42250446
 H     60  57  55     2.070427443469   110.81422428   176.52167159
 H     61  57  55     2.066676619336   112.38680149   294.02486315
 H     61  57  55     2.070284467362   110.20510051   173.93035376
 H     61  57  55     2.074708942445   110.59624222    54.94471150
 H     50  44  40     2.063181743004   111.04745889    68.29738919
 H     50  44  40     2.071821104901   111.47262708   307.97960643
 H     50  44  40     2.069802833679   110.59632729   187.71726521

---------------------
BASIS SET INFORMATION
---------------------
There are 3 groups of distinct atoms

 Group   1 Type C   : 8s5p1d contracted to 3s3p1d pattern {521/311/1}
 Group   2 Type H   : 4s2p contracted to 2s1p pattern {31/2}
 Group   3 Type O   : 8s5p1d contracted to 3s3p1d pattern {521/311/1}

Atom   0C    basis set group =>   1
Atom   1C    basis set group =>   1
Atom   2C    basis set group =>   1
Atom   3H    basis set group =>   2
Atom   4H    basis set group =>   2
Atom   5C    basis set group =>   1
Atom   6C    basis set group =>   1
Atom   7C    basis set group =>   1
Atom   8H    basis set group =>   2
Atom   9H    basis set group =>   2
Atom  10H    basis set group =>   2
Atom  11H    basis set group =>   2
Atom  12O    basis set group =>   3
Atom  13H    basis set group =>   2
Atom  14C    basis set group =>   1
Atom  15C    basis set group =>   1
Atom  16H    basis set group =>   2
Atom  17H    basis set group =>   2
Atom  18C    basis set group =>   1
Atom  19H    basis set group =>   2
Atom  20C    basis set group =>   1
Atom  21H    basis set group =>   2
Atom  22C    basis set group =>   1
Atom  23C    basis set group =>   1
Atom  24H    basis set group =>   2
Atom  25H    basis set group =>   2
Atom  26C    basis set group =>   1
Atom  27H    basis set group =>   2
Atom  28H    basis set group =>   2
Atom  29C    basis set group =>   1
Atom  30H    basis set group =>   2
Atom  31H    basis set group =>   2
Atom  32C    basis set group =>   1
Atom  33H    basis set group =>   2
Atom  34C    basis set group =>   1
Atom  35H    basis set group =>   2
Atom  36C    basis set group =>   1
Atom  37H    basis set group =>   2
Atom  38H    basis set group =>   2
Atom  39C    basis set group =>   1
Atom  40H    basis set group =>   2
Atom  41H    basis set group =>   2
Atom  42H    basis set group =>   2
Atom  43C    basis set group =>   1
Atom  44C    basis set group =>   1
Atom  45H    basis set group =>   2
Atom  46H    basis set group =>   2
Atom  47H    basis set group =>   2
Atom  48H    basis set group =>   2
Atom  49C    basis set group =>   1
Atom  50C    basis set group =>   1
Atom  51C    basis set group =>   1
Atom  52H    basis set group =>   2
Atom  53H    basis set group =>   2
Atom  54C    basis set group =>   1
Atom  55C    basis set group =>   1
Atom  56C    basis set group =>   1
Atom  57H    basis set group =>   2
Atom  58H    basis set group =>   2
Atom  59C    basis set group =>   1
Atom  60C    basis set group =>   1
Atom  61H    basis set group =>   2
Atom  62H    basis set group =>   2
Atom  63H    basis set group =>   2
Atom  64H    basis set group =>   2
Atom  65H    basis set group =>   2
Atom  66H    basis set group =>   2
Atom  67H    basis set group =>   2
Atom  68H    basis set group =>   2
Atom  69H    basis set group =>   2
Atom  70H    basis set group =>   2
Atom  71H    basis set group =>   2
Atom  72H    basis set group =>   2

-------------------------
BASIS SET IN INPUT FORMAT
-------------------------

 # Basis set for element : H 
 NewGTO H 
 S 3 
   1      12.2518000000      0.0372173893
   2       1.8687100000      0.2538082070
   3       0.4182080000      0.7973867639
 S 1 
   1       0.1061000000      1.0000000000
 P 2 
   1       9.0000000000      0.0402678705
   2       1.0000000000      0.9880231245
  end;

 # Basis set for element : C 
 NewGTO C 
 S 5 
   1    1243.2000000000      0.0056300977
   2     187.1450000000      0.0419506039
   3      42.5126000000      0.1846643605
   4      11.7393000000      0.4665574214
   5       3.5054800000      0.4482347783
 S 2 
   1       5.3908900000     -0.1481148174
   2       0.4933410000      1.0519817143
 S 1 
   1       0.1497410000      1.0000000000
 P 3 
   1      59.6736000000      0.0113906672
   2       9.1805600000      0.1672414929
   3       1.9365800000      0.9041087436
 P 1 
   1       0.5262960000      1.0000000000
 P 1 
   1       0.1363190000      1.0000000000
 D 1 
   1       0.8000000000      1.0000000000
  end;

 # Basis set for element : O 
 NewGTO O 
 S 5 
   1    2288.6400000000      0.0054511382
   2     344.4160000000      0.0407189228
   3      78.2538000000      0.1813694209
   4      21.7195000000      0.4655368202
   5       6.5590700000      0.4512113212
 S 2 
   1      10.4656000000     -0.1502112012
   2       0.9643510000      1.0528679834
 S 1 
   1       0.2851270000      1.0000000000
 P 3 
   1     110.8840000000      0.0113058003
   2      17.0590000000      0.1699226452
   3       3.6899900000      0.9008060328
 P 1 
   1       0.9929960000      1.0000000000
 P 1 
   1       0.2449240000      1.0000000000
 D 1 
   1       1.0000000000      1.0000000000
  end;

---------------------------------
AUXILIARY/J BASIS SET INFORMATION
---------------------------------
There are 3 groups of distinct atoms

 Group   1 Type C   : 12s5p4d2f1g contracted to 6s4p3d1f1g pattern {711111/2111/211/2/1}
 Group   2 Type H   : 5s2p1d contracted to 3s1p1d pattern {311/2/1}
 Group   3 Type O   : 12s5p4d2f1g contracted to 6s4p3d1f1g pattern {711111/2111/211/2/1}

Atom   0C    basis set group =>   1
Atom   1C    basis set group =>   1
Atom   2C    basis set group =>   1
Atom   3H    basis set group =>   2
Atom   4H    basis set group =>   2
Atom   5C    basis set group =>   1
Atom   6C    basis set group =>   1
Atom   7C    basis set group =>   1
Atom   8H    basis set group =>   2
Atom   9H    basis set group =>   2
Atom  10H    basis set group =>   2
Atom  11H    basis set group =>   2
Atom  12O    basis set group =>   3
Atom  13H    basis set group =>   2
Atom  14C    basis set group =>   1
Atom  15C    basis set group =>   1
Atom  16H    basis set group =>   2
Atom  17H    basis set group =>   2
Atom  18C    basis set group =>   1
Atom  19H    basis set group =>   2
Atom  20C    basis set group =>   1
Atom  21H    basis set group =>   2
Atom  22C    basis set group =>   1
Atom  23C    basis set group =>   1
Atom  24H    basis set group =>   2
Atom  25H    basis set group =>   2
Atom  26C    basis set group =>   1
Atom  27H    basis set group =>   2
Atom  28H    basis set group =>   2
Atom  29C    basis set group =>   1
Atom  30H    basis set group =>   2
Atom  31H    basis set group =>   2
Atom  32C    basis set group =>   1
Atom  33H    basis set group =>   2
Atom  34C    basis set group =>   1
Atom  35H    basis set group =>   2
Atom  36C    basis set group =>   1
Atom  37H    basis set group =>   2
Atom  38H    basis set group =>   2
Atom  39C    basis set group =>   1
Atom  40H    basis set group =>   2
Atom  41H    basis set group =>   2
Atom  42H    basis set group =>   2
Atom  43C    basis set group =>   1
Atom  44C    basis set group =>   1
Atom  45H    basis set group =>   2
Atom  46H    basis set group =>   2
Atom  47H    basis set group =>   2
Atom  48H    basis set group =>   2
Atom  49C    basis set group =>   1
Atom  50C    basis set group =>   1
Atom  51C    basis set group =>   1
Atom  52H    basis set group =>   2
Atom  53H    basis set group =>   2
Atom  54C    basis set group =>   1
Atom  55C    basis set group =>   1
Atom  56C    basis set group =>   1
Atom  57H    basis set group =>   2
Atom  58H    basis set group =>   2
Atom  59C    basis set group =>   1
Atom  60C    basis set group =>   1
Atom  61H    basis set group =>   2
Atom  62H    basis set group =>   2
Atom  63H    basis set group =>   2
Atom  64H    basis set group =>   2
Atom  65H    basis set group =>   2
Atom  66H    basis set group =>   2
Atom  67H    basis set group =>   2
Atom  68H    basis set group =>   2
Atom  69H    basis set group =>   2
Atom  70H    basis set group =>   2
Atom  71H    basis set group =>   2
Atom  72H    basis set group =>   2

-------------------------------------
AUXILIARY/J BASIS SET IN INPUT FORMAT
-------------------------------------

 # Auxiliary/J basis set for element : H 
 NewAuxJGTO H 
 S 3 
   1      15.6752927000      0.1007184237
   2       3.6063578000      0.3404257499
   3       1.2080016000      0.6491996172
 S 1 
   1       0.4726794000      1.0000000000
 S 1 
   1       0.2018100000      1.0000000000
 P 2 
   1       2.0281365000      0.5596620919
   2       0.5358730000      0.5596620919
 D 1 
   1       2.2165124000      1.0000000000
  end;

 # Auxiliary/J basis set for element : C 
 NewAuxJGTO C 
 S 7 
   1    1861.0916331000      0.0134602335
   2     642.9939764000      0.0299160374
   3     235.1105725000      0.1008649584
   4      90.7028894000      0.2370970548
   5      36.7794552000      0.3924037254
   6      15.6046273000      0.3195862154
   7       6.8907294000      0.0530104441
 S 1 
   1       3.1478850000     -1.0000000000
 S 1 
   1       1.4777287000      1.0000000000
 S 1 
   1       0.7076466000      1.0000000000
 S 1 
   1       0.3430122000      1.0000000000
 S 1 
   1       0.1669453000      1.0000000000
 P 2 
   1      13.5472892000     -0.6769313712
   2       5.4669419000     -0.3779500978
 P 1 
   1       2.1751721000      1.0000000000
 P 1 
   1       0.8582194000      1.0000000000
 P 1 
   1       0.3376720000      1.0000000000
 D 2 
   1       5.9287253000     -0.3533329857
   2       1.9809209000     -0.7456525731
 D 1 
   1       0.8055417000     -1.0000000000
 D 1 
   1       0.3531244000     -1.0000000000
 F 2 
   1       1.6755626000      0.6311076882
   2       0.5997536000      0.4968166032
 G 1 
   1       1.0024600000     -1.0000000000
  end;

 # Auxiliary/J basis set for element : O 
 NewAuxJGTO O 
 S 7 
   1    2876.8216605000      0.0168151159
   2    1004.7443032000      0.0340137548
   3     369.7579954000      0.1194951309
   4     142.9442404000      0.2664627624
   5      57.8366425000      0.4202764046
   6      24.3864983000      0.2765077335
   7      10.6622662000      0.0057008815
 S 1 
   1       4.8070437000     -1.0000000000
 S 1 
   1       2.2210770000      1.0000000000
 S 1 
   1       1.0447795000      1.0000000000
 S 1 
   1       0.4968425000      1.0000000000
 S 1 
   1       0.2371384000      1.0000000000
 P 2 
   1      64.2613382000     -0.2731534179
   2      16.3006076000     -0.8168011598
 P 1 
   1       4.3550542000      1.0000000000
 P 1 
   1       1.2019554000      1.0000000000
 P 1 
   1       0.3354196000      1.0000000000
 D 2 
   1       9.2146611000     -0.4661230638
   2       2.8435251000     -0.6600908911
 D 1 
   1       0.9955759000     -1.0000000000
 D 1 
   1       0.3649441000     -1.0000000000
 F 2 
   1       2.6420115000      0.5931563945
   2       0.7345613000      0.5931563945
 G 1 
   1       1.3931000000     -1.0000000000
  end;



           ************************************************************
           *        Program running with 4 parallel MPI-processes     *
           *              working on a common directory               *
           ************************************************************
------------------------------------------------------------------------------
                           ORCA GTO INTEGRAL CALCULATION
                           -- RI-GTO INTEGRALS CHOSEN --
------------------------------------------------------------------------------
------------------------------------------------------------------------------
                   ___                                                        
                  /   \      - P O W E R E D   B Y -                         
                 /     \                                                     
                 |  |  |   _    _      __       _____    __    __             
                 |  |  |  | |  | |    /  \     |  _  \  |  |  /  |          
                  \  \/   | |  | |   /    \    | | | |  |  | /  /          
                 / \  \   | |__| |  /  /\  \   | |_| |  |  |/  /          
                |  |  |   |  __  | /  /__\  \  |    /   |      \           
                |  |  |   | |  | | |   __   |  |    \   |  |\   \          
                \     /   | |  | | |  |  |  |  | |\  \  |  | \   \       
                 \___/    |_|  |_| |__|  |__|  |_| \__\ |__|  \__/        
                                                                              
                      - O R C A' S   B I G   F R I E N D -                    
                                      &                                       
                       - I N T E G R A L  F E E D E R -                       
                                                                              
 v1 FN, 2020, v2 2021                                                         
------------------------------------------------------------------------------


Reading SHARK input file inpS.SHARKINP.tmp ... ok
----------------------
SHARK INTEGRAL PACKAGE
----------------------

Number of atoms                             ...     73
Number of basis functions                   ...    713
Number of shells                            ...    335
Maximum angular momentum                    ...      2
Integral batch strategy                     ... SHARK/LIBINT Hybrid
RI-J (if used) integral strategy            ... SPLIT-RIJ (Revised 2003 algorithm where possible)
Printlevel                                  ...      1
Contraction scheme used                     ... SEGMENTED contraction
Coulomb Range Separation                    ... NOT USED
Exchange Range Separation                   ... NOT USED
Finite Nucleus Model                        ... NOT USED
Auxiliary Coulomb fitting basis             ... AVAILABLE
   # of basis functions in Aux-J            ...   1905
   # of shells in Aux-J                     ...    655
   Maximum angular momentum in Aux-J        ...      4
Auxiliary J/K fitting basis                 ... NOT available
Auxiliary Correlation fitting basis         ... NOT available
Auxiliary 'external' fitting basis          ... NOT available
Integral threshold                          ...     3.000000e-11
Primitive cut-off                           ...     1.000000e-12
Primitive pair pre-selection threshold      ...     1.000000e-12

Calculating pre-screening integrals         ... done (  0.0 sec) Dimension = 335
Organizing shell pair data                  ... done (  0.1 sec)
Shell pair information
Total number of shell pairs                 ...     56280
Shell pairs after pre-screening             ...     31664
Total number of primitive shell pairs       ...    225367
Primitive shell pairs kept                  ...     74572
          la=0 lb=0:   9672 shell pairs
          la=1 lb=0:  13029 shell pairs
          la=1 lb=1:   4254 shell pairs
          la=2 lb=0:   2763 shell pairs
          la=2 lb=1:   1752 shell pairs
          la=2 lb=2:    194 shell pairs

Calculating one electron integrals          ... done (  0.1 sec)
Calculating RI/J V-Matrix + Cholesky decomp.... done (  0.1 sec)
Calculating Nuclear repulsion               ... done (  0.0 sec) ENN=   2785.205381965402 Eh

SHARK setup successfully completed in   0.6 seconds

Maximum memory used throughout the entire GTOINT-calculation: 61.2 MB


           ************************************************************
           *        Program running with 4 parallel MPI-processes     *
           *              working on a common directory               *
           ************************************************************
-------------------------------------------------------------------------------
                                 ORCA SCF
-------------------------------------------------------------------------------

------------
SCF SETTINGS
------------
Hamiltonian:
 Density Functional     Method          .... DFT(GTOs)
 Exchange Functional    Exchange        .... revTPSS
 Correlation Functional Correlation     .... revTPSS
 LDA part of GGA corr.  LDAOpt          .... PW91-LDA
 Gradients option       PostSCFGGA      .... off
   Density functional embedding theory  .... OFF
 RI-approximation to the Coulomb term is turned on
   Number of AuxJ basis functions       .... 1905


General Settings:
 Integral files         IntName         .... inpS
 Hartree-Fock type      HFTyp           .... RHF
 Total Charge           Charge          ....    0
 Multiplicity           Mult            ....    1
 Number of Electrons    NEL             ....  220
 Basis Dimension        Dim             ....  713
 Nuclear Repulsion      ENuc            ....   2785.2053819654 Eh

Convergence Acceleration:
 DIIS                   CNVDIIS         .... on
   Start iteration      DIISMaxIt       ....    12
   Startup error        DIISStart       ....  0.200000
   # of expansion vecs  DIISMaxEq       ....     5
   Bias factor          DIISBfac        ....   1.050
   Max. coefficient     DIISMaxC        ....  10.000
 Trust-Rad. Augm. Hess. CNVTRAH         .... auto
   Auto Start mean grad. ratio tolernc. ....  1.125000
   Auto Start start iteration           ....    20
   Auto Start num. interpolation iter.  ....    10
   Max. Number of Micro iterations      ....    16
   Max. Number of Macro iterations      .... Maxiter - #DIIS iter
   Number of Davidson start vectors     ....     2
   Converg. threshold I  (grad. norm)   ....   1.000e-04
   Converg. threshold II (energy diff.) ....   1.000e-07
   Grad. Scal. Fac. for Micro threshold ....   0.100
   Minimum threshold for Micro iter.    ....   0.010
   NR start threshold (gradient norm)   ....   0.001
   Initial trust radius                 ....   0.400
   Minimum AH scaling param. (alpha)    ....   1.000
   Maximum AH scaling param. (alpha)    .... 1000.000
   Orbital update algorithm             .... Taylor
   White noise on init. David. guess    .... on
   Maximum white noise                  ....   0.010
   Quad. conv. algorithm                .... NR
 SOSCF                  CNVSOSCF        .... off
 Level Shifting         CNVShift        .... on
   Level shift para.    LevelShift      ....    0.2500
   Turn off err/grad.   ShiftErr        ....    0.0010
 Zerner damping         CNVZerner       .... off
 Static damping         CNVDamp         .... on
   Fraction old density DampFac         ....    0.7000
   Max. Damping (<1)    DampMax         ....    0.9800
   Min. Damping (>=0)   DampMin         ....    0.0000
   Turn off err/grad.   DampErr         ....    0.1000
 Fernandez-Rico         CNVRico         .... off

SCF Procedure:
 Maximum # iterations   MaxIter         ....   125
 SCF integral mode      SCFMode         .... Direct
   Integral package                     .... SHARK and LIBINT hybrid scheme
 Reset frequency        DirectResetFreq ....    20
 Integral Threshold     Thresh          ....  3.000e-11 Eh
 Primitive CutOff       TCut            ....  1.000e-12 Eh

Convergence Tolerance:
 Convergence Check Mode ConvCheckMode   .... Total+1el-Energy
 Convergence forced     ConvForced      .... 0
 Energy Change          TolE            ....  1.000e-07 Eh
 1-El. energy change                    ....  1.000e-04 Eh
 DIIS Error             TolErr          ....  1.000e-07


Diagonalization of the overlap matrix:
Smallest eigenvalue                        ... 5.180e-04
Time for diagonalization                   ...    0.065 sec
Threshold for overlap eigenvalues          ... 1.000e-08
Number of eigenvalues below threshold      ... 0
Time for construction of square roots      ...    0.064 sec
Total time needed                          ...    0.131 sec

Time for model grid setup =    0.768 sec

------------------------------
INITIAL GUESS: MODEL POTENTIAL
------------------------------
Loading Hartree-Fock densities                     ... done
Calculating cut-offs                               ... done
Initializing the effective Hamiltonian             ... done
Setting up the integral package (SHARK)            ... done
Starting the Coulomb interaction                   ... done (   0.7 sec)
Reading the grid                                   ... done
Mapping shells                                     ... done
Starting the XC term evaluation                    ... done (   0.3 sec)
  promolecular density results
     # of electrons  =    219.977619464
     EX              =   -164.434049808
     EC              =     -7.329144790
     EX+EC           =   -171.763194599
Transforming the Hamiltonian                       ... done (   0.0 sec)
Diagonalizing the Hamiltonian                      ... done (   0.1 sec)
Back transforming the eigenvectors                 ... done (   0.0 sec)
Now organizing SCF variables                       ... done
                      ------------------
                      INITIAL GUESS DONE (   1.9 sec)
                      ------------------
-------------------
DFT GRID GENERATION
-------------------

General Integration Accuracy     IntAcc      ... 4.388
Radial Grid Type                 RadialGrid  ... OptM3 with GC (2021)
Angular Grid (max. ang.)         AngularGrid ... 4 (Lebedev-302)
Angular grid pruning method      GridPruning ... 4 (adaptive)
Weight generation scheme         WeightScheme... Becke
Basis function cutoff            BFCut       ... 1.0000e-11
Integration weight cutoff        WCut        ... 1.0000e-14
Angular grids for H and He will be reduced by one unit
Partially contracted basis set               ... off
Rotationally invariant grid construction     ... off

Total number of grid points                  ...   309801
Total number of batches                      ...     4876
Average number of points per batch           ...       63
Average number of grid points per atom       ...     4244
Time for grid setup =    3.050 sec


--------------------
CPCM SOLVATION MODEL
--------------------
CPCM parameters:
  Epsilon                                         ...       4.9000
  Refrac                                          ...       1.4500
  Rsolv                                           ...       1.3000
  Surface type                                    ... GAUSSIAN VDW
  Epsilon function type                           ...         CPCM
Radii:
 Radius for C  used is    3.8550 Bohr (=   2.0400 Ang.)
 Radius for H  used is    2.4944 Bohr (=   1.3200 Ang.)
 Radius for O  used is    3.4469 Bohr (=   1.8240 Ang.)
Calculating surface                               ...        done! (  0.0s)
GEPOL surface points                              ...         3599
GEPOL Volume                                      ...    3601.9650
GEPOL Surface-area                                ...    1771.7194
Calculating surface distance matrix               ...        done! (  0.1s)
Performing Cholesky decomposition & store         ...        done! (  0.4s)
Overall time for CPCM initialization              ...                 0.5s
--------------
SCF ITERATIONS
--------------
ITER       Energy         Delta-E        Max-DP      RMS-DP      [F,P]     Damp
               ***  Starting incremental Fock matrix formation  ***

  HOMO= 109 E= -1.914 eV LUMO=  7.768 eV gap=   9.682 eV
  0  -1167.5225619560   0.000000000000 0.05468403  0.00083029  0.2628242 0.7000

  HOMO= 109 E= -3.438 eV LUMO=  6.665 eV gap=  10.102 eV
  1  -1167.8955484898  -0.372986533846 0.02906510  0.00061379  0.1013988 0.7000
                               ***Turning on DIIS***

  HOMO= 109 E= -4.415 eV LUMO=  5.780 eV gap=  10.195 eV
  2  -1168.0416439416  -0.146095451791 0.04914522  0.00101301  0.0316419 0.0000

  HOMO= 109 E= -5.035 eV LUMO=  5.197 eV gap=  10.233 eV
  3  -1168.2388529746  -0.197209032934 0.02336035  0.00047378  0.0537132 0.0000

  HOMO= 109 E= -5.059 eV LUMO=  5.173 eV gap=  10.232 eV
  4  -1168.3057334712  -0.066880496603 0.00757642  0.00015232  0.0103574 0.0000

  HOMO= 109 E= -5.015 eV LUMO=  5.225 eV gap=  10.239 eV
  5  -1168.3087860739  -0.003052602735 0.00347488  0.00005714  0.0104477 0.0000

  HOMO= 109 E= -4.994 eV LUMO=  5.242 eV gap=  10.237 eV
  6  -1168.3090617975  -0.000275723568 0.00125102  0.00001919  0.0029607 0.0000

  HOMO= 109 E= -4.996 eV LUMO= -1.563 eV gap=   3.433 eV
  7  -1168.3090812697  -0.000019472267 0.00073251  0.00001169  0.0004927 0.0000

  HOMO= 109 E= -4.994 eV LUMO= -1.561 eV gap=   3.433 eV
  8  -1168.3090842515  -0.000002981804 0.00026225  0.00000290  0.0003713 0.0000

  HOMO= 109 E= -4.992 eV LUMO= -1.559 eV gap=   3.433 eV
  9  -1168.3090848673  -0.000000615739 0.00016082  0.00000152  0.0002602 0.0000

  HOMO= 109 E= -4.993 eV LUMO= -1.559 eV gap=   3.433 eV
 10  -1168.3090851170  -0.000000249694 0.00006810  0.00000070  0.0001008 0.0000

  HOMO= 109 E= -4.993 eV LUMO= -1.560 eV gap=   3.433 eV
 11  -1168.3090851392  -0.000000022234 0.00002916  0.00000028  0.0000307 0.0000

  HOMO= 109 E= -4.993 eV LUMO= -1.559 eV gap=   3.433 eV
 12  -1168.3090851158   0.000000023430 0.00001458  0.00000013  0.0000174 0.0000

  HOMO= 109 E= -4.993 eV LUMO= -1.559 eV gap=   3.433 eV
 13  -1168.3090851654  -0.000000049592 0.00000648  0.00000006  0.0000075 0.0000
                 **** Energy Check signals convergence ****

               *****************************************************
               *                     SUCCESS                       *
               *           SCF CONVERGED AFTER  14 CYCLES          *
               *****************************************************


----------------
TOTAL SCF ENERGY
----------------

Total Energy       :        -1168.30908516 Eh          -31791.30645 eV

Components:
Nuclear Repulsion  :         2785.20538197 Eh           75789.29150 eV
Electronic Energy  :        -3953.51446712 Eh         -107580.59794 eV
One Electron Energy:        -7116.49519752 Eh         -193649.67928 eV
Two Electron Energy:         3162.98073040 Eh           86069.08134 eV
CPCM Dielectric    :           -0.00903036 Eh              -0.24573 eV

Virial components:
Potential Energy   :        -2330.40838719 Eh          -63413.63610 eV
Kinetic Energy     :         1162.09930203 Eh           31622.32966 eV
Virial Ratio       :            2.00534359


DFT components:
N(Alpha)           :      110.000170670245 electrons
N(Beta)            :      110.000170670245 electrons
N(Total)           :      220.000341340491 electrons
E(X)               :     -169.584100429744 Eh       
E(C)               :       -7.444893465815 Eh       
E(XC)              :     -177.028993895559 Eh       
DFET-embed. en.    :        0.000000000000 Eh       
CPCM Solvation Model Properties:
Surface-charge          :           -0.04546236
Charge-correction       :           -0.00006669 Eh              -0.00181 eV
Free-energy (cav+disp)  :  This term is not implemented in the current solvation scheme

---------------
SCF CONVERGENCE
---------------

  Last Energy change         ...    8.2230e-09  Tolerance :   1.0000e-07
  Last MAX-Density change    ...    2.6378e-06  Tolerance :   1.0000e-05
  Last RMS-Density change    ...    2.7162e-08  Tolerance :   1.0000e-06
  Last DIIS Error            ...    3.6524e-06  Tolerance :   1.0000e-07

             **** THE GBW FILE WAS UPDATED (inpS.gbw) ****
             **** DENSITY inpS.scfp WAS UPDATED ****
             **** ENERGY FILE WAS UPDATED (inpS.en.tmp) ****
             **** THE GBW FILE WAS UPDATED (inpS.gbw) ****
             **** DENSITY inpS.scfp WAS UPDATED ****
----------------
ORBITAL ENERGIES
----------------

  NO   OCC          E(Eh)            E(eV) 
   0   2.0000     -18.903768      -514.3977 
   1   2.0000     -10.057253      -273.6718 
   2   2.0000     -10.016567      -272.5646 
   3   2.0000     -10.014781      -272.5161 
   4   2.0000     -10.012637      -272.4577 
   5   2.0000     -10.012306      -272.4487 
   6   2.0000     -10.012110      -272.4434 
   7   2.0000     -10.012024      -272.4410 
   8   2.0000     -10.010848      -272.4090 
   9   2.0000     -10.010072      -272.3879 
  10   2.0000     -10.009790      -272.3802 
  11   2.0000     -10.007594      -272.3205 
  12   2.0000     -10.007510      -272.3182 
  13   2.0000     -10.006900      -272.3016 
  14   2.0000     -10.006700      -272.2962 
  15   2.0000     -10.006333      -272.2862 
  16   2.0000     -10.005105      -272.2527 
  17   2.0000     -10.001120      -272.1443 
  18   2.0000     -10.000941      -272.1394 
  19   2.0000     -10.000840      -272.1367 
  20   2.0000     -10.000466      -272.1265 
  21   2.0000      -9.999841      -272.1095 
  22   2.0000      -9.998703      -272.0785 
  23   2.0000      -9.997389      -272.0428 
  24   2.0000      -9.996424      -272.0165 
  25   2.0000      -9.996082      -272.0072 
  26   2.0000      -9.995861      -272.0012 
  27   2.0000      -9.995690      -271.9965 
  28   2.0000      -9.993244      -271.9300 
  29   2.0000      -0.954481       -25.9727 
  30   2.0000      -0.808396       -21.9976 
  31   2.0000      -0.789629       -21.4869 
  32   2.0000      -0.770930       -20.9781 
  33   2.0000      -0.757235       -20.6054 
  34   2.0000      -0.734441       -19.9852 
  35   2.0000      -0.728446       -19.8220 
  36   2.0000      -0.709003       -19.2929 
  37   2.0000      -0.708936       -19.2911 
  38   2.0000      -0.693326       -18.8664 
  39   2.0000      -0.676729       -18.4147 
  40   2.0000      -0.660354       -17.9692 
  41   2.0000      -0.654320       -17.8050 
  42   2.0000      -0.636975       -17.3330 
  43   2.0000      -0.625695       -17.0260 
  44   2.0000      -0.625575       -17.0228 
  45   2.0000      -0.620049       -16.8724 
  46   2.0000      -0.591946       -16.1077 
  47   2.0000      -0.585841       -15.9415 
  48   2.0000      -0.559989       -15.2381 
  49   2.0000      -0.548091       -14.9143 
  50   2.0000      -0.542718       -14.7681 
  51   2.0000      -0.537507       -14.6263 
  52   2.0000      -0.528002       -14.3677 
  53   2.0000      -0.518817       -14.1177 
  54   2.0000      -0.489404       -13.3173 
  55   2.0000      -0.474582       -12.9140 
  56   2.0000      -0.467233       -12.7141 
  57   2.0000      -0.463627       -12.6159 
  58   2.0000      -0.451350       -12.2818 
  59   2.0000      -0.446962       -12.1625 
  60   2.0000      -0.439656       -11.9637 
  61   2.0000      -0.431922       -11.7532 
  62   2.0000      -0.417474       -11.3601 
  63   2.0000      -0.417178       -11.3520 
  64   2.0000      -0.410475       -11.1696 
  65   2.0000      -0.405569       -11.0361 
  66   2.0000      -0.404184       -10.9984 
  67   2.0000      -0.400325       -10.8934 
  68   2.0000      -0.397750       -10.8233 
  69   2.0000      -0.389854       -10.6085 
  70   2.0000      -0.388622       -10.5749 
  71   2.0000      -0.382243       -10.4013 
  72   2.0000      -0.379062       -10.3148 
  73   2.0000      -0.375143       -10.2082 
  74   2.0000      -0.372253       -10.1295 
  75   2.0000      -0.370347       -10.0777 
  76   2.0000      -0.362650        -9.8682 
  77   2.0000      -0.358817        -9.7639 
  78   2.0000      -0.356397        -9.6981 
  79   2.0000      -0.348487        -9.4828 
  80   2.0000      -0.344739        -9.3808 
  81   2.0000      -0.343855        -9.3568 
  82   2.0000      -0.342998        -9.3335 
  83   2.0000      -0.337056        -9.1718 
  84   2.0000      -0.326842        -8.8938 
  85   2.0000      -0.325339        -8.8529 
  86   2.0000      -0.323706        -8.8085 
  87   2.0000      -0.321214        -8.7407 
  88   2.0000      -0.317275        -8.6335 
  89   2.0000      -0.311804        -8.4846 
  90   2.0000      -0.309730        -8.4282 
  91   2.0000      -0.304927        -8.2975 
  92   2.0000      -0.304481        -8.2854 
  93   2.0000      -0.297711        -8.1011 
  94   2.0000      -0.291142        -7.9224 
  95   2.0000      -0.288453        -7.8492 
  96   2.0000      -0.286348        -7.7919 
  97   2.0000      -0.284638        -7.7454 
  98   2.0000      -0.282870        -7.6973 
  99   2.0000      -0.277339        -7.5468 
 100   2.0000      -0.275089        -7.4856 
 101   2.0000      -0.274512        -7.4699 
 102   2.0000      -0.271040        -7.3754 
 103   2.0000      -0.267143        -7.2693 
 104   2.0000      -0.260439        -7.0869 
 105   2.0000      -0.252158        -6.8616 
 106   2.0000      -0.230373        -6.2688 
 107   2.0000      -0.228710        -6.2235 
 108   2.0000      -0.211957        -5.7676 
 109   2.0000      -0.183484        -4.9929 
 110   0.0000      -0.057308        -1.5594 
 111   0.0000      -0.014261        -0.3881 
 112   0.0000      -0.004172        -0.1135 
 113   0.0000       0.029004         0.7892 
 114   0.0000       0.037841         1.0297 
 115   0.0000       0.041476         1.1286 
 116   0.0000       0.047698         1.2979 
 117   0.0000       0.048509         1.3200 
 118   0.0000       0.051718         1.4073 
 119   0.0000       0.055168         1.5012 
 120   0.0000       0.060425         1.6443 
 121   0.0000       0.065555         1.7838 
 122   0.0000       0.068871         1.8741 
 123   0.0000       0.071700         1.9511 
 124   0.0000       0.079024         2.1504 
 125   0.0000       0.081817         2.2264 
 126   0.0000       0.084381         2.2961 
 127   0.0000       0.086796         2.3618 
 128   0.0000       0.087887         2.3915 
 129   0.0000       0.090378         2.4593 
 130   0.0000       0.097607         2.6560 
 131   0.0000       0.101508         2.7622 
 132   0.0000       0.101800         2.7701 
 133   0.0000       0.107118         2.9148 
 134   0.0000       0.110488         3.0065 
 135   0.0000       0.113540         3.0896 
 136   0.0000       0.114980         3.1288 
 137   0.0000       0.119070         3.2400 
 138   0.0000       0.120414         3.2766 
 139   0.0000       0.125712         3.4208 
 140   0.0000       0.126562         3.4439 
 141   0.0000       0.127651         3.4736 
 142   0.0000       0.131207         3.5703 
 143   0.0000       0.132678         3.6103 
 144   0.0000       0.136930         3.7260 
 145   0.0000       0.139156         3.7866 
 146   0.0000       0.141787         3.8582 
 147   0.0000       0.144394         3.9292 
 148   0.0000       0.146452         3.9852 
 149   0.0000       0.150036         4.0827 
 150   0.0000       0.150779         4.1029 
 151   0.0000       0.157020         4.2727 
 152   0.0000       0.158279         4.3070 
 153   0.0000       0.163169         4.4401 
 154   0.0000       0.168028         4.5723 
 155   0.0000       0.171547         4.6680 
 156   0.0000       0.175942         4.7876 
 157   0.0000       0.177868         4.8400 
 158   0.0000       0.179129         4.8743 
 159   0.0000       0.186419         5.0727 
 160   0.0000       0.189483         5.1561 
 161   0.0000       0.190416         5.1815 
 162   0.0000       0.192503         5.2383 
 163   0.0000       0.195396         5.3170 
 164   0.0000       0.199600         5.4314 
 165   0.0000       0.204230         5.5574 
 166   0.0000       0.205282         5.5860 
 167   0.0000       0.206022         5.6061 
 168   0.0000       0.211647         5.7592 
 169   0.0000       0.214969         5.8496 
 170   0.0000       0.218906         5.9567 
 171   0.0000       0.222496         6.0544 
 172   0.0000       0.227060         6.1786 
 173   0.0000       0.230768         6.2795 
 174   0.0000       0.234049         6.3688 
 175   0.0000       0.241901         6.5825 
 176   0.0000       0.246220         6.7000 
 177   0.0000       0.259253         7.0546 
 178   0.0000       0.262059         7.1310 
 179   0.0000       0.265455         7.2234 
 180   0.0000       0.276016         7.5108 
 181   0.0000       0.285274         7.7627 
 182   0.0000       0.288529         7.8513 
 183   0.0000       0.294959         8.0262 
 184   0.0000       0.298518         8.1231 
 185   0.0000       0.326827         8.8934 
 186   0.0000       0.334859         9.1120 
 187   0.0000       0.339832         9.2473 
 188   0.0000       0.348206         9.4752 
 189   0.0000       0.357132         9.7181 
 190   0.0000       0.358604         9.7581 
 191   0.0000       0.362477         9.8635 
 192   0.0000       0.370293        10.0762 
 193   0.0000       0.373439        10.1618 
 194   0.0000       0.378567        10.3013 
 195   0.0000       0.381391        10.3782 
 196   0.0000       0.384215        10.4550 
 197   0.0000       0.389277        10.5928 
 198   0.0000       0.396817        10.7979 
 199   0.0000       0.399517        10.8714 
 200   0.0000       0.402037        10.9400 
 201   0.0000       0.411247        11.1906 
 202   0.0000       0.412972        11.2375 
 203   0.0000       0.421247        11.4627 
 204   0.0000       0.423964        11.5366 
 205   0.0000       0.426377        11.6023 
 206   0.0000       0.434775        11.8308 
 207   0.0000       0.438203        11.9241 
 208   0.0000       0.451804        12.2942 
 209   0.0000       0.453321        12.3355 
 210   0.0000       0.460803        12.5391 
 211   0.0000       0.464930        12.6514 
 212   0.0000       0.468594        12.7511 
 213   0.0000       0.472263        12.8509 
 214   0.0000       0.480674        13.0798 
 215   0.0000       0.482712        13.1353 
 216   0.0000       0.489796        13.3280 
 217   0.0000       0.494266        13.4497 
 218   0.0000       0.499436        13.5903 
 219   0.0000       0.501453        13.6452 
 220   0.0000       0.506293        13.7769 
 221   0.0000       0.508918        13.8484 
 222   0.0000       0.511277        13.9126 
 223   0.0000       0.518983        14.1223 
 224   0.0000       0.524193        14.2640 
 225   0.0000       0.530353        14.4316 
 226   0.0000       0.533791        14.5252 
 227   0.0000       0.536818        14.6076 
 228   0.0000       0.539627        14.6840 
 229   0.0000       0.542008        14.7488 
 230   0.0000       0.545348        14.8397 
 231   0.0000       0.553878        15.0718 
 232   0.0000       0.557412        15.1679 
 233   0.0000       0.561930        15.2909 
 234   0.0000       0.564269        15.3545 
 235   0.0000       0.570829        15.5331 
 236   0.0000       0.572864        15.5884 
 237   0.0000       0.574966        15.6456 
 238   0.0000       0.578865        15.7517 
 239   0.0000       0.581071        15.8118 
 240   0.0000       0.583188        15.8694 
 241   0.0000       0.587032        15.9739 
 242   0.0000       0.591059        16.0835 
 243   0.0000       0.591288        16.0898 
 244   0.0000       0.593482        16.1495 
 245   0.0000       0.596685        16.2366 
 246   0.0000       0.597874        16.2690 
 247   0.0000       0.599724        16.3193 
 248   0.0000       0.602091        16.3837 
 249   0.0000       0.604657        16.4535 
 250   0.0000       0.605996        16.4900 
 251   0.0000       0.608613        16.5612 
 252   0.0000       0.609221        16.5777 
 253   0.0000       0.614211        16.7135 
 254   0.0000       0.617901        16.8139 
 255   0.0000       0.620031        16.8719 
 256   0.0000       0.620285        16.8788 
 257   0.0000       0.623326        16.9616 
 258   0.0000       0.625828        17.0296 
 259   0.0000       0.630620        17.1600 
 260   0.0000       0.631844        17.1933 
 261   0.0000       0.638505        17.3746 
 262   0.0000       0.639001        17.3881 
 263   0.0000       0.643465        17.5096 
 264   0.0000       0.646099        17.5813 
 265   0.0000       0.648469        17.6457 
 266   0.0000       0.649793        17.6818 
 267   0.0000       0.652121        17.7451 
 268   0.0000       0.652727        17.7616 
 269   0.0000       0.658728        17.9249 
 270   0.0000       0.664551        18.0834 
 271   0.0000       0.665424        18.1071 
 272   0.0000       0.669941        18.2300 
 273   0.0000       0.672569        18.3015 
 274   0.0000       0.675619        18.3845 
 275   0.0000       0.678827        18.4718 
 276   0.0000       0.680198        18.5091 
 277   0.0000       0.684772        18.6336 
 278   0.0000       0.687894        18.7185 
 279   0.0000       0.693355        18.8671 
 280   0.0000       0.695036        18.9129 
 281   0.0000       0.698742        19.0137 
 282   0.0000       0.704811        19.1789 
 283   0.0000       0.707120        19.2417 
 284   0.0000       0.709113        19.2960 
 285   0.0000       0.716875        19.5072 
 286   0.0000       0.725425        19.7398 
 287   0.0000       0.727320        19.7914 
 288   0.0000       0.731416        19.9028 
 289   0.0000       0.738343        20.0913 
 290   0.0000       0.741361        20.1735 
 291   0.0000       0.747271        20.3343 
 292   0.0000       0.750791        20.4301 
 293   0.0000       0.755250        20.5514 
 294   0.0000       0.759001        20.6535 
 295   0.0000       0.767380        20.8815 
 296   0.0000       0.777934        21.1687 
 297   0.0000       0.779072        21.1996 
 298   0.0000       0.784451        21.3460 
 299   0.0000       0.788680        21.4611 
 300   0.0000       0.792925        21.5766 
 301   0.0000       0.798771        21.7357 
 302   0.0000       0.804014        21.8783 
 303   0.0000       0.813966        22.1491 
 304   0.0000       0.835049        22.7228 
 305   0.0000       0.859637        23.3919 
 306   0.0000       0.865387        23.5484 
 307   0.0000       0.886226        24.1154 
 308   0.0000       0.893593        24.3159 
 309   0.0000       0.899555        24.4781 
 310   0.0000       0.925522        25.1847 
 311   0.0000       0.934843        25.4384 
 312   0.0000       0.948799        25.8181 
 313   0.0000       0.963554        26.2196 
 314   0.0000       0.977094        26.5881 
 315   0.0000       0.988992        26.9118 
 316   0.0000       0.997491        27.1431 
 317   0.0000       1.015950        27.6454 
 318   0.0000       1.026249        27.9257 
 319   0.0000       1.033895        28.1337 
 320   0.0000       1.041406        28.3381 
 321   0.0000       1.053463        28.6662 
 322   0.0000       1.066565        29.0227 
 323   0.0000       1.090291        29.6683 
 324   0.0000       1.102297        29.9950 
 325   0.0000       1.108772        30.1712 
 326   0.0000       1.129287        30.7295 
 327   0.0000       1.155406        31.4402 
 328   0.0000       1.165641        31.7187 
 329   0.0000       1.177835        32.0505 
 330   0.0000       1.194029        32.4912 
 331   0.0000       1.210351        32.9353 
 332   0.0000       1.231205        33.5028 
 333   0.0000       1.247849        33.9557 
 334   0.0000       1.264656        34.4130 
 335   0.0000       1.273623        34.6570 
 336   0.0000       1.288963        35.0745 
 337   0.0000       1.292374        35.1673 
 338   0.0000       1.295488        35.2520 
 339   0.0000       1.311453        35.6864 
 340   0.0000       1.321460        35.9588 
 341   0.0000       1.334846        36.3230 
 342   0.0000       1.343669        36.5631 
 343   0.0000       1.347589        36.6698 
 344   0.0000       1.361623        37.0517 
 345   0.0000       1.368908        37.2499 
 346   0.0000       1.377145        37.4740 
 347   0.0000       1.381201        37.5844 
 348   0.0000       1.400145        38.0999 
 349   0.0000       1.414826        38.4994 
 350   0.0000       1.420646        38.6578 
 351   0.0000       1.427727        38.8504 
 352   0.0000       1.440562        39.1997 
 353   0.0000       1.448267        39.4094 
 354   0.0000       1.455499        39.6061 
 355   0.0000       1.470046        40.0020 
 356   0.0000       1.477131        40.1948 
 357   0.0000       1.492832        40.6220 
 358   0.0000       1.502723        40.8912 
 359   0.0000       1.508277        41.0423 
 360   0.0000       1.521436        41.4004 
 361   0.0000       1.524485        41.4833 
 362   0.0000       1.527078        41.5539 
 363   0.0000       1.548525        42.1375 
 364   0.0000       1.556905        42.3655 
 365   0.0000       1.561932        42.5023 
 366   0.0000       1.581115        43.0243 
 367   0.0000       1.588604        43.2281 
 368   0.0000       1.599416        43.5223 
 369   0.0000       1.610165        43.8148 
 370   0.0000       1.616984        44.0004 
 371   0.0000       1.627724        44.2926 
 372   0.0000       1.630450        44.3668 
 373   0.0000       1.640330        44.6356 
 374   0.0000       1.645531        44.7772 
 375   0.0000       1.659208        45.1493 
 376   0.0000       1.664161        45.2841 
 377   0.0000       1.675987        45.6059 
 378   0.0000       1.681350        45.7519 
 379   0.0000       1.684729        45.8438 
 380   0.0000       1.687196        45.9109 
 381   0.0000       1.694817        46.1183 
 382   0.0000       1.697303        46.1860 
 383   0.0000       1.704373        46.3783 
 384   0.0000       1.705905        46.4200 
 385   0.0000       1.713618        46.6299 
 386   0.0000       1.718176        46.7540 
 387   0.0000       1.729963        47.0747 
 388   0.0000       1.732620        47.1470 
 389   0.0000       1.733433        47.1691 
 390   0.0000       1.742205        47.4078 
 391   0.0000       1.749679        47.6112 
 392   0.0000       1.760832        47.9147 
 393   0.0000       1.767587        48.0985 
 394   0.0000       1.771606        48.2079 
 395   0.0000       1.775384        48.3107 
 396   0.0000       1.779255        48.4160 
 397   0.0000       1.784832        48.5678 
 398   0.0000       1.791425        48.7472 
 399   0.0000       1.796725        48.8914 
 400   0.0000       1.803578        49.0778 
 401   0.0000       1.809414        49.2367 
 402   0.0000       1.812734        49.3270 
 403   0.0000       1.816316        49.4245 
 404   0.0000       1.820018        49.5252 
 405   0.0000       1.824877        49.6574 
 406   0.0000       1.833720        49.8980 
 407   0.0000       1.836222        49.9661 
 408   0.0000       1.845791        50.2265 
 409   0.0000       1.847999        50.2866 
 410   0.0000       1.859259        50.5930 
 411   0.0000       1.864287        50.7298 
 412   0.0000       1.871342        50.9218 
 413   0.0000       1.885218        51.2994 
 414   0.0000       1.887590        51.3639 
 415   0.0000       1.892591        51.5000 
 416   0.0000       1.893957        51.5372 
 417   0.0000       1.901467        51.7415 
 418   0.0000       1.911776        52.0221 
 419   0.0000       1.915291        52.1177 
 420   0.0000       1.926002        52.4092 
 421   0.0000       1.930904        52.5426 
 422   0.0000       1.933054        52.6011 
 423   0.0000       1.948605        53.0242 
 424   0.0000       1.950691        53.0810 
 425   0.0000       1.961236        53.3679 
 426   0.0000       1.962020        53.3893 
 427   0.0000       1.967810        53.5468 
 428   0.0000       1.972525        53.6751 
 429   0.0000       1.974352        53.7248 
 430   0.0000       1.980212        53.8843 
 431   0.0000       1.987679        54.0875 
 432   0.0000       1.990936        54.1761 
 433   0.0000       1.996095        54.3165 
 434   0.0000       2.000673        54.4411 
 435   0.0000       2.002286        54.4850 
 436   0.0000       2.009269        54.6750 
 437   0.0000       2.011449        54.7343 
 438   0.0000       2.014929        54.8290 
 439   0.0000       2.023615        55.0654 
 440   0.0000       2.025678        55.1215 
 441   0.0000       2.027795        55.1791 
 442   0.0000       2.029945        55.2376 
 443   0.0000       2.037793        55.4512 
[...]

 --------------
 Nucleus  47H :
 --------------

Diamagnetic contribution to the shielding tensor (ppm) : 
            33.027         -2.089        -5.963
            -1.902         32.641         4.699
            -7.254          4.130        49.961

Paramagnetic contribution to the shielding tensor (ppm): 
            -1.723          0.346         3.697
             0.052         -5.512        -2.795
             4.282         -1.426       -14.597

Total shielding tensor (ppm): 
            31.304         -1.743        -2.266
            -1.850         27.129         1.905
            -2.972          2.704        35.364


 Diagonalized sT*s matrix:
 
 sDSO            31.349           31.428           52.853  iso=      38.543
 sPSO            -5.101           -1.321          -15.409  iso=      -7.277
        ---------------  ---------------  ---------------
 Total           26.248           30.106           37.444  iso=      31.266

 --------------
 Nucleus  48H :
 --------------

Diamagnetic contribution to the shielding tensor (ppm) : 
            36.048          0.342        -2.915
             2.034         31.513        -9.792
            -7.039        -10.352        48.431

Paramagnetic contribution to the shielding tensor (ppm): 
            -5.366          0.640         3.119
            -1.747         -2.986         7.591
             8.252          7.789       -18.383

Total shielding tensor (ppm): 
            30.681          0.982         0.203
             0.287         28.527        -2.201
             1.212         -2.563        30.048


 Diagonalized sT*s matrix:
 
 sDSO            29.220           36.973           49.798  iso=      38.664
 sPSO            -2.644           -6.121          -17.971  iso=      -8.912
        ---------------  ---------------  ---------------
 Total           26.576           30.852           31.827  iso=      29.752

 --------------
 Nucleus  52H :
 --------------

Diamagnetic contribution to the shielding tensor (ppm) : 
            40.373          0.667         0.812
             5.173         50.137        -7.214
             4.755         -6.348        28.089

Paramagnetic contribution to the shielding tensor (ppm): 
            -6.422          1.587         2.246
            -1.983        -28.545         7.898
            -1.117          6.184        -5.696

Total shielding tensor (ppm): 
            33.951          2.254         3.058
             3.189         21.592         0.684
             3.638         -0.164        22.393


 Diagonalized sT*s matrix:
 
 sDSO            36.628           40.306           41.666  iso=      39.533
 sPSO           -15.843          -18.532           -6.289  iso=     -13.554
        ---------------  ---------------  ---------------
 Total           20.785           21.774           35.377  iso=      25.979

 --------------
 Nucleus  53H :
 --------------

Diamagnetic contribution to the shielding tensor (ppm) : 
            37.874         -6.196        -1.070
            -1.757         44.572        -3.969
            -0.076         -4.489        36.417

Paramagnetic contribution to the shielding tensor (ppm): 
            -7.829          5.989         4.819
             3.040        -20.995         5.618
             4.104          5.738       -11.097

Total shielding tensor (ppm): 
            30.045         -0.207         3.749
             1.283         23.578         1.649
             4.028          1.249        25.320


 Diagonalized sT*s matrix:
 
 sDSO            42.414           40.661           35.787  iso=      39.621
 sPSO           -20.140          -16.384           -3.397  iso=     -13.307
        ---------------  ---------------  ---------------
 Total           22.275           24.277           32.390  iso=      26.314

 --------------
 Nucleus  57H :
 --------------

Diamagnetic contribution to the shielding tensor (ppm) : 
            40.786         -4.718        -2.314
           -10.084         29.932        -0.853
             0.850          6.237        29.263

Paramagnetic contribution to the shielding tensor (ppm): 
            -7.920          2.709         1.036
             8.542         -0.267         1.852
            -2.865         -5.186        -1.202

Total shielding tensor (ppm): 
            32.867         -2.009        -1.279
            -1.542         29.665         0.999
            -2.015          1.051        28.060


 Diagonalized sT*s matrix:
 
 sDSO            28.829           26.925           44.227  iso=      33.327
 sPSO            -1.409            1.994           -9.974  iso=      -3.130
        ---------------  ---------------  ---------------
 Total           27.420           28.919           34.253  iso=      30.197

 --------------
 Nucleus  58H :
 --------------

Diamagnetic contribution to the shielding tensor (ppm) : 
            41.307         -3.765        -1.179
            -1.281         44.168         4.153
             1.186          1.686        24.051

Paramagnetic contribution to the shielding tensor (ppm): 
            -6.173          2.820         1.983
             0.210        -15.640        -2.619
            -0.529         -0.212         3.029

Total shielding tensor (ppm): 
            35.133         -0.945         0.804
            -1.071         28.529         1.533
             0.656          1.475        27.080


 Diagonalized sT*s matrix:
 
 sDSO            27.270           40.361           41.894  iso=      36.509
 sPSO            -1.282          -10.923           -6.578  iso=      -6.261
        ---------------  ---------------  ---------------
 Total           25.988           29.438           35.315  iso=      30.247

 --------------
 Nucleus  61H :
 --------------

Diamagnetic contribution to the shielding tensor (ppm) : 
            33.612         -3.853        -8.145
           -10.163         28.678        -3.454
             6.603          3.976        42.599

Paramagnetic contribution to the shielding tensor (ppm): 
            -1.024          3.122         5.014
             9.981         -0.343         3.300
            -9.475         -3.775        -9.507

Total shielding tensor (ppm): 
            32.588         -0.731        -3.131
            -0.182         28.336        -0.154
            -2.871          0.201        33.092


 Diagonalized sT*s matrix:
 
 sDSO            26.540           38.651           39.699  iso=      34.963
 sPSO             1.717           -8.758           -3.833  iso=      -3.625
        ---------------  ---------------  ---------------
 Total           28.257           29.893           35.866  iso=      31.339

 --------------
 Nucleus  62H :
 --------------

Diamagnetic contribution to the shielding tensor (ppm) : 
            33.017         -1.850         8.979
           -13.379         17.260        -6.465
            15.986          9.655        34.958

Paramagnetic contribution to the shielding tensor (ppm): 
            -2.735          3.141        -4.080
            14.201         11.074         4.078
            -9.995        -11.067        -2.357

Total shielding tensor (ppm): 
            30.282          1.291         4.899
             0.822         28.334        -2.388
             5.991         -1.412        32.602


 Diagonalized sT*s matrix:
 
 sDSO            26.276           12.207           46.752  iso=      28.412
 sPSO            -1.546           17.195           -9.666  iso=       1.994
        ---------------  ---------------  ---------------
 Total           24.730           29.402           37.086  iso=      30.406

 --------------
 Nucleus  63H :
 --------------

Diamagnetic contribution to the shielding tensor (ppm) : 
            25.224         -0.460        -0.577
            -5.655         37.543       -13.780
            11.846         -0.936        31.738

Paramagnetic contribution to the shielding tensor (ppm): 
             2.224          1.618         1.560
             6.306         -2.273        11.326
           -10.352         -2.541        -2.183

Total shielding tensor (ppm): 
            27.447          1.157         0.983
             0.651         35.270        -2.454
             1.494         -3.478        29.554


 Diagonalized sT*s matrix:
 
 sDSO            22.235           30.763           41.506  iso=      31.501
 sPSO             4.076           -1.346           -4.962  iso=      -0.744
        ---------------  ---------------  ---------------
 Total           26.311           29.417           36.544  iso=      30.757

 --------------
 Nucleus  64H :
 --------------

Diamagnetic contribution to the shielding tensor (ppm) : 
            33.923          4.941         3.476
             9.830         34.543        -0.746
            -7.532        -13.415        31.466

Paramagnetic contribution to the shielding tensor (ppm): 
            -3.911         -0.615        -1.377
            -5.966         -6.952         0.046
            10.811         12.438         1.789

Total shielding tensor (ppm): 
            30.012          4.326         2.099
             3.864         27.591        -0.700
             3.279         -0.977        33.255


 Diagonalized sT*s matrix:
 
 sDSO            25.279           44.413           30.240  iso=      33.311
 sPSO            -1.325          -12.605            4.856  iso=      -3.025
        ---------------  ---------------  ---------------
 Total           23.954           31.808           35.096  iso=      30.286

 --------------
 Nucleus  65H :
 --------------

Diamagnetic contribution to the shielding tensor (ppm) : 
            40.731         -0.606        -5.388
             2.893         27.821         3.946
           -15.692         -3.545        18.421

Paramagnetic contribution to the shielding tensor (ppm): 
            -5.765          0.680         1.911
            -2.641          0.394        -4.400
            11.157          3.283        12.529

Total shielding tensor (ppm): 
            34.966          0.074        -3.477
             0.252         28.215        -0.453
            -4.535         -0.262        30.950


 Diagonalized sT*s matrix:
 
 sDSO            25.330           17.532           44.111  iso=      28.991
 sPSO             2.752           11.067           -6.661  iso=       2.386
        ---------------  ---------------  ---------------
 Total           28.082           28.598           37.450  iso=      31.377

 --------------
 Nucleus  66H :
 --------------

Diamagnetic contribution to the shielding tensor (ppm) : 
            28.719          1.749        -1.104
             8.783         43.627        -0.498
           -14.287         -8.392        19.971

Paramagnetic contribution to the shielding tensor (ppm): 
            -1.225         -0.227         1.105
            -7.829         -7.567        -2.460
            13.834          3.988         9.292

Total shielding tensor (ppm): 
            27.494          1.523         0.001
             0.954         36.060        -2.957
            -0.453         -4.404        29.264


 Diagonalized sT*s matrix:
 
 sDSO            30.303           17.155           44.859  iso=      30.772
 sPSO            -3.128           10.671           -7.044  iso=       0.167
        ---------------  ---------------  ---------------
 Total           27.176           27.826           37.815  iso=      30.939

 --------------
 Nucleus  67H :
 --------------

Diamagnetic contribution to the shielding tensor (ppm) : 
            26.591         -0.358        -0.558
             0.784         18.147         6.010
             8.065         14.718        37.325

Paramagnetic contribution to the shielding tensor (ppm): 
             0.218          2.425         1.681
             1.510         10.185        -4.514
            -7.870        -13.673        -1.155

Total shielding tensor (ppm): 
            26.810          2.067         1.123
             2.294         28.332         1.496
             0.195          1.045        36.170


 Diagonalized sT*s matrix:
 
 sDSO            23.359           17.740           40.965  iso=      27.354
 sPSO             1.899           11.836           -4.487  iso=       3.083
        ---------------  ---------------  ---------------
 Total           25.258           29.576           36.478  iso=      30.437

 --------------
 Nucleus  68H :
 --------------

Diamagnetic contribution to the shielding tensor (ppm) : 
            25.975          4.367         2.207
            13.554         34.023        13.784
             8.014          7.044        13.149

Paramagnetic contribution to the shielding tensor (ppm): 
             2.021         -0.951        -0.686
           -10.721          2.208       -12.318
            -6.191         -5.093        15.159

Total shielding tensor (ppm): 
            27.996          3.416         1.521
             2.833         36.231         1.466
             1.823          1.951        28.308


 Diagonalized sT*s matrix:
 
 sDSO            17.306           13.354           42.487  iso=      24.382
 sPSO             8.969           15.130           -4.710  iso=       6.463
        ---------------  ---------------  ---------------
 Total           26.274           28.484           37.777  iso=      30.845

 --------------
 Nucleus  69H :
 --------------

Diamagnetic contribution to the shielding tensor (ppm) : 
            41.189         -1.606         4.824
            -3.379         15.689         4.084
             4.389          8.198        14.835

Paramagnetic contribution to the shielding tensor (ppm): 
            -4.316          1.220        -2.621
             3.277         12.994        -4.012
            -1.934         -7.983        13.191

Total shielding tensor (ppm): 
            36.874         -0.386         2.203
            -0.102         28.683         0.072
             2.454          0.215        28.026


 Diagonalized sT*s matrix:
 
 sDSO            12.257           17.597           41.859  iso=      23.904
 sPSO            15.163           11.112           -4.406  iso=       7.290
        ---------------  ---------------  ---------------
 Total           27.419           28.709           37.454  iso=      31.194

 --------------
 Nucleus  70H :
 --------------

Diamagnetic contribution to the shielding tensor (ppm) : 
            30.976          1.332         4.224
            -3.692         34.515         8.209
            -2.330          5.465        43.509

Paramagnetic contribution to the shielding tensor (ppm): 
             1.876         -1.090        -3.080
             4.359         -5.664        -3.233
             3.760         -0.739       -14.284

Total shielding tensor (ppm): 
            32.853          0.242         1.144
             0.667         28.851         4.976
             1.431          4.726        29.226


 Diagonalized sT*s matrix:
 
 sDSO            31.858           35.723           41.419  iso=      36.333
 sPSO            -7.711           -3.670           -6.690  iso=      -6.024
        ---------------  ---------------  ---------------
 Total           24.146           32.053           34.729  iso=      30.310

 --------------
 Nucleus  71H :
 --------------

Diamagnetic contribution to the shielding tensor (ppm) : 
            28.117         -5.465        -2.193
            -6.420         39.512        -3.962
            -1.244        -10.268        42.609

Paramagnetic contribution to the shielding tensor (ppm): 
             2.858          4.505         3.262
             5.059         -5.790         1.226
             1.875          7.607       -14.556

Total shielding tensor (ppm): 
            30.975         -0.960         1.070
            -1.361         33.722        -2.736
             0.631         -2.661        28.052


 Diagonalized sT*s matrix:
 
 sDSO            38.125           25.861           46.251  iso=      36.746
 sPSO           -11.185            4.693          -10.996  iso=      -5.830
        ---------------  ---------------  ---------------
 Total           26.940           30.553           35.255  iso=      30.916

 --------------
 Nucleus  72H :
 --------------

Diamagnetic contribution to the shielding tensor (ppm) : 
            36.811         -7.638        -9.578
            -5.766         22.900         2.881
           -16.783         -0.566        37.017

Paramagnetic contribution to the shielding tensor (ppm): 
            -2.124          6.222         5.853
             4.082          4.836        -0.168
            12.698          4.127        -7.273

Total shielding tensor (ppm): 
            34.686         -1.416        -3.725
            -1.684         27.736         2.714
            -4.085          3.561        29.744


 Diagonalized sT*s matrix:
 
 sDSO            27.098           19.590           50.039  iso=      32.242
 sPSO            -1.811            9.591          -12.341  iso=      -1.520
        ---------------  ---------------  ---------------
 Total           25.287           29.181           37.698  iso=      30.722



--------------------------------
CHEMICAL SHIELDING SUMMARY (ppm)
--------------------------------


  Nucleus  Element    Isotropic     Anisotropy
  -------  -------  ------------   ------------
      3       H           29.369          6.468 
      4       H           29.049          7.423 
      8       H           29.565          7.958 
      9       H           29.328          5.456 
     10       H           30.105          8.336 
     11       H           29.857         10.228 
     13       H           27.731          7.781 
     16       H           26.783          4.667 
     17       H           26.501          4.800 
     19       H           25.405         10.461 
     21       H           25.588         14.664 
     24       H           28.910         10.158 
     25       H           30.054          9.478 
     27       H           30.245          7.031 
     28       H           30.112         11.817 
     30       H           29.738          8.331 
     31       H           30.472          6.824 
     33       H           29.842          4.232 
     35       H           30.168         14.776 
     37       H           30.333         10.669 
     38       H           30.185          9.959 
     40       H           29.879         10.014 
     41       H           30.266          8.123 
     42       H           30.821          5.422 
     45       H           31.216          7.347 
     46       H           31.009          8.072 
     47       H           31.266          9.267 
     48       H           29.752          3.113 
     52       H           25.979         14.097 
     53       H           26.314          9.114 
     57       H           30.197          6.084 
     58       H           30.247          7.602 
     61       H           31.339          6.791 
     62       H           30.406         10.021 
     63       H           30.757          8.680 
     64       H           30.286          7.215 
     65       H           31.377          9.110 
     66       H           30.939         10.314 
     67       H           30.437          9.061 
     68       H           30.845         10.397 
     69       H           31.194          9.389 
     70       H           30.310          6.629 
     71       H           30.916          6.509 
     72       H           30.722         10.463 



Maximum memory used throughout the entire EPRNMR-calculation: 140.8 MB

Timings for individual modules:

Sum of individual times         ...      141.053 sec (=   2.351 min)
GTO integral calculation        ...        0.797 sec (=   0.013 min)   0.6 %
SCF iterations                  ...       93.268 sec (=   1.554 min)  66.1 %
EPR/NMR calculation             ...       46.988 sec (=   0.783 min)  33.3 %
                             ****ORCA TERMINATED NORMALLY****
TOTAL RUN TIME: 0 days 0 hours 2 minutes 21 seconds 537 msec
