
                                 *****************
                                 * O   R   C   A *
                                 *****************

                                            #,                                       
                                            ###                                      
                                            ####                                     
                                            #####                                    
                                            ######                                   
                                           ########,                                 
                                     ,,################,,,,,                         
                               ,,#################################,,                 
                          ,,##########################################,,             
                       ,#########################################, ''#####,          
                    ,#############################################,,   '####,        
                  ,##################################################,,,,####,       
                ,###########''''           ''''###############################       
              ,#####''   ,,,,##########,,,,          '''####'''          '####       
            ,##' ,,,,###########################,,,                        '##       
           ' ,,###''''                  '''############,,,                           
         ,,##''                                '''############,,,,        ,,,,,,###''
      ,#''                                            '''#######################'''  
     '                                                          ''''####''''         
             ,#######,   #######,   ,#######,      ##                                
            ,#'     '#,  ##    ##  ,#'     '#,    #''#        ,####,   ,####,        
            ##       ##  ##   ,#'  ##            #'  '#       #'       #'  '#        
            ##       ##  #######   ##           ,######,      #####,   #    #        
            '#,     ,#'  ##    ##  '#,     ,#' ,#      #,     #,   #   #,  ,#        
             '#######'   ##     ##  '#######'  #'      '#     '####' # '####'        



                #########################################################
                #                        -***-                          #
                #          Department of theory and spectroscopy        #
                #                                                       #
                #                      Frank Neese                      #
                #                                                       #
                #     Directorship, Architecture, Infrastructure        #
                #                    SHARK, DRIVERS                     #
                #        Core code/Algorithms in most modules           #
                #                                                       #
                #        Max Planck Institute fuer Kohlenforschung      #
                #                Kaiser Wilhelm Platz 1                 #
                #                 D-45470 Muelheim/Ruhr                 #
                #                      Germany                          #
                #                                                       #
                #                  All rights reserved                  #
                #                        -***-                          #
                #########################################################


                         Program Version 6.0.0  -   RELEASE  -


 With contributions from (in alphabetic order):
   Daniel Aravena         : Magnetic Suceptibility
   Michael Atanasov       : Ab Initio Ligand Field Theory (pilot matlab implementation)
   Alexander A. Auer      : GIAO ZORA, VPT2 properties, NMR spectrum
   Ute Becker             : All parallelization in ORCA, NUMFREQ, NUMCALC
   Giovanni Bistoni       : ED, misc. LED, open-shell LED, HFLD
   Martin Brehm           : Molecular dynamics
   Dmytro Bykov           : pre 5.0 version of the SCF Hessian
   Marcos Casanova-Páez   : Triplet and SCS-CIS(D). UHF-(DLPNO)-IP/EA/STEOM-CCSD. UHF-CVS-IP/STEOM-CCSD
   Vijay G. Chilkuri      : MRCI spin determinant printing, contributions to CSF-ICE
   Pauline Colinet        : FMM embedding
   Dipayan Datta          : RHF DLPNO-CCSD density
   Achintya Kumar Dutta   : EOM-CC, STEOM-CC
   Nicolas Foglia         : Exact transition moments, OPA infrastructure, MCD improvements
   Dmitry Ganyushin       : Spin-Orbit,Spin-Spin,Magnetic field MRCI
   Miquel Garcia          : C-PCM and meta-GGA Hessian, CCSD/C-PCM, Gaussian charge scheme
   Tiago L. C. Gouveia    : GS-ROHF, GS-ROCIS
   Yang Guo               : DLPNO-NEVPT2, F12-NEVPT2, CIM, IAO-localization
   Andreas Hansen         : Spin unrestricted coupled pair/coupled cluster methods
   Ingolf Harden          : AUTO-CI MPn and infrastructure 
   Benjamin Helmich-Paris : MC-RPA, TRAH-(SCF,CASSCF), AVAS, COSX integrals, SCF dyn. polar.
   Lee Huntington         : MR-EOM, pCC
   Robert Izsak           : Overlap fitted RIJCOSX, COSX-SCS-MP3, EOM
   Riya Kayal             : Wick's Theorem for AUTO-CI, AUTO-CI UHF-CCSDT
   Emily Kempfer          : AUTO-CI, RHF CISDT and CCSDT
   Christian Kollmar      : KDIIS, OOCD, Brueckner-CCSD(T), CCSD density, CASPT2, CASPT2-K, improved NEVPT2
   Axel Koslowski         : Symmetry handling
   Simone Kossmann        : Meta GGA functionals, TD-DFT gradient, OOMP2, (MP2 Hessian; deprecated post 5.0)
   Lucas Lang             : DCDCAS
   Marvin Lechner         : AUTO-CI (C++ implementation), FIC-MRCC
   Spencer Leger          : CASSCF response
   Dagmar Lenk            : GEPOL surface, SMD, ORCA-2-JSON
   Dimitrios Liakos       : Extrapolation schemes; Compound Job, initial MDCI parallelization
   Dimitrios Manganas     : Further ROCIS development; embedding schemes. LFT, Crystal Embedding
   Dimitrios Pantazis     : SARC Basis sets
   Anastasios Papadopoulos: AUTO-CI, single reference methods and gradients
   Taras Petrenko         : pre 6.0 DFT Hessian and TD-DFT gradient, (ASA, deprecated), ECA, 1-Electron XAS/XES, NRVS
   Peter Pinski           : DLPNO-MP2, DLPNO-MP2 Gradient
   Christoph Reimann      : Effective Core Potentials
   Marius Retegan         : Local ZFS, SOC
   Christoph Riplinger    : Optimizer, TS searches, QM/MM, DLPNO-CCSD(T), (RO)-DLPNO pert. Triples
   Michael Roemelt        : Original ROCIS implementation
   Masaaki Saitow         : Open-shell DLPNO-CCSD energy and density
   Barbara Sandhoefer     : DKH picture change effects
   Kantharuban Sivalingam : CASSCF convergence/infrastructure, NEVPT2 and variants, FIC-MRCI
   Bernardo de Souza      : ESD, SOC TD-DFT
   Georgi Stoychev        : AutoAux, RI-MP2 NMR, DLPNO-MP2 response, X2C
   Van Anh Tran           : RI-MP2 g-tensors
   Willem Van den Heuvel  : Paramagnetic NMR
   Zikuan Wang            : NOTCH, Electric field optimization 
   Frank Wennmohs         : Technical directorship and infrastructure
   Hang Xu                : AUTO-CI-Response properties 


 We gratefully acknowledge several colleagues who have allowed us to
 interface, adapt or use parts of their codes:
   Stefan Grimme, W. Hujo, H. Kruse, P. Pracht,  : VdW corrections, initial TS optimization,
                  C. Bannwarth, S. Ehlert,         DFT functionals, gCP, sTDA/sTD-DF
                  L. Wittmann, M. Mueller
   Ed Valeev, F. Pavosevic, A. Kumar             : LibInt (2-el integral package), F12 methods
   Garnet Chan, S. Sharma, J. Yang, R. Olivares  : DMRG
   Ulf Ekstrom                                   : XCFun DFT Library
   Mihaly Kallay                                 : mrcc  (arbitrary order and MRCC methods)
   Frank Weinhold                                : gennbo (NPA and NBO analysis)
   Simon Mueller                                 : openCOSMO-RS
   Christopher J. Cramer and Donald G. Truhlar   : smd solvation model
   Lars Goerigk                                  : TD-DFT with DH, B97 family of functionals
   V. Asgeirsson, H. Jonsson                     : NEB implementation
   FAccTs GmbH                                   : IRC, NEB, NEB-TS, DLPNO-Multilevel, CI-OPT
                                                   MM, QMMM, 2- and 3-layer-ONIOM, Crystal-QMMM,
                                                   LR-CPCM, SF, NACMEs, symmetry and pop. for TD-DFT,
                                                   nearIR, NL-DFT gradient (VV10), updates on ESD,
                                                   ML-optimized integration grids, MBIS, APM,
                                                   GOAT, DOCKER, SOLVATOR, interface openCOSMO-RS
   S Lehtola, MJT Oliveira, MAL Marques          : LibXC Library
   Liviu Ungur et al                             : ANISO software


 Your calculation uses the libint2 library for the computation of 2-el integrals
 For citations please refer to: http://libint.valeyev.net

 Your ORCA version has been built with support for libXC version: 6.2.2
 For citations please refer to: https://libxc.gitlab.io

 This ORCA versions uses:
   CBLAS   interface :  Fast vector & matrix operations
   LAPACKE interface :  Fast linear algebra routines
   SCALAPACK package :  Parallel linear algebra routines
   Shared memory     :  Shared parallel matrices
   BLAS/LAPACK       :  OpenBLAS 0.3.27  USE64BITINT DYNAMIC_ARCH NO_AFFINITY Zen SINGLE_THREADED
        Core in use  :  Zen
   Copyright (c) 2011-2014, The OpenBLAS Project


NOTE: MaxCore=8000 MB was set to SCF,MP2,MDCI,CIPSI,MRCI and CIS
      => If you want to overwrite this, your respective input block should be placed after the MaxCore statement
Your calculation utilizes the atom-pairwise dispersion correction
based on EEQ partial charges (D4)


================================================================================

----- Orbital basis set information -----
Your calculation utilizes the basis: pcJ-0
   F. Jensen, Theor. Chem. Acc. 126, 371 (2010).

----- AuxJ basis set information -----
Your calculation utilizes the auxiliary basis: def2/J
   F. Weigend, Phys. Chem. Chem. Phys. 8, 1057 (2006).

================================================================================
                                        WARNINGS
                       Please study these warnings very carefully!
================================================================================

WARNING: Old DensityContainer found on disk!
         Will remove this file - 
         If you want to keep old densities, please start your calculation with a different basename. 


================================================================================
                                       INPUT FILE
================================================================================
NAME = inpJ
|  1> ! pbe0
|  2> ! D4
|  3> ! pcJ-0
|  4> ! def2/J RIJCOSX
|  5> ! DEFGRID2
|  6> ! scfconv7
|  7> ! smallprint printgap noloewdin
|  8> ! NOSOSCF
|  9> %MaxCore 8000
| 10> %output
| 11>        print[P_BondOrder_M] 1
| 12>        print[P_Mayer] 1
| 13>        print[P_basis] 2
| 14> end
| 15> %pal
| 16>     nprocs 4
| 17> end
| 18> ! CPCM(chloroform)
| 19> *xyz 0 1
| 20> C   -4.9560199800   0.2531921300  -0.5282765900
| 21> C   -6.4098534400  -0.1361937700  -0.6543092600
| 22> C   -7.2962544100   0.8460520100   0.1224831500
| 23> H   -6.5716134200  -1.1569165000  -0.2894755600
| 24> H   -6.7152719300  -0.1012180900  -1.7105742800
| 25> C   -4.6750516200   1.6523903000  -0.9203821700
| 26> C   -5.5840943200   2.6756786800  -0.2760487800
| 27> C   -7.0625492800   2.2736682000  -0.3744756200
| 28> H   -5.4223635500   3.6615043900  -0.7249327200
| 29> H   -5.3121873100   2.7584050800   0.7872850300
| 30> H   -7.3906058500   2.3326777200  -1.4211978200
| 31> H   -7.6808489300   2.9689202700   0.2051372400
| 32> O   -7.0627830800   0.7304932400   1.5360027100
| 33> H   -8.3505819500   0.5776631900  -0.0185244100
| 34> C   -4.0383798100  -0.6087815100  -0.0292337200
| 35> C   -3.7266355400   1.9885228400  -1.8014638200
| 36> H   -3.0951838400   1.2362133400  -2.2666734600
| 37> H   -3.5678009300   3.0266495600  -2.0839201900
| 38> C   -2.6479211800  -0.3144676900   0.2304980100
| 39> H   -4.3996028200  -1.6050112200   0.2233766300
| 40> C   -1.7031001800  -1.1900377900   0.6345105500
| 41> H   -2.3500703000   0.7222098100   0.0900775100
| 42> C   -1.9100501700  -2.6659710600   0.8630011600
| 43> C   -0.9144854800  -3.5136669000   0.0470027000
| 44> H   -2.9324239800  -2.9824941200   0.6390094700
| 45> H   -1.7367274300  -2.8691190600   1.9318175600
| 46> C    0.5405140500  -3.0611742900   0.2327123800
| 47> H   -1.1866210000  -3.4615892700  -1.0147855300
| 48> H   -1.0124071700  -4.5655889100   0.3421246600
| 49> C    0.7140402000  -1.5625516200  -0.0512249900
| 50> H    1.1857267300  -3.6664296700  -0.4127051200
| 51> H    0.8514398300  -3.2552334700   1.2703112700
| 52> C   -0.2795249300  -0.7931321200   0.8774801500
| 53> H   -0.0282220900  -1.1392809100   1.8969838200
| 54> C    0.1632557000   0.6632721100   0.7734723400
| 55> H   -6.1079456600   0.6441628600   1.6687518200
| 56> C    1.7041269900   0.5672833700   0.6561962000
| 57> H   -0.1623275500   1.2546648100   1.6357044100
| 58> H   -0.2592318300   1.1361244600  -0.1202407500
| 59> C    2.0546741000  -0.9323224600   0.4179708700
| 60> H    2.2084612800   0.9426194200   1.5521851800
| 61> H    2.0727137900   1.1737555800  -0.1794681800
| 62> H    2.2927414400  -1.3969792600   1.3887702200
| 63> C    3.3028027300  -1.0832813000  -0.4768547300
| 64> C    0.4452806500  -1.2457956600  -1.5280832700
| 65> H    0.6675489900  -0.2001700300  -1.7648433500
| 66> H   -0.6018147100  -1.4239757000  -1.7920806400
| 67> H    1.0674869400  -1.8722403800  -2.1765486000
| 68> H    3.0980281900  -0.5853294700  -1.4361209400
| 69> C    3.6907637200  -2.5436675500  -0.7498237500
| 70> C    4.4615304400  -0.3776498800   0.1768228000
| 71> C    5.0792336600   0.6960448900  -0.3143893400
| 72> H    4.7875536000  -0.8096668300   1.1262389400
| 73> H    4.7227431200   1.0974761000  -1.2647317700
| 74> C    6.2096627700   1.4550714800   0.3372419900
| 75> C    6.9853752900   0.6097638800   1.3517302500
| 76> C    5.6858693100   2.7748099400   0.9711150900
| 77> H    6.9068174700   1.7523320000  -0.4643282700
| 78> H    5.0050374600   2.4821817000   1.7867033200
| 79> C    4.8933477100   3.6180972400  -0.0325648800
| 80> C    6.8238230200   3.6131855300   1.5612765700
| 81> H    6.3930396100   0.4342325200   2.2577498800
| 82> H    7.9133141600   1.1039561200   1.6505370500
| 83> H    7.2457858300  -0.3641073900   0.9246857400
| 84> H    3.9926665800   3.1030621600  -0.3792979300
| 85> H    5.5094361200   3.8558025600  -0.9097045400
| 86> H    4.5835234800   4.5643879400   0.4241013200
| 87> H    7.3326803700   3.1063878000   2.3859260400
| 88> H    6.4374035400   4.5641122000   1.9443275200
| 89> H    7.5703131200   3.8417466700   0.7892953400
| 90> H    2.9482161000  -3.0545224000  -1.3679678700
| 91> H    3.7943733200  -3.1012329900   0.1892572200
| 92> H    4.6510155500  -2.5869819800  -1.2752299300
| 93> *
| 94> %eprnmr
| 95>  Nuclei = all C { ssfc }
| 96>  SpinSpinRThresh 8.0
| 97> end
| 98> 
| 99>                          ****END OF INPUT****
================================================================================

                       ****************************
                       * Single Point Calculation *
                       ****************************

---------------------------------
CARTESIAN COORDINATES (ANGSTROEM)
---------------------------------
  C     -4.956020    0.253192   -0.528277
  C     -6.409853   -0.136194   -0.654309
  C     -7.296254    0.846052    0.122483
  H     -6.571613   -1.156916   -0.289476
  H     -6.715272   -0.101218   -1.710574
  C     -4.675052    1.652390   -0.920382
  C     -5.584094    2.675679   -0.276049
  C     -7.062549    2.273668   -0.374476
  H     -5.422364    3.661504   -0.724933
  H     -5.312187    2.758405    0.787285
  H     -7.390606    2.332678   -1.421198
  H     -7.680849    2.968920    0.205137
  O     -7.062783    0.730493    1.536003
  H     -8.350582    0.577663   -0.018524
  C     -4.038380   -0.608782   -0.029234
  C     -3.726636    1.988523   -1.801464
  H     -3.095184    1.236213   -2.266673
  H     -3.567801    3.026650   -2.083920
  C     -2.647921   -0.314468    0.230498
  H     -4.399603   -1.605011    0.223377
  C     -1.703100   -1.190038    0.634511
  H     -2.350070    0.722210    0.090078
  C     -1.910050   -2.665971    0.863001
  C     -0.914485   -3.513667    0.047003
  H     -2.932424   -2.982494    0.639009
  H     -1.736727   -2.869119    1.931818
  C      0.540514   -3.061174    0.232712
  H     -1.186621   -3.461589   -1.014786
  H     -1.012407   -4.565589    0.342125
  C      0.714040   -1.562552   -0.051225
  H      1.185727   -3.666430   -0.412705
  H      0.851440   -3.255233    1.270311
  C     -0.279525   -0.793132    0.877480
  H     -0.028222   -1.139281    1.896984
  C      0.163256    0.663272    0.773472
  H     -6.107946    0.644163    1.668752
  C      1.704127    0.567283    0.656196
  H     -0.162328    1.254665    1.635704
  H     -0.259232    1.136124   -0.120241
  C      2.054674   -0.932322    0.417971
  H      2.208461    0.942619    1.552185
  H      2.072714    1.173756   -0.179468
  H      2.292741   -1.396979    1.388770
  C      3.302803   -1.083281   -0.476855
  C      0.445281   -1.245796   -1.528083
  H      0.667549   -0.200170   -1.764843
  H     -0.601815   -1.423976   -1.792081
  H      1.067487   -1.872240   -2.176549
  H      3.098028   -0.585329   -1.436121
  C      3.690764   -2.543668   -0.749824
  C      4.461530   -0.377650    0.176823
  C      5.079234    0.696045   -0.314389
  H      4.787554   -0.809667    1.126239
  H      4.722743    1.097476   -1.264732
  C      6.209663    1.455071    0.337242
  C      6.985375    0.609764    1.351730
  C      5.685869    2.774810    0.971115
  H      6.906817    1.752332   -0.464328
  H      5.005037    2.482182    1.786703
  C      4.893348    3.618097   -0.032565
  C      6.823823    3.613186    1.561277
  H      6.393040    0.434233    2.257750
  H      7.913314    1.103956    1.650537
  H      7.245786   -0.364107    0.924686
  H      3.992667    3.103062   -0.379298
  H      5.509436    3.855803   -0.909705
  H      4.583523    4.564388    0.424101
  H      7.332680    3.106388    2.385926
  H      6.437404    4.564112    1.944328
  H      7.570313    3.841747    0.789295
  H      2.948216   -3.054522   -1.367968
  H      3.794373   -3.101233    0.189257
  H      4.651016   -2.586982   -1.275230

----------------------------
CARTESIAN COORDINATES (A.U.)
----------------------------
  NO LB      ZA    FRAG     MASS         X           Y           Z
   0 C     6.0000    0    12.011   -9.365520    0.478464   -0.998298
   1 C     6.0000    0    12.011  -12.112868   -0.257369   -1.236465
   2 C     6.0000    0    12.011  -13.787923    1.598807    0.231460
   3 H     1.0000    0     1.008  -12.418550   -2.186255   -0.547030
   4 H     1.0000    0     1.008  -12.690025   -0.191274   -3.232517
   5 C     6.0000    0    12.011   -8.834567    3.122565   -1.739270
   6 C     6.0000    0    12.011  -10.552409    5.056300   -0.521657
   7 C     6.0000    0    12.011  -13.346284    4.296610   -0.707656
   8 H     1.0000    0     1.008  -10.246782    6.919241   -1.369924
   9 H     1.0000    0     1.008  -10.038579    5.212630    1.487753
  10 H     1.0000    0     1.008  -13.966221    4.408122   -2.685675
  11 H     1.0000    0     1.008  -14.514701    5.610446    0.387653
  12 O     8.0000    0    15.999  -13.346726    1.380432    2.902624
  13 H     1.0000    0     1.008  -15.780313    1.091625   -0.035006
  14 C     6.0000    0    12.011   -7.631432   -1.150430   -0.055244
  15 C     6.0000    0    12.011   -7.042321    3.757764   -3.404273
  16 H     1.0000    0     1.008   -5.849050    2.336105   -4.283392
  17 H     1.0000    0     1.008   -6.742167    5.719539   -3.938038
  18 C     6.0000    0    12.011   -5.003846   -0.594258    0.435578
  19 H     1.0000    0     1.008   -8.314044   -3.033032    0.422121
  20 C     6.0000    0    12.011   -3.218393   -2.248846    1.199051
  21 H     1.0000    0     1.008   -4.440989    1.364779    0.170222
  22 C     6.0000    0    12.011   -3.609472   -5.037955    1.630836
  23 C     6.0000    0    12.011   -1.728127   -6.639868    0.088822
  24 H     1.0000    0     1.008   -5.541478   -5.636097    1.207553
  25 H     1.0000    0     1.008   -3.281939   -5.421849    3.650606
  26 C     6.0000    0    12.011    1.021424   -5.784781    0.439763
  27 H     1.0000    0     1.008   -2.242389   -6.541456   -1.917667
  28 H     1.0000    0     1.008   -1.913172   -8.627713    0.646522
  29 C     6.0000    0    12.011    1.349340   -2.952795   -0.096801
  30 H     1.0000    0     1.008    2.240699   -6.928548   -0.779900
  31 H     1.0000    0     1.008    1.608988   -6.151500    2.400540
  32 C     6.0000    0    12.011   -0.528226   -1.498802    1.658197
  33 H     1.0000    0     1.008   -0.053332   -2.152929    3.584780
  34 C     6.0000    0    12.011    0.308509    1.253403    1.461651
  35 H     1.0000    0     1.008  -11.542345    1.217291    3.153484
  36 C     6.0000    0    12.011    3.220333    1.072010    1.240031
  37 H     1.0000    0     1.008   -0.306755    2.370973    3.091033
  38 H     1.0000    0     1.008   -0.489877    2.146964   -0.227222
  39 C     6.0000    0    12.011    3.882771   -1.761834    0.789850
  40 H     1.0000    0     1.008    4.173387    1.781293    2.933205
  41 H     1.0000    0     1.008    3.916861    2.218077   -0.339146
  42 H     1.0000    0     1.008    4.332653   -2.639908    2.624395
  43 C     6.0000    0    12.011    6.241393   -2.047105   -0.901125
  44 C     6.0000    0    12.011    0.841458   -2.354213   -2.887659
  45 H     1.0000    0     1.008    1.261485   -0.378267   -3.335071
  46 H     1.0000    0     1.008   -1.137265   -2.690924   -3.386542
  47 H     1.0000    0     1.008    2.017258   -3.538022   -4.113081
  48 H     1.0000    0     1.008    5.854425   -1.106112   -2.713875
  49 C     6.0000    0    12.011    6.974533   -4.806835   -1.416962
  50 C     6.0000    0    12.011    8.431071   -0.713655    0.334147
  51 C     6.0000    0    12.011    9.598361    1.315334   -0.594110
  52 H     1.0000    0     1.008    9.047165   -1.530049    2.128283
  53 H     1.0000    0     1.008    8.924691    2.073929   -2.389997
  54 C     6.0000    0    12.011   11.734562    2.749687    0.637295
  55 C     6.0000    0    12.011   13.200446    1.152287    2.554400
  56 C     6.0000    0    12.011   10.744736    5.243631    1.835142
  57 H     1.0000    0     1.008   13.051993    3.311428   -0.877453
  58 H     1.0000    0     1.008    9.458150    4.690644    3.376380
  59 C     6.0000    0    12.011    9.247087    6.837213   -0.061539
  60 C     6.0000    0    12.011   12.895157    6.827931    2.950385
  61 H     1.0000    0     1.008   12.081094    0.820581    4.266529
  62 H     1.0000    0     1.008   14.953997    2.086175    3.119063
  63 H     1.0000    0     1.008   13.692551   -0.688063    1.747403
  64 H     1.0000    0     1.008    7.545046    5.863938   -0.716769
  65 H     1.0000    0     1.008   10.411325    7.286411   -1.719092
  66 H     1.0000    0     1.008    8.661604    8.625443    0.801435
  67 H     1.0000    0     1.008   13.856758    5.870222    4.508747
  68 H     1.0000    0     1.008   12.164930    8.624922    3.674247
  69 H     1.0000    0     1.008   14.305819    7.259849    1.491552
  70 H     1.0000    0     1.008    5.571321   -5.772211   -2.585085
  71 H     1.0000    0     1.008    7.170326   -5.860481    0.357644
  72 H     1.0000    0     1.008    8.789146   -4.888687   -2.409835

--------------------------------
INTERNAL COORDINATES (ANGSTROEM)
--------------------------------
 C      0   0   0     0.000000000000     0.00000000     0.00000000
 C      1   0   0     1.510343451815     0.00000000     0.00000000
 C      2   1   0     1.534248969424   110.41528592     0.00000000
 H      2   1   3     1.095967522933   110.75713157   237.87105706
 H      2   1   3     1.100090698398   109.82618632   118.72251589
 C      1   2   3     1.480015379690   113.85137709   305.89010151
 C      6   1   2     1.512826247966   114.36574930    50.02005661
 C      3   2   1     1.529599324274   110.16719064    56.86719991
 H      7   6   1     1.095219596269   110.21533938   188.68119253
 H      7   6   1     1.100661560532   108.29229776    71.98514298
 H      8   3   2     1.098512904132   108.30558609    64.49123484
 H      8   3   2     1.096184731469   109.51115965   181.48735824
 O      3   2   1     1.437323984966   110.64633907   292.85937737
 H      3   2   1     1.097051617874   109.48383867   177.31198914
 C      1   2   3     1.354291631721   121.25749967   122.57830078
 C      6   1   2     1.337453931624   123.14441621   232.01358854
 H     16   6   1     1.086793836186   121.33464393   358.94616090
 H     16   6   1     1.087527986337   120.96894574   178.36085887
 C     15   1   2     1.444803238491   126.06360726   184.95921275
 H     15   1   2     1.089388675803   116.28394395     3.06481221
 C     19  15   1     1.350013279391   126.52825413   185.21072639
 H     19  15   1     1.087719312389   115.75153474     5.76346236
 C     21  19  15     1.507784890066   125.74333815     1.59973609
 C     23  21  19     1.541295161820   111.68388219   125.17561576
 H     23  21  19     1.093438307393   112.37398942     1.46255182
 H     23  21  19     1.101670721683   107.81424340   243.78611258
 C     24  23  21     1.535011817430   112.71086055    50.69612374
 H     24  23  21     1.097344096516   109.02506349   288.55143375
 H     24  23  21     1.096916379570   109.10664783   172.63635435
 C     27  24  23     1.535122686255   111.87238405   306.55009130
 H     27  24  23     1.095078639531   108.92012245   183.03333246
 H     27  24  23     1.100429580909   109.26344973    66.51187387
 C     21  19  15     1.497709861694   122.81256575   179.88148874
 H     33  21  19     1.105603832914   106.41971901   126.97775797
 C     33  21  19     1.525773768291   121.18059651     4.38140389
 H     13   3   2     0.967879000366   107.59582012    41.87202197
 C     35  33  21     1.548306127213   103.57943243   196.91182318
 H     35  33  21     1.095077130083   112.05764639    74.92842928
 H     35  33  21     1.095813919032   110.83013214   315.31570360
 C     30  27  24     1.553908878598   115.95137592   166.34030212
 H     37  35  33     1.094543959273   112.04253629   249.39215253
 H     37  35  33     1.096357481225   110.97849999   130.83574379
 H     40  30  27     1.102285524772   106.33748939   321.26779002
 C     40  30  27     1.543154724198   118.88425451    82.10060901
 C     30  27  24     1.534169616801   111.08836353   294.25491815
 H     45  30  27     1.094893377713   111.70182030   185.97158755
 H     45  30  27     1.094463992535   111.48071748    65.92187191
 H     45  30  27     1.095482057700   110.62596547   305.84124752
 H     44  40  30     1.100036498886   108.10849720    62.01970705
 C     44  40  30     1.535497904535   113.60822589   301.13820468
 C     44  40  30     1.505941539383   108.95318635   179.19790825
 C     51  44  40     1.332541591699   125.04446566   245.31646312
 H     51  44  40     1.092849830872   114.92349509    65.13328071
 H     52  51  44     1.091505041550   117.76797963   359.86390012
 C     52  51  44     1.509508107729   126.38201573   177.70458514
 C     55  52  51     1.531489889611   112.81323502    22.80025649
 C     55  52  51     1.554948326616   110.51687580   257.00503687
 H     55  52  51     1.103133434449   107.16306855   141.60685858
 H     57  55  52     1.101974344408   106.52573627    65.21543767
 C     57  55  52     1.531860776633   111.98783395   307.16951878
 C     57  55  52     1.531699333579   111.79947059   183.72172536
 H     56  55  52     1.096605848101   111.22616669   288.22392130
 H     56  55  52     1.092969359250   111.19604460   168.11357157
 H     56  55  52     1.094808619529   110.67537018    48.23411394
 H     60  57  55     1.093943069602   111.99047910    62.90208461
 H     60  57  55     1.097926560038   110.62933169   302.23279019
 H     60  57  55     1.095445644760   110.40955315   183.05706258
 H     61  57  55     1.093538517910   112.49487197   296.64898956
 H     61  57  55     1.095586407609   110.34996600   176.44675558
 H     61  57  55     1.097926538339   110.37478895    57.45299811
 H     50  44  40     1.092909785310   111.92821359    67.49245063
 H     50  44  40     1.097035659088   110.79785807   306.74536706
 H     50  44  40     1.095450305056   110.14204006   187.41265573

---------------------------
INTERNAL COORDINATES (A.U.)
---------------------------
 C      0   0   0     0.000000000000     0.00000000     0.00000000
 C      1   0   0     2.854135492092     0.00000000     0.00000000
 C      2   1   0     2.899310373462   110.41528592     0.00000000
 H      2   1   3     2.071078470015   110.75713157   237.87105706
 H      2   1   3     2.078870142446   109.82618632   118.72251589
 C      1   2   3     2.796823741606   113.85137709   305.89010151
 C      6   1   2     2.858827296864   114.36574930    50.02005661
 C      3   2   1     2.890523817508   110.16719064    56.86719991
 H      7   6   1     2.069665093452   110.21533938   188.68119253
 H      7   6   1     2.079948915540   108.29229776    71.98514298
 H      8   3   2     2.075888543387   108.30558609    64.49123484
 H      8   3   2     2.071488934663   109.51115965   181.48735824
 O      3   2   1     2.716148697302   110.64633907   292.85937737
 H      3   2   1     2.073127112558   109.48383867   177.31198914
 C      1   2   3     2.559240289415   121.25749967   122.57830078
 C      6   1   2     2.527421647505   123.14441621   232.01358854
 H     16   6   1     2.053742714425   121.33464393   358.94616090
 H     16   6   1     2.055130057151   120.96894574   178.36085887
 C     15   1   2     2.730282438150   126.06360726   184.95921275
 H     15   1   2     2.058646250662   116.28394395     3.06481221
 C     19  15   1     2.551155375206   126.52825413   185.21072639
 H     19  15   1     2.055491610992   115.75153474     5.76346236
 C     21  19  15     2.849300511090   125.74333815     1.59973609
 C     23  21  19     2.912625747378   111.68388219   125.17561576
 H     23  21  19     2.066298945311   112.37398942     1.46255182
 H     23  21  19     2.081855953741   107.81424340   243.78611258
 C     24  23  21     2.900751947276   112.71086055    50.69612374
 H     24  23  21     2.073679817091   109.02506349   288.55143375
 H     24  23  21     2.072871549200   109.10664783   172.63635435
 C     27  24  23     2.900961458991   111.87238405   306.55009130
 H     27  24  23     2.069398723821   108.92012245   183.03333246
 H     27  24  23     2.079510537584   109.26344973    66.51187387
 C     21  19  15     2.830261466674   122.81256575   179.88148874
 H     33  21  19     2.089288456821   106.41971901   126.97775797
 C     33  21  19     2.883294564392   121.18059651     4.38140389
 H     13   3   2     1.829026241465   107.59582012    41.87202197
 C     35  33  21     2.925874551905   103.57943243   196.91182318
 H     35  33  21     2.069395871377   112.05764639    74.92842928
 H     35  33  21     2.070788200709   110.83013214   315.31570360
 C     30  27  24     2.936462217618   115.95137592   166.34030212
 H     37  35  33     2.068388324564   112.04253629   249.39215253
 H     37  35  33     2.071815384390   110.97849999   130.83574379
 H     40  30  27     2.083017763204   106.33748939   321.26779002
 C     40  30  27     2.916139811001   118.88425451    82.10060901
 C     30  27  24     2.899160418737   111.08836353   294.25491815
 H     45  30  27     2.069048629722   111.70182030   185.97158755
 H     45  30  27     2.068237209328   111.48071748    65.92187191
 H     45  30  27     2.070161073678   110.62596547   305.84124752
 H     44  40  30     2.078767720211   108.10849720    62.01970705
 C     44  40  30     2.901670518781   113.60822589   301.13820468
 C     44  40  30     2.845817083130   108.95318635   179.19790825
 C     51  44  40     2.518138670370   125.04446566   245.31646312
 H     51  44  40     2.065186885850   114.92349509    65.13328071
 H     52  51  44     2.062645602325   117.76797963   359.86390012
 C     52  51  44     2.852556920542   126.38201573   177.70458514
 C     55  52  51     2.894096468234   112.81323502    22.80025649
 C     55  52  51     2.938426489703   110.51687580   257.00503687
 H     55  52  51     2.084620080281   107.16306855   141.60685858
 H     57  55  52     2.082429717539   106.52573627    65.21543767
 C     57  55  52     2.894797343133   111.98783395   307.16951878
 C     57  55  52     2.894492259974   111.79947059   183.72172536
 H     56  55  52     2.072284729768   111.22616669   288.22392130
 H     56  55  52     2.065412761750   111.19604460   168.11357157
 H     56  55  52     2.068888459967   110.67537018    48.23411394
 H     60  57  55     2.067252807650   111.99047910    62.90208461
 H     60  57  55     2.074780513631   110.62933169   302.23279019
 H     60  57  55     2.070092263194   110.40955315   183.05706258
 H     61  57  55     2.066488315745   112.49487197   296.64898956
 H     61  57  55     2.070358266427   110.34996600   176.44675558
 H     61  57  55     2.074780472624   110.37478895    57.45299811
 H     50  44  40     2.065300183319   111.92821359    67.49245063
 H     50  44  40     2.073096954822   110.79785807   306.74536706
 H     50  44  40     2.070101069876   110.14204006   187.41265573

---------------------
BASIS SET INFORMATION
---------------------
There are 3 groups of distinct atoms

 Group   1 Type C   : 7s4p contracted to 4s3p pattern {4111/211}
 Group   2 Type H   : 5s contracted to 3s pattern {311}
 Group   3 Type O   : 7s4p contracted to 4s3p pattern {4111/211}

Atom   0C    basis set group =>   1
Atom   1C    basis set group =>   1
Atom   2C    basis set group =>   1
Atom   3H    basis set group =>   2
Atom   4H    basis set group =>   2
Atom   5C    basis set group =>   1
Atom   6C    basis set group =>   1
Atom   7C    basis set group =>   1
Atom   8H    basis set group =>   2
Atom   9H    basis set group =>   2
Atom  10H    basis set group =>   2
Atom  11H    basis set group =>   2
Atom  12O    basis set group =>   3
Atom  13H    basis set group =>   2
Atom  14C    basis set group =>   1
Atom  15C    basis set group =>   1
Atom  16H    basis set group =>   2
Atom  17H    basis set group =>   2
Atom  18C    basis set group =>   1
Atom  19H    basis set group =>   2
Atom  20C    basis set group =>   1
Atom  21H    basis set group =>   2
Atom  22C    basis set group =>   1
Atom  23C    basis set group =>   1
Atom  24H    basis set group =>   2
Atom  25H    basis set group =>   2
Atom  26C    basis set group =>   1
Atom  27H    basis set group =>   2
Atom  28H    basis set group =>   2
Atom  29C    basis set group =>   1
Atom  30H    basis set group =>   2
Atom  31H    basis set group =>   2
Atom  32C    basis set group =>   1
Atom  33H    basis set group =>   2
Atom  34C    basis set group =>   1
Atom  35H    basis set group =>   2
Atom  36C    basis set group =>   1
Atom  37H    basis set group =>   2
Atom  38H    basis set group =>   2
Atom  39C    basis set group =>   1
Atom  40H    basis set group =>   2
Atom  41H    basis set group =>   2
Atom  42H    basis set group =>   2
Atom  43C    basis set group =>   1
Atom  44C    basis set group =>   1
Atom  45H    basis set group =>   2
Atom  46H    basis set group =>   2
Atom  47H    basis set group =>   2
Atom  48H    basis set group =>   2
Atom  49C    basis set group =>   1
Atom  50C    basis set group =>   1
Atom  51C    basis set group =>   1
Atom  52H    basis set group =>   2
Atom  53H    basis set group =>   2
Atom  54C    basis set group =>   1
Atom  55C    basis set group =>   1
Atom  56C    basis set group =>   1
Atom  57H    basis set group =>   2
Atom  58H    basis set group =>   2
Atom  59C    basis set group =>   1
Atom  60C    basis set group =>   1
Atom  61H    basis set group =>   2
Atom  62H    basis set group =>   2
Atom  63H    basis set group =>   2
Atom  64H    basis set group =>   2
Atom  65H    basis set group =>   2
Atom  66H    basis set group =>   2
Atom  67H    basis set group =>   2
Atom  68H    basis set group =>   2
Atom  69H    basis set group =>   2
Atom  70H    basis set group =>   2
Atom  71H    basis set group =>   2
Atom  72H    basis set group =>   2

-------------------------
BASIS SET IN INPUT FORMAT
-------------------------

 # Basis set for element : H 
 NewGTO H 
 S 3 
   1    1357.7500000000      0.0012928364
   2      54.3100000000      0.0588280685
   3       4.3448000000      0.9761499708
 S 1 
   1       0.6604910000      1.0000000000
 S 1 
   1       0.1366870000      1.0000000000
  end;

 # Basis set for element : C 
 NewGTO C 
 S 4 
   1  139534.0000000000      0.0001655246
   2    5581.3600000000      0.0074486101
   3     446.5090000000      0.1285821065
   4      67.4620000000      0.9218029311
 S 1 
   1      15.0674000000      1.0000000000
 S 1 
   1       3.9387600000      1.0000000000
 S 1 
   1       0.2999150000      1.0000000000
 P 2 
   1      28.3900000000      0.0816325586
   2       4.3676900000      0.9660360576
 P 1 
   1       0.8698170000      1.0000000000
 P 1 
   1       0.1889340000      1.0000000000
  end;

 # Basis set for element : O 
 NewGTO O 
 S 4 
   1  253789.0000000000      0.0001641076
   2   10151.6000000000      0.0074010921
   3     812.1250000000      0.1277711901
   4     122.6930000000      0.9223372164
 S 1 
   1      27.5608000000      1.0000000000
 S 1 
   1       7.3172600000      1.0000000000
 S 1 
   1       0.5792400000      1.0000000000
 P 2 
   1      53.4157000000      0.0793786106
   2       8.2177900000      0.9670506337
 P 1 
   1       1.6754400000      1.0000000000
 P 1 
   1       0.3506720000      1.0000000000
  end;

---------------------------------
AUXILIARY/J BASIS SET INFORMATION
---------------------------------
There are 3 groups of distinct atoms

 Group   1 Type C   : 12s5p4d2f1g contracted to 6s4p3d1f1g pattern {711111/2111/211/2/1}
 Group   2 Type H   : 5s2p1d contracted to 3s1p1d pattern {311/2/1}
 Group   3 Type O   : 12s5p4d2f1g contracted to 6s4p3d1f1g pattern {711111/2111/211/2/1}

Atom   0C    basis set group =>   1
Atom   1C    basis set group =>   1
Atom   2C    basis set group =>   1
Atom   3H    basis set group =>   2
Atom   4H    basis set group =>   2
Atom   5C    basis set group =>   1
Atom   6C    basis set group =>   1
Atom   7C    basis set group =>   1
Atom   8H    basis set group =>   2
Atom   9H    basis set group =>   2
Atom  10H    basis set group =>   2
Atom  11H    basis set group =>   2
Atom  12O    basis set group =>   3
Atom  13H    basis set group =>   2
Atom  14C    basis set group =>   1
Atom  15C    basis set group =>   1
Atom  16H    basis set group =>   2
Atom  17H    basis set group =>   2
Atom  18C    basis set group =>   1
Atom  19H    basis set group =>   2
Atom  20C    basis set group =>   1
Atom  21H    basis set group =>   2
Atom  22C    basis set group =>   1
Atom  23C    basis set group =>   1
Atom  24H    basis set group =>   2
Atom  25H    basis set group =>   2
Atom  26C    basis set group =>   1
Atom  27H    basis set group =>   2
Atom  28H    basis set group =>   2
Atom  29C    basis set group =>   1
Atom  30H    basis set group =>   2
Atom  31H    basis set group =>   2
Atom  32C    basis set group =>   1
Atom  33H    basis set group =>   2
Atom  34C    basis set group =>   1
Atom  35H    basis set group =>   2
Atom  36C    basis set group =>   1
Atom  37H    basis set group =>   2
Atom  38H    basis set group =>   2
Atom  39C    basis set group =>   1
Atom  40H    basis set group =>   2
Atom  41H    basis set group =>   2
Atom  42H    basis set group =>   2
Atom  43C    basis set group =>   1
Atom  44C    basis set group =>   1
Atom  45H    basis set group =>   2
Atom  46H    basis set group =>   2
Atom  47H    basis set group =>   2
Atom  48H    basis set group =>   2
Atom  49C    basis set group =>   1
Atom  50C    basis set group =>   1
Atom  51C    basis set group =>   1
Atom  52H    basis set group =>   2
Atom  53H    basis set group =>   2
Atom  54C    basis set group =>   1
Atom  55C    basis set group =>   1
Atom  56C    basis set group =>   1
Atom  57H    basis set group =>   2
Atom  58H    basis set group =>   2
Atom  59C    basis set group =>   1
Atom  60C    basis set group =>   1
Atom  61H    basis set group =>   2
Atom  62H    basis set group =>   2
Atom  63H    basis set group =>   2
Atom  64H    basis set group =>   2
Atom  65H    basis set group =>   2
Atom  66H    basis set group =>   2
Atom  67H    basis set group =>   2
Atom  68H    basis set group =>   2
Atom  69H    basis set group =>   2
Atom  70H    basis set group =>   2
Atom  71H    basis set group =>   2
Atom  72H    basis set group =>   2

-------------------------------------
AUXILIARY/J BASIS SET IN INPUT FORMAT
-------------------------------------

 # Auxiliary/J basis set for element : H 
 NewAuxJGTO H 
 S 3 
   1      15.6752927000      0.1007184237
   2       3.6063578000      0.3404257499
   3       1.2080016000      0.6491996172
 S 1 
   1       0.4726794000      1.0000000000
 S 1 
   1       0.2018100000      1.0000000000
 P 2 
   1       2.0281365000      0.5596620919
   2       0.5358730000      0.5596620919
 D 1 
   1       2.2165124000      1.0000000000
  end;

 # Auxiliary/J basis set for element : C 
 NewAuxJGTO C 
 S 7 
   1    1861.0916331000      0.0134602335
   2     642.9939764000      0.0299160374
   3     235.1105725000      0.1008649584
   4      90.7028894000      0.2370970548
   5      36.7794552000      0.3924037254
   6      15.6046273000      0.3195862154
   7       6.8907294000      0.0530104441
 S 1 
   1       3.1478850000     -1.0000000000
 S 1 
   1       1.4777287000      1.0000000000
 S 1 
   1       0.7076466000      1.0000000000
 S 1 
   1       0.3430122000      1.0000000000
 S 1 
   1       0.1669453000      1.0000000000
 P 2 
   1      13.5472892000     -0.6769313712
   2       5.4669419000     -0.3779500978
 P 1 
   1       2.1751721000      1.0000000000
 P 1 
   1       0.8582194000      1.0000000000
 P 1 
   1       0.3376720000      1.0000000000
 D 2 
   1       5.9287253000     -0.3533329857
   2       1.9809209000     -0.7456525731
 D 1 
   1       0.8055417000     -1.0000000000
 D 1 
   1       0.3531244000     -1.0000000000
 F 2 
   1       1.6755626000      0.6311076882
   2       0.5997536000      0.4968166032
 G 1 
   1       1.0024600000     -1.0000000000
  end;

 # Auxiliary/J basis set for element : O 
 NewAuxJGTO O 
 S 7 
   1    2876.8216605000      0.0168151159
   2    1004.7443032000      0.0340137548
   3     369.7579954000      0.1194951309
   4     142.9442404000      0.2664627624
   5      57.8366425000      0.4202764046
   6      24.3864983000      0.2765077335
   7      10.6622662000      0.0057008815
 S 1 
   1       4.8070437000     -1.0000000000
 S 1 
   1       2.2210770000      1.0000000000
 S 1 
   1       1.0447795000      1.0000000000
 S 1 
   1       0.4968425000      1.0000000000
 S 1 
   1       0.2371384000      1.0000000000
 P 2 
   1      64.2613382000     -0.2731534179
   2      16.3006076000     -0.8168011598
 P 1 
   1       4.3550542000      1.0000000000
 P 1 
   1       1.2019554000      1.0000000000
 P 1 
   1       0.3354196000      1.0000000000
 D 2 
   1       9.2146611000     -0.4661230638
   2       2.8435251000     -0.6600908911
 D 1 
   1       0.9955759000     -1.0000000000
 D 1 
   1       0.3649441000     -1.0000000000
 F 2 
   1       2.6420115000      0.5931563945
   2       0.7345613000      0.5931563945
 G 1 
   1       1.3931000000     -1.0000000000
  end;


Checking for AutoStart:
The File: inpJ.gbw exists
Trying to determine its content:
     ... Fine, the file contains calculation information
     ... Fine, the calculation information was read
     ... Fine, the file contains a basis set
     ... Fine, the basis set was read
     ... Fine, the file contains a geometry
     ... Fine, the geometry was read
     ... Fine, the file contains a set of orbitals
     ... Fine, the orbitals can be read
     => possible old guess file was deleted
     => GBW file was renamed to GES file
     => GES file is set as startup file
     => Guess is set to MORead
     ... now leaving AutoStart



           ************************************************************
           *        Program running with 4 parallel MPI-processes     *
           *              working on a common directory               *
           ************************************************************
------------------------------------------------------------------------------
                             ORCA STARTUP CALCULATIONS
                           -- RI-GTO INTEGRALS CHOSEN --
------------------------------------------------------------------------------
------------------------------------------------------------------------------
                   ___                                                        
                  /   \      - P O W E R E D   B Y -                         
                 /     \                                                     
                 |  |  |   _    _      __       _____    __    __             
                 |  |  |  | |  | |    /  \     |  _  \  |  |  /  |          
                  \  \/   | |  | |   /    \    | | | |  |  | /  /          
                 / \  \   | |__| |  /  /\  \   | |_| |  |  |/  /          
                |  |  |   |  __  | /  /__\  \  |    /   |      \           
                |  |  |   | |  | | |   __   |  |    \   |  |\   \          
                \     /   | |  | | |  |  |  |  | |\  \  |  | \   \       
                 \___/    |_|  |_| |__|  |__|  |_| \__\ |__|  \__/        
                                                                              
                      - O R C A' S   B I G   F R I E N D -                    
                                      &                                       
                       - I N T E G R A L  F E E D E R -                       
                                                                              
 v1 FN, 2020, v2 2021, v3 2022-2024                                           
------------------------------------------------------------------------------


----------------------
SHARK INTEGRAL PACKAGE
----------------------

Number of atoms                             ...     73
Number of basis functions                   ...    509
Number of shells                            ...    335
Maximum angular momentum                    ...      1
Integral batch strategy                     ... SHARK/LIBINT Hybrid
RI-J (if used) integral strategy            ... SPLIT-RIJ (Revised 2003 algorithm where possible)
Printlevel                                  ...      1
Contraction scheme used                     ... SEGMENTED contraction
Prescreening option                         ... SCHWARTZ
   Thresh                                   ... 3.000e-11
   Tcut                                     ... 1.000e-12
   Tpresel                                  ... 1.000e-12 
Coulomb Range Separation                    ... NOT USED
Exchange Range Separation                   ... NOT USED
Multipole approximations                    ... NOT USED
Finite Nucleus Model                        ... NOT USED
CABS basis                                  ... NOT available
Auxiliary Coulomb fitting basis             ... AVAILABLE
   # of basis functions in Aux-J            ...   1905
   # of shells in Aux-J                     ...    655
   Maximum angular momentum in Aux-J        ...      4
Auxiliary J/K fitting basis                 ... NOT available
Auxiliary Correlation fitting basis         ... NOT available
Auxiliary 'external' fitting basis          ... NOT available

Checking pre-screening integrals            ... done (  0.0 sec) Dimension = 335
Check shell pair data                       ... done (  0.0 sec)
Shell pair information
Shell pair cut-off parameter TPreSel        ...   1.0e-12
Total number of shell pairs                 ...     56280
Shell pairs after pre-screening             ...     22023
Total number of primitive shell pairs       ...    145865
Primitive shell pairs kept                  ...     37829
          la=0 lb=0:  11067 shell pairs
          la=1 lb=0:   9072 shell pairs
          la=1 lb=1:   1884 shell pairs

Calculating one electron integrals          ... done (  0.0 sec)
Calculating RI/J V-Matrix + Cholesky decomp.... done (  0.2 sec)
Calculating Nuclear repulsion               ... done (  0.0 sec) ENN=   2800.103966251749 Eh

Diagonalization of the overlap matrix:
Smallest eigenvalue                        ... 7.557e-03
Time for diagonalization                   ...    0.027 sec
Threshold for overlap eigenvalues          ... 1.000e-07
Number of eigenvalues below threshold      ... 0
Time for construction of square roots      ...    0.014 sec
Total time needed                          ...    0.043 sec

-------------------
DFT GRID GENERATION
-------------------

General Integration Accuracy     IntAcc      ... 4.388
Radial Grid Type                 RadialGrid  ... OptM3 with GC (2021)
Angular Grid (max. ang.)         AngularGrid ... 4 (Lebedev-302)
Angular grid pruning method      GridPruning ... 4 (adaptive)
Weight generation scheme         WeightScheme... mBecke (2022)
Basis function cutoff            BFCut       ... 1.0000e-11
Integration weight cutoff        WCut        ... 1.0000e-14
Partially contracted basis set               ... off
Rotationally invariant grid construction     ... off
Angular grids for H and He will be reduced by one unit

Total number of grid points                  ...   309868
Total number of batches                      ...     4879
Average number of points per batch           ...       63
Average number of grid points per atom       ...     4245

--------------------
COSX GRID GENERATION
--------------------

GRIDX 1
-------
General Integration Accuracy     IntAcc      ... 3.816
Radial Grid Type                 RadialGrid  ... OptM3 with GC (2021)
Angular Grid (max. ang.)         AngularGrid ... 1 (Lebedev-50)
Angular grid pruning method      GridPruning ... 4 (adaptive)
Weight generation scheme         WeightScheme... mBecke (2022)
Basis function cutoff            BFCut       ... 1.0000e-11
Integration weight cutoff        WCut        ... 1.0000e-14
Partially contracted basis set               ... on
Rotationally invariant grid construction     ... off
Angular grids for H and He will be reduced by one unit

Total number of grid points                  ...    39407
Total number of batches                      ...      352
Average number of points per batch           ...      111
Average number of grid points per atom       ...      540
UseSFitting                                  ... on

GRIDX 2
-------
General Integration Accuracy     IntAcc      ... 4.020
Radial Grid Type                 RadialGrid  ... OptM3 with GC (2021)
Angular Grid (max. ang.)         AngularGrid ... 2 (Lebedev-110)
Angular grid pruning method      GridPruning ... 4 (adaptive)
Weight generation scheme         WeightScheme... mBecke (2022)
Basis function cutoff            BFCut       ... 1.0000e-11
Integration weight cutoff        WCut        ... 1.0000e-14
Partially contracted basis set               ... on
Rotationally invariant grid construction     ... off
Angular grids for H and He will be reduced by one unit

Total number of grid points                  ...    81324
Total number of batches                      ...      673
Average number of points per batch           ...      120
Average number of grid points per atom       ...     1114
UseSFitting                                  ... on

GRIDX 3
-------
General Integration Accuracy     IntAcc      ... 4.338
Radial Grid Type                 RadialGrid  ... OptM3 with GC (2021)
Angular Grid (max. ang.)         AngularGrid ... 3 (Lebedev-194)
Angular grid pruning method      GridPruning ... 4 (adaptive)
Weight generation scheme         WeightScheme... mBecke (2022)
Basis function cutoff            BFCut       ... 1.0000e-11
Integration weight cutoff        WCut        ... 1.0000e-14
Partially contracted basis set               ... on
Rotationally invariant grid construction     ... off
Angular grids for H and He will be reduced by one unit

Total number of grid points                  ...   176209
Total number of batches                      ...     1420
Average number of points per batch           ...      124
Average number of grid points per atom       ...     2414
UseSFitting                                  ... on
Initializing property integral containers    ... done (  0.0 sec)

SHARK setup successfully completed in   3.5 seconds

Maximum memory used throughout the entire STARTUP-calculation: 85.8 MB


           ************************************************************
           *        Program running with 4 parallel MPI-processes     *
           *              working on a common directory               *
           ************************************************************
-------------------------------------------------------------------------------
                                 ORCA GUESS
                   Start orbitals & Density for SCF / CASSCF
-------------------------------------------------------------------------------

------------
SCF SETTINGS
------------
Hamiltonian:
 Density Functional     Method          .... DFT(GTOs)
 Exchange Functional    Exchange        .... PBE
   PBE kappa parameter   XKappa         ....  0.804000
   PBE mue parameter    XMuePBE         ....  0.219520
 Correlation Functional Correlation     .... PBE
   PBE beta parameter  CBetaPBE         ....  0.066725
 LDA part of GGA corr.  LDAOpt          .... PW91-LDA
 Gradients option       PostSCFGGA      .... off
 Hybrid DFT is turned on
   Fraction HF Exchange ScalHFX         ....  0.250000
   Scaling of DF-GGA-X  ScalDFX         ....  0.750000
   Scaling of DF-GGA-C  ScalDFC         ....  1.000000
   Scaling of DF-LDA-C  ScalLDAC        ....  1.000000
   Perturbative correction              ....  0.000000
   NL short-range parameter             ....  6.900000
 RI-approximation to the Coulomb term is turned on
   Number of AuxJ basis functions       .... 1905
   RIJ-COSX (HFX calculated with COS-X)).... on


General Settings:
 Integral files         IntName         .... inpJ
 Hartree-Fock type      HFTyp           .... RHF
 Total Charge           Charge          ....    0
 Multiplicity           Mult            ....    1
 Number of Electrons    NEL             ....  220
 Basis Dimension        Dim             ....  509
 Nuclear Repulsion      ENuc            ....   2800.1039662517 Eh

Convergence Acceleration:
 AO-DIIS                CNVDIIS         .... on
   Start iteration      DIISMaxIt       ....    12
   Startup error        DIISStart       ....  0.200000
   # of expansion vecs  DIISMaxEq       ....     5
   Bias factor          DIISBfac        ....   1.050
   Max. coefficient     DIISMaxC        ....  10.000
 MO-DIIS                CNVKDIIS        .... off
 Trust-Rad. Augm. Hess. CNVTRAH         .... auto
   Auto Start mean grad. ratio tolernc. ....  1.125000
   Auto Start start iteration           ....     1
   Auto Start num. interpolation iter.  ....    10
   Max. Number of Micro iterations      ....    24
   Max. Number of Macro iterations      .... Maxiter - #DIIS iter
   Number of Davidson start vectors     ....     2
   Converg. threshold    (grad. norm)   ....   1.000e-04
   Grad. Scal. Fac. for Micro threshold ....   0.100
   Minimum threshold for Micro iter.    ....   1.000e-02
   NR start threshold (gradient norm)   ....   1.000e-04
   Initial trust radius                 ....   0.400
   Minimum AH scaling param. (alpha)    ....   1.000
   Maximum AH scaling param. (alpha)    .... 1000.000
   Quad. conv. algorithm                .... NR
   White noise on init. David. guess    .... on
   Maximum white noise                  ....   0.010
   Pseudo random numbers                .... off
   Inactive MOs                         .... canonical
   Orbital update algorithm             .... Taylor
   Preconditioner                       .... Diag
   Full preconditioner red. dimension   ....   250
 SOSCF                  CNVSOSCF        .... off
 Level Shifting         CNVShift        .... on
   Level shift para.    LevelShift      ....    0.2500
   Turn off err/grad.   ShiftErr        ....    0.0010
 Zerner damping         CNVZerner       .... off
 Static damping         CNVDamp         .... on
   Fraction old density DampFac         ....    0.7000
   Max. Damping (<1)    DampMax         ....    0.9800
   Min. Damping (>=0)   DampMin         ....    0.0000
   Turn off err/grad.   DampErr         ....    0.1000

SCF Procedure:
 Maximum # iterations   MaxIter         ....   125
 SCF integral mode      SCFMode         .... Direct
   Integral package                     .... SHARK and LIBINT hybrid scheme
 Reset frequency        DirectResetFreq ....    20
 Integral Threshold     Thresh          ....  3.000e-11 Eh
 Primitive CutOff       TCut            ....  1.000e-12 Eh

Convergence Tolerance:
 Convergence Check Mode ConvCheckMode   .... Total+1el-Energy
 Convergence forced     ConvForced      .... 0
 Energy Change          TolE            ....  1.000e-07 Eh
 1-El. energy change                    ....  1.000e-04 Eh
 DIIS Error             TolErr          ....  1.000e-07

---------------------
INITIAL GUESS: MOREAD
---------------------
Guess MOs are being read from file: inpJ.ges
Input Geometry matches current geometry (good)
Input basis set matches current basis set (good)
Occupation numbers will be reassigned to an Aufbau configuration
MOs were renormalized
MOs were reorthogonalized (Cholesky)
                      ------------------
                      INITIAL GUESS DONE (   0.1 sec)
                      ------------------
             **** ENERGY FILE WAS UPDATED (inpJ.en.tmp) ****
Finished Guess after   0.2 sec
Maximum memory used throughout the entire GUESS-calculation: 36.9 MB


           ************************************************************
           *        Program running with 4 parallel MPI-processes     *
           *              working on a common directory               *
           ************************************************************

-------------------------------------------------------------------------------------------
                                      ORCA LEAN-SCF
                              memory conserving SCF solver
-------------------------------------------------------------------------------------------

--------------------
CPCM SOLVATION MODEL
--------------------
CPCM parameters:
  Epsilon                                         ...       4.8030
  Refrac                                          ...       1.4459
  Rsolv                                           ...       1.3000
  Surface type                                    ... GAUSSIAN VDW
  Discretization scheme                           ... Constant charge density
    Threshold for H atoms                         ...       5.0000 (charges/Ang^2)
    Threshold for non-H atoms                     ...       5.0000 (charges/Ang^2)
  Epsilon function type                           ...         CPCM
Solvent:                                          ... CHLOROFORM
Radii:
  Scheme                                          ... Element-dependent radii
  Radius for C  used is    3.8550 Bohr (=   2.0400 Ang.)
  Radius for H  used is    2.4944 Bohr (=   1.3200 Ang.)
  Radius for O  used is    3.4469 Bohr (=   1.8240 Ang.)
Calculating surface                               ...        done! (  0.0s)
Cavity surface points                             ...         5401
Cavity Volume                                     ...    3605.4880
Cavity Surface-area                               ...    1794.8378
Calculating surface distance matrix               ...        done! (  0.2s)
Performing Cholesky decomposition & store         ...        done! (  1.2s)
Overall time for CPCM initialization              ...                 1.4s

----------------------------------------D-I-I-S--------------------------------------------
Iteration    Energy (Eh)           Delta-E    RMSDP     MaxDP     DIISErr   Damp  Time(sec)
-------------------------------------------------------------------------------------------
               ***  Starting incremental Fock matrix formation  ***
    1    -1165.5112430608019167     0.00e+00  4.18e-08  5.54e-06  6.21e-06  0.700   6.2

  HOMO= 109 E= -6.015 eV LUMO=  5.939 eV gap=  11.953 eV
    2    -1165.5112430938015677    -3.30e-08  2.82e-08  3.32e-06  3.12e-06  0.700   2.1
                 **** Energy Check signals convergence ****

  HOMO= 109 E= -6.015 eV LUMO=  5.939 eV gap=  11.953 eV

               *****************************************************
               *                     SUCCESS                       *
               *           SCF CONVERGED AFTER   2 CYCLES          *
               *****************************************************

Recomputing exchange energy using gridx3       ... done (    8.275 sec)
Old exchange energy                            :    -42.067317914 Eh
New exchange energy                            :    -42.067299408 Eh
Exchange energy change after final integration :      0.000018506 Eh
Total energy after final integration           :  -1165.511224587 Eh
             **** ENERGY FILE WAS UPDATED (inpJ.en.tmp) ****

----------------
TOTAL SCF ENERGY
----------------

Total Energy       :      -1165.51122458732311 Eh          -31715.17279 eV

Components:
Nuclear Repulsion  :       2800.10396625174917 Eh           76194.70259 eV
Electronic Energy  :      -3965.60172235659047 Eh         -107909.50888 eV
One Electron Energy:      -7141.95245773841816 Eh         -194342.40655 eV
Two Electron Energy:       3176.35073538182769 Eh           86432.89767 eV
CPCM Dielectric    :         -0.01348698896026 Eh              -0.36700 eV

Virial components:
Potential Energy   :      -2322.40478218468161 Eh          -63195.84694 eV
Kinetic Energy     :       1156.89355759735827 Eh           31480.67415 eV
Virial Ratio       :          2.00744897137111

DFT components:
N(Alpha)           :      109.999953029863 electrons
N(Beta)            :      109.999953029863 electrons
N(Total)           :      219.999906059726 electrons
E(X)               :     -125.744353107044 Eh       
E(C)               :       -7.327785181297 Eh       
E(XC)              :     -133.072138288342 Eh       

CPCM Solvation Model Properties:
Surface-charge          :         -0.03325119324462
Corrected charge        :          0.00000000000000
Outlying charge corr.   :          0.00003900676901 Eh               0.00106 eV
Free-energy (cav+disp)  :  This term is not implemented in the current solvation scheme

---------------
SCF CONVERGENCE
---------------

  Last Energy change         ...    3.3000e-08  Tolerance :   1.0000e-07
  Last MAX-Density change    ...    3.3190e-06  Tolerance :   1.0000e-05
  Last RMS-Density change    ...    2.8239e-08  Tolerance :   1.0000e-06
  Last DIIS Error            ...    3.1176e-06  Tolerance :   1.0000e-07


----------------
ORBITAL ENERGIES
----------------

  NO   OCC          E(Eh)            E(eV) 
   0   2.0000     -19.212465      -522.7978 
   1   2.0000     -10.300536      -280.2918 
   2   2.0000     -10.270586      -279.4768 
   3   2.0000     -10.268470      -279.4193 
   4   2.0000     -10.263930      -279.2957 
   5   2.0000     -10.257672      -279.1255 
   6   2.0000     -10.257097      -279.1098 
   7   2.0000     -10.251539      -278.9586 
   8   2.0000     -10.250493      -278.9301 
   9   2.0000     -10.250175      -278.9214 
  10   2.0000     -10.248207      -278.8679 
  11   2.0000     -10.247770      -278.8560 
  12   2.0000     -10.246339      -278.8171 
  13   2.0000     -10.245359      -278.7904 
  14   2.0000     -10.244681      -278.7719 
  15   2.0000     -10.243541      -278.7409 
  16   2.0000     -10.243141      -278.7300 
  17   2.0000     -10.242727      -278.7188 
  18   2.0000     -10.241826      -278.6942 
  19   2.0000     -10.241552      -278.6868 
  20   2.0000     -10.240357      -278.6543 
  21   2.0000     -10.234622      -278.4982 
  22   2.0000     -10.234390      -278.4919 
  23   2.0000     -10.232985      -278.4537 
  24   2.0000     -10.226054      -278.2651 
  25   2.0000     -10.224970      -278.2356 
  26   2.0000     -10.224866      -278.2327 
  27   2.0000     -10.224394      -278.2199 
  28   2.0000     -10.221029      -278.1283 
  29   2.0000      -1.043253       -28.3884 
  30   2.0000      -0.901608       -24.5340 
  31   2.0000      -0.882297       -24.0085 
  32   2.0000      -0.860456       -23.4142 
  33   2.0000      -0.846369       -23.0309 
  34   2.0000      -0.822868       -22.3914 
  35   2.0000      -0.814414       -22.1613 
  36   2.0000      -0.796112       -21.6633 
  37   2.0000      -0.795176       -21.6378 
  38   2.0000      -0.777783       -21.1645 
  39   2.0000      -0.758500       -20.6398 
  40   2.0000      -0.740642       -20.1539 
  41   2.0000      -0.734450       -19.9854 
  42   2.0000      -0.715204       -19.4617 
  43   2.0000      -0.703118       -19.1328 
  44   2.0000      -0.702463       -19.1150 
  45   2.0000      -0.695733       -18.9319 
  46   2.0000      -0.670822       -18.2540 
  47   2.0000      -0.662120       -18.0172 
  48   2.0000      -0.630515       -17.1572 
  49   2.0000      -0.622140       -16.9293 
  50   2.0000      -0.612204       -16.6589 
  51   2.0000      -0.604744       -16.4559 
  52   2.0000      -0.596768       -16.2389 
  53   2.0000      -0.587307       -15.9814 
  54   2.0000      -0.558276       -15.1915 
  55   2.0000      -0.551338       -15.0027 
  56   2.0000      -0.539626       -14.6840 
  57   2.0000      -0.529557       -14.4100 
  58   2.0000      -0.515452       -14.0262 
  59   2.0000      -0.508254       -13.8303 
  60   2.0000      -0.499042       -13.5796 
  61   2.0000      -0.490740       -13.3537 
  62   2.0000      -0.481158       -13.0930 
  63   2.0000      -0.480927       -13.0867 
  64   2.0000      -0.470295       -12.7974 
  65   2.0000      -0.469472       -12.7750 
  66   2.0000      -0.466372       -12.6906 
  67   2.0000      -0.462828       -12.5942 
  68   2.0000      -0.459234       -12.4964 
  69   2.0000      -0.453279       -12.3343 
  70   2.0000      -0.449894       -12.2422 
  71   2.0000      -0.445925       -12.1342 
  72   2.0000      -0.435576       -11.8526 
  73   2.0000      -0.433273       -11.7900 
  74   2.0000      -0.426046       -11.5933 
  75   2.0000      -0.422725       -11.5029 
  76   2.0000      -0.419406       -11.4126 
  77   2.0000      -0.414183       -11.2705 
  78   2.0000      -0.411143       -11.1878 
  79   2.0000      -0.405158       -11.0249 
  80   2.0000      -0.401715       -10.9312 
  81   2.0000      -0.397665       -10.8210 
  82   2.0000      -0.395923       -10.7736 
  83   2.0000      -0.390136       -10.6161 
  84   2.0000      -0.386405       -10.5146 
  85   2.0000      -0.380760       -10.3610 
  86   2.0000      -0.375999       -10.2315 
  87   2.0000      -0.374011       -10.1774 
  88   2.0000      -0.369435       -10.0528 
  89   2.0000      -0.363045        -9.8790 
  90   2.0000      -0.361258        -9.8303 
  91   2.0000      -0.358808        -9.7637 
  92   2.0000      -0.350673        -9.5423 
  93   2.0000      -0.345062        -9.3896 
  94   2.0000      -0.341348        -9.2886 
  95   2.0000      -0.339752        -9.2451 
  96   2.0000      -0.337356        -9.1799 
  97   2.0000      -0.334696        -9.1076 
  98   2.0000      -0.331719        -9.0265 
  99   2.0000      -0.330319        -8.9884 
 100   2.0000      -0.328251        -8.9322 
 101   2.0000      -0.324570        -8.8320 
 102   2.0000      -0.319249        -8.6872 
 103   2.0000      -0.317309        -8.6344 
 104   2.0000      -0.311031        -8.4636 
 105   2.0000      -0.300886        -8.1875 
 106   2.0000      -0.276622        -7.5273 
 107   2.0000      -0.275243        -7.4897 
 108   2.0000      -0.256714        -6.9855 
 109   2.0000      -0.221029        -6.0145 
 110   0.0000      -0.031759        -0.8642 
 111   0.0000       0.019102         0.5198 
 112   0.0000       0.027123         0.7381 
 113   0.0000       0.079329         2.1587 
 114   0.0000       0.087511         2.3813 
 115   0.0000       0.098937         2.6922 
 116   0.0000       0.102651         2.7933 
 117   0.0000       0.107705         2.9308 
 118   0.0000       0.109037         2.9670 
 119   0.0000       0.112530         3.0621 
 120   0.0000       0.117870         3.2074 
*Only the first 10 virtual orbitals were printed.

                    ********************************
                    * MULLIKEN POPULATION ANALYSIS *
                    ********************************

-----------------------
MULLIKEN ATOMIC CHARGES
-----------------------
   0 C :    0.077665
   1 C :   -0.500899
   2 C :   -0.073907
   3 H :    0.222996
   4 H :    0.220038
   5 C :    0.138363
   6 C :   -0.479598
   7 C :   -0.439741
   8 H :    0.225262
   9 H :    0.207504
  10 H :    0.208727
  11 H :    0.227882
  12 O :   -0.488247
  13 H :    0.247194
  14 C :   -0.280268
  15 C :   -0.513932
  16 H :    0.201051
  17 H :    0.196908
  18 C :   -0.260133
  19 H :    0.220101
  20 C :    0.153977
  21 H :    0.220194
  22 C :   -0.479510
  23 C :   -0.427668
  24 H :    0.211752
  25 H :    0.207242
  26 C :   -0.397141
  27 H :    0.208574
  28 H :    0.217460
  29 C :    0.002274
  30 H :    0.222142
  31 H :    0.194467
  32 C :   -0.230190
  33 H :    0.227999
  34 C :   -0.433501
  35 H :    0.341042
  36 C :   -0.419198
  37 H :    0.207851
  38 H :    0.197704
  39 C :   -0.185479
  40 H :    0.207457
  41 H :    0.210604
  42 H :    0.210278
  43 C :   -0.250231
  44 C :   -0.627008
  45 H :    0.204848
  46 H :    0.209017
  47 H :    0.201193
  48 H :    0.218631
  49 C :   -0.621165
  50 C :   -0.176007
  51 C :   -0.178351
  52 H :    0.213593
  53 H :    0.213577
  54 C :   -0.234594
  55 C :   -0.629357
  56 C :   -0.198762
  57 H :    0.211222
  58 H :    0.213126
  59 C :   -0.614212
  60 C :   -0.613417
  61 H :    0.191613
  62 H :    0.212322
  63 H :    0.203984
  64 H :    0.211918
  65 H :    0.192009
  66 H :    0.205662
  67 H :    0.209970
  68 H :    0.205592
  69 H :    0.192555
  70 H :    0.211282
  71 H :    0.193090
  72 H :    0.202607
Sum of atomic charges:   -0.0000000

--------------------------------
MULLIKEN REDUCED ORBITAL CHARGES
--------------------------------
  0 C s       :     3.354232  s :     3.354232
      pz      :     0.989497  p :     2.568103
      px      :     0.808369
      py      :     0.770237

  1 C s       :     3.377895  s :     3.377895
      pz      :     1.148059  p :     3.123004
      px      :     0.873731
      py      :     1.101214

  2 C s       :     3.312627  s :     3.312627
      pz      :     0.703457  p :     2.761280
      px      :     1.145219
      py      :     0.912604

  3 H s       :     0.777004  s :     0.777004

  4 H s       :     0.779962  s :     0.779962

  5 C s       :     3.341334  s :     3.341334
      pz      :     0.880654  p :     2.520303
      px      :     0.865290
      py      :     0.774359

  6 C s       :     3.367216  s :     3.367216
      pz      :     1.147155  p :     3.112382
      px      :     0.891057
      py      :     1.074170

  7 C s       :     3.338604  s :     3.338604
      pz      :     1.170425  p :     3.101137
      px      :     0.962084
      py      :     0.968628

  8 H s       :     0.774738  s :     0.774738

  9 H s       :     0.792496  s :     0.792496

 10 H s       :     0.791273  s :     0.791273

 11 H s       :     0.772118  s :     0.772118

 12 O s       :     3.685041  s :     3.685041
      pz      :     1.432803  p :     4.803206
      px      :     1.459777
      py      :     1.910626

 13 H s       :     0.752806  s :     0.752806

 14 C s       :     3.394289  s :     3.394289
      pz      :     0.979916  p :     2.885979
      px      :     0.831451
      py      :     1.074612

 15 C s       :     3.385003  s :     3.385003
      pz      :     0.984992  p :     3.128929
      px      :     0.989080
      py      :     1.154857

 16 H s       :     0.798949  s :     0.798949

 17 H s       :     0.803092  s :     0.803092

 18 C s       :     3.396882  s :     3.396882
      pz      :     1.013383  p :     2.863251
      px      :     0.770374
      py      :     1.079495

 19 H s       :     0.779899  s :     0.779899

 20 C s       :     3.351221  s :     3.351221
      pz      :     0.937312  p :     2.494802
      px      :     0.759996
      py      :     0.797495

 21 H s       :     0.779806  s :     0.779806

 22 C s       :     3.372597  s :     3.372597
      pz      :     1.116465  p :     3.106913
      px      :     1.113542
      py      :     0.876905

 23 C s       :     3.327531  s :     3.327531
      pz      :     1.112273  p :     3.100137
      px      :     0.890884
      py      :     1.096980

 24 H s       :     0.788248  s :     0.788248

 25 H s       :     0.792758  s :     0.792758

 26 C s       :     3.349659  s :     3.349659
      pz      :     1.167776  p :     3.047482
      px      :     0.959978
      py      :     0.919728

 27 H s       :     0.791426  s :     0.791426

 28 H s       :     0.782540  s :     0.782540

 29 C s       :     3.317670  s :     3.317670
      pz      :     0.870937  p :     2.680057
      px      :     0.905601
      py      :     0.903519

 30 H s       :     0.777858  s :     0.777858

 31 H s       :     0.805533  s :     0.805533

 32 C s       :     3.362852  s :     3.362852
      pz      :     1.092560  p :     2.867339
      px      :     0.861546
      py      :     0.913233

 33 H s       :     0.772001  s :     0.772001

 34 C s       :     3.344723  s :     3.344723
      pz      :     1.187755  p :     3.088778
      px      :     0.932025
      py      :     0.968998

 35 H s       :     0.658958  s :     0.658958

 36 C s       :     3.336364  s :     3.336364
      pz      :     1.178774  p :     3.082834
      px      :     0.936227
      py      :     0.967834

 37 H s       :     0.792149  s :     0.792149

 38 H s       :     0.802296  s :     0.802296

 39 C s       :     3.337397  s :     3.337397
      pz      :     1.076244  p :     2.848082
      px      :     0.858438
      py      :     0.913401

 40 H s       :     0.792543  s :     0.792543

 41 H s       :     0.789396  s :     0.789396

 42 H s       :     0.789722  s :     0.789722

 43 C s       :     3.345228  s :     3.345228
      pz      :     1.089775  p :     2.905003
      px      :     0.877115
      py      :     0.938114

 44 C s       :     3.365920  s :     3.365920
      pz      :     0.947736  p :     3.261088
      px      :     1.161707
      py      :     1.151645

 45 H s       :     0.795152  s :     0.795152

 46 H s       :     0.790983  s :     0.790983

 47 H s       :     0.798807  s :     0.798807

 48 H s       :     0.781369  s :     0.781369

 49 C s       :     3.347621  s :     3.347621
      pz      :     1.153076  p :     3.273544
      px      :     1.155854
      py      :     0.964613

 50 C s       :     3.339618  s :     3.339618
      pz      :     1.049131  p :     2.836388
      px      :     0.897498
      py      :     0.889759

 51 C s       :     3.342893  s :     3.342893
      pz      :     1.054647  p :     2.835458
      px      :     0.897301
      py      :     0.883510

 52 H s       :     0.786407  s :     0.786407

 53 H s       :     0.786423  s :     0.786423

 54 C s       :     3.340660  s :     3.340660
      pz      :     1.023986  p :     2.893934
      px      :     0.975603
      py      :     0.894346

 55 C s       :     3.347626  s :     3.347626
      pz      :     1.067429  p :     3.281731
      px      :     1.110011
      py      :     1.104291

 56 C s       :     3.311440  s :     3.311440
      pz      :     1.017053  p :     2.887322
      px      :     0.977922
      py      :     0.892346

 57 H s       :     0.788778  s :     0.788778

 58 H s       :     0.786874  s :     0.786874

 59 C s       :     3.341801  s :     3.341801
      pz      :     1.064907  p :     3.272411
      px      :     1.107191
      py      :     1.100314

 60 C s       :     3.341923  s :     3.341923
      pz      :     1.131252  p :     3.271494
      px      :     1.040237
      py      :     1.100006

 61 H s       :     0.808387  s :     0.808387

 62 H s       :     0.787678  s :     0.787678

 63 H s       :     0.796016  s :     0.796016

 64 H s       :     0.788082  s :     0.788082

 65 H s       :     0.807991  s :     0.807991

 66 H s       :     0.794338  s :     0.794338

 67 H s       :     0.790030  s :     0.790030

 68 H s       :     0.794408  s :     0.794408

 69 H s       :     0.807445  s :     0.807445

 70 H s       :     0.788718  s :     0.788718

 71 H s       :     0.806910  s :     0.806910

 72 H s       :     0.797393  s :     0.797393


------------------------
MULLIKEN OVERLAP CHARGES
------------------------
B(  0-C ,  1-C ) :   0.5247 B(  0-C ,  2-C ) :  -0.1804 B(  0-C ,  3-H ) :  -0.0795 
B(  0-C ,  4-H ) :  -0.0863 B(  0-C ,  5-C ) :   0.4158 B(  0-C ,  6-C ) :  -0.1417 
B(  0-C , 14-C ) :   0.9499 B(  0-C , 15-C ) :  -0.2022 B(  0-C , 18-C ) :  -0.1866 
B(  0-C , 19-H ) :  -0.0751 B(  1-C ,  2-C ) :   0.5267 B(  1-C ,  3-H ) :   0.8091 
B(  1-C ,  4-H ) :   0.7736 B(  1-C ,  5-C ) :  -0.1411 B(  1-C ,  7-C ) :  -0.1578 
B(  1-C , 12-O ) :  -0.1099 B(  1-C , 13-H ) :  -0.0571 B(  1-C , 14-C ) :  -0.1137 
B(  2-C ,  3-H ) :  -0.0591 B(  2-C ,  4-H ) :  -0.0536 B(  2-C ,  6-C ) :  -0.1581 
B(  2-C ,  7-C ) :   0.5150 B(  2-C , 10-H ) :  -0.0625 B(  2-C , 11-H ) :  -0.0697 
B(  2-C , 12-O ) :   0.6964 B(  2-C , 13-H ) :   0.8216 B(  2-C , 35-H ) :  -0.1153 
B(  5-C ,  6-C ) :   0.5305 B(  5-C ,  7-C ) :  -0.1574 B(  5-C ,  8-H ) :  -0.0730 
B(  5-C ,  9-H ) :  -0.0937 B(  5-C , 14-C ) :  -0.1989 B(  5-C , 15-C ) :   1.0625 
B(  5-C , 16-H ) :  -0.0996 B(  5-C , 17-H ) :  -0.0950 B(  6-C ,  7-C ) :   0.5526 
B(  6-C ,  8-H ) :   0.8228 B(  6-C ,  9-H ) :   0.7936 B(  6-C , 10-H ) :  -0.0741 
B(  6-C , 11-H ) :  -0.0561 B(  6-C , 15-C ) :  -0.1297 B(  7-C ,  9-H ) :  -0.0778 
B(  7-C , 10-H ) :   0.7763 B(  7-C , 11-H ) :   0.8044 B(  7-C , 12-O ) :  -0.1079 
B(  7-C , 13-H ) :  -0.0829 B( 12-O , 35-H ) :   0.6664 B( 14-C , 18-C ) :   0.6118 
B( 14-C , 19-H ) :   0.8212 B( 14-C , 20-C ) :  -0.1942 B( 14-C , 21-H ) :  -0.0739 
B( 15-C , 16-H ) :   0.8136 B( 15-C , 17-H ) :   0.8065 B( 18-C , 19-H ) :  -0.0599 
B( 18-C , 20-C ) :   0.9183 B( 18-C , 21-H ) :   0.8332 B( 18-C , 22-C ) :  -0.1508 
B( 18-C , 32-C ) :  -0.1496 B( 20-C , 21-H ) :  -0.0831 B( 20-C , 22-C ) :   0.5335 
B( 20-C , 23-C ) :  -0.1714 B( 20-C , 24-H ) :  -0.0671 B( 20-C , 25-H ) :  -0.0919 
B( 20-C , 29-C ) :  -0.1249 B( 20-C , 32-C ) :   0.5187 B( 20-C , 33-H ) :  -0.0915 
[...]
        0.0000         1.0739        0.0000
        0.0000         0.0000        1.0739

 Diagonalized JT*J matrix:
 
 J[55,60](FC)             1.074            1.074            1.074  iso=      1.074
                ---------------  ---------------  ---------------  ---------------
 J[55,60](Total)          1.074            1.074            1.074  iso=      1.074



-----------------------------------------------------------
 NUCLEUS A = C   56 NUCLEUS B = C   59 
 ( 13C  gnA =  1.405  13C  gnB =  1.405) r(AB) =     1.5319
-----------------------------------------------------------

Fermi-contact contribution to J (Hz):
       27.0291         0.0000        0.0000
        0.0000        27.0291        0.0000
        0.0000         0.0000       27.0291

Total spin-spin coupling tensor J (Hz):
       27.0291         0.0000        0.0000
        0.0000        27.0291        0.0000
        0.0000         0.0000       27.0291

 Diagonalized JT*J matrix:
 
 J[56,59](FC)            27.029           27.029           27.029  iso=     27.029
                ---------------  ---------------  ---------------  ---------------
 J[56,59](Total)         27.029           27.029           27.029  iso=     27.029



-----------------------------------------------------------
 NUCLEUS A = C   56 NUCLEUS B = C   60 
 ( 13C  gnA =  1.405  13C  gnB =  1.405) r(AB) =     1.5317
-----------------------------------------------------------

Fermi-contact contribution to J (Hz):
       26.3617         0.0000        0.0000
        0.0000        26.3617        0.0000
        0.0000         0.0000       26.3617

Total spin-spin coupling tensor J (Hz):
       26.3617         0.0000        0.0000
        0.0000        26.3617        0.0000
        0.0000         0.0000       26.3617

 Diagonalized JT*J matrix:
 
 J[56,60](FC)            26.362           26.362           26.362  iso=     26.362
                ---------------  ---------------  ---------------  ---------------
 J[56,60](Total)         26.362           26.362           26.362  iso=     26.362



-----------------------------------------------------------
 NUCLEUS A = C   59 NUCLEUS B = C   60 
 ( 13C  gnA =  1.405  13C  gnB =  1.405) r(AB) =     2.5034
-----------------------------------------------------------

Fermi-contact contribution to J (Hz):
       -0.9203         0.0000        0.0000
        0.0000        -0.9203        0.0000
        0.0000         0.0000       -0.9203

Total spin-spin coupling tensor J (Hz):
       -0.9203         0.0000        0.0000
        0.0000        -0.9203        0.0000
        0.0000         0.0000       -0.9203

 Diagonalized JT*J matrix:
 
 J[59,60](FC)            -0.920           -0.920           -0.920  iso=     -0.920
                ---------------  ---------------  ---------------  ---------------
 J[59,60](Total)         -0.920           -0.920           -0.920  iso=     -0.920



-----------------------------------------------------------------------------
                SUMMARY OF ISOTROPIC COUPLING CONSTANTS J (Hz)                
-----------------------------------------------------------------------------
                  0 C        1 C        2 C        5 C        6 C        7 C  
      0 C        0.000     33.107     -3.767     41.243     -0.902      2.275
      1 C       33.107      0.000     23.375     -1.209      1.446     -0.683
      2 C       -3.767     23.375      0.000      2.290     -2.776     25.899
      5 C       41.243     -1.209      2.290      0.000     30.416     -2.778
      6 C       -0.902      1.446     -2.776     30.416      0.000     24.798
      7 C        2.275     -0.683     25.899     -2.778     24.798      0.000
     14 C       69.362     -0.381      2.833     -3.004      2.175     -0.621
     15 C       -3.404      2.419     -0.869     64.596     -1.117      2.597
     18 C       -2.386      4.169     -1.106      3.185     -0.815      0.192
     20 C        6.800     -1.099      1.093     -1.377      0.604     -0.102
     22 C       -0.925      0.326     -0.332      0.421     -0.182      0.038
     23 C        0.811     -0.282      0.279     -0.336      0.151      0.000
     26 C       -0.093      0.039      0.000      0.048      0.000      0.000
     29 C        1.161     -0.365      0.000     -0.447      0.208      0.000
     32 C       -1.122      0.544     -0.378      0.470     -0.215      0.045
     34 C        0.021     -0.015      0.013     -0.015      0.006     -0.001
     36 C       -0.016      0.000      0.000      0.016     -0.008      0.000
     39 C       -0.070      0.000      0.000      0.030      0.000      0.000
     43 C        0.000      0.000      0.000      0.000      0.000      0.000
     44 C        0.009     -0.003      0.000     -0.002     -0.004      0.000
     49 C        0.000      0.000      0.000      0.000      0.000      0.000
     50 C        0.000      0.000      0.000      0.000      0.000      0.000
     51 C        0.000      0.000      0.000      0.000      0.000      0.000
     54 C        0.000      0.000      0.000      0.000      0.000      0.000
     55 C        0.000      0.000      0.000      0.000      0.000      0.000
     56 C        0.000      0.000      0.000      0.000      0.000      0.000
     59 C        0.000      0.000      0.000      0.000      0.000      0.000
     60 C        0.000      0.000      0.000      0.000      0.000      0.000
                 14 C       15 C       18 C       20 C       22 C       23 C  
      0 C       69.362     -3.404     -2.386      6.800     -0.925      0.811
      1 C       -0.381      2.419      4.169     -1.099      0.326     -0.282
      2 C        2.833     -0.869     -1.106      1.093     -0.332      0.279
      5 C       -3.004     64.596      3.185     -1.377      0.421     -0.336
      6 C        2.175     -1.117     -0.815      0.604     -0.182      0.151
      7 C       -0.621      2.597      0.192     -0.102      0.038      0.000
     14 C        0.000      3.103     54.098     -2.647      3.771     -0.907
     15 C        3.103      0.000     -1.144      1.006     -0.271      0.249
     18 C       54.098     -1.144      0.000     69.976     -2.148      2.356
     20 C       -2.647      1.006     69.976      0.000     32.109     -2.939
     22 C        3.771     -0.271     -2.148     32.109      0.000     24.268
     23 C       -0.907      0.249      2.356     -2.939     24.268      0.000
     26 C        0.133     -0.033     -0.352      1.022     -1.922     25.413
     29 C       -1.131      0.326      2.284     -2.433      1.090     -2.201
     32 C        4.372     -0.315     -1.285     36.750     -0.208      1.518
     34 C        0.074      0.003      2.474     -1.367      1.608     -0.262
     36 C        0.014     -0.014     -0.147      3.418      0.073      0.169
     39 C        0.253     -0.023     -0.042      2.858     -0.331      2.528
     43 C        0.008      0.016      0.278      0.177      0.001     -0.111
     44 C        0.007      0.026     -0.050      0.699     -0.137      0.600
     49 C        0.000      0.000     -0.010     -0.048      0.137      0.037
     50 C        0.000      0.000      0.022      0.126     -0.005      0.114
     51 C        0.000      0.000      0.016      0.049      0.000     -0.002
     54 C        0.000      0.000      0.000      0.000      0.000      0.000
     55 C        0.000      0.000      0.000      0.000      0.000      0.000
     56 C        0.000      0.000      0.000      0.000      0.000      0.000
     59 C        0.000      0.000      0.000      0.000      0.000      0.000
     60 C        0.000      0.000      0.000      0.000      0.000      0.000
                 26 C       29 C       32 C       34 C       36 C       39 C  
      0 C       -0.093      1.161     -1.122      0.021     -0.016     -0.070
      1 C        0.039     -0.365      0.544     -0.015      0.000      0.000
      2 C        0.000      0.000     -0.378      0.013      0.000      0.000
      5 C        0.048     -0.447      0.470     -0.015      0.016      0.030
      6 C        0.000      0.208     -0.215      0.006     -0.008      0.000
      7 C        0.000      0.000      0.045     -0.001      0.000      0.000
     14 C        0.133     -1.131      4.372      0.074      0.014      0.253
     15 C       -0.033      0.326     -0.315      0.003     -0.014     -0.023
     18 C       -0.352      2.284     -1.285      2.474     -0.147     -0.042
     20 C        1.022     -2.433     36.750     -1.367      3.418      2.858
     22 C       -1.922      1.090     -0.208      1.608      0.073     -0.331
     23 C       25.413     -2.201      1.518     -0.262      0.169      2.528
     26 C        0.000     27.757     -0.903      2.271      3.035     -0.576
     29 C       27.757      0.000     23.098      0.840      0.796     28.258
     32 C       -0.903     23.098      0.000     27.903      1.176      3.340
     34 C        2.271      0.840     27.903      0.000     25.897      0.253
     36 C        3.035      0.796      1.176     25.897      0.000     27.109
     39 C       -0.576     28.258      3.340      0.253     27.109      0.000
     43 C       -0.018     -0.632      2.694      1.795      0.376     28.593
     44 C       -0.547     27.266     -0.960      0.810      0.265     -1.199
     49 C        0.340      0.080     -0.025      0.039      3.181     -1.309
     50 C       -0.117      3.526     -0.082     -0.034      0.626     -2.077
     51 C       -0.024      0.247      0.127      0.062     -0.024      3.322
     54 C       -0.000      0.081     -0.018     -0.001     -0.033     -0.577
     55 C       -0.002      0.027      0.009     -0.001      0.013      0.103
     56 C       -0.007      0.125      0.044     -0.010     -0.033      1.202
     59 C        0.000      0.010     -0.001      0.002     -0.023      0.096
     60 C        0.000      0.000      0.000     -0.001      0.002      0.046
                 43 C       44 C       49 C       50 C       51 C       54 C  
      0 C        0.000      0.009      0.000      0.000      0.000      0.000
      1 C        0.000     -0.003      0.000      0.000      0.000      0.000
      2 C        0.000      0.000      0.000      0.000      0.000      0.000
      5 C        0.000     -0.002      0.000      0.000      0.000      0.000
      6 C        0.000     -0.004      0.000      0.000      0.000      0.000
      7 C        0.000      0.000      0.000      0.000      0.000      0.000
     14 C        0.008      0.007      0.000      0.000      0.000      0.000
     15 C        0.016      0.026      0.000      0.000      0.000      0.000
     18 C        0.278     -0.050     -0.010      0.022      0.016      0.000
     20 C        0.177      0.699     -0.048      0.126      0.049      0.000
     22 C        0.001     -0.137      0.137     -0.005      0.000      0.000
     23 C       -0.111      0.600      0.037      0.114     -0.002      0.000
     26 C       -0.018     -0.547      0.340     -0.117     -0.024     -0.000
     29 C       -0.632     27.266      0.080      3.526      0.247      0.081
     32 C        2.694     -0.960     -0.025     -0.082      0.127     -0.018
     34 C        1.795      0.810      0.039     -0.034      0.062     -0.001
     36 C        0.376      0.265      3.181      0.626     -0.024     -0.033
     39 C       28.593     -1.199     -1.309     -2.077      3.322     -0.577
     43 C        0.000      1.438     26.120     36.254     -0.263      3.797
     44 C        1.438      0.000     -0.084     -0.166     -0.012     -0.000
     49 C       26.120     -0.084      0.000     -2.781      3.440     -0.723
     50 C       36.254     -0.166     -2.781      0.000     68.735     -1.760
     51 C       -0.263     -0.012      3.440     68.735      0.000     36.186
     54 C        3.797     -0.000     -0.723     -1.760     36.186      0.000
     55 C       -0.143      0.000      0.125      3.059     -1.915     27.711
     56 C       -0.838     -0.005      1.122      2.883     -2.827     25.214
     59 C       -0.030     -0.001      0.041      0.145      1.474     -0.800
     60 C        0.176      0.000     -0.006      0.046      2.932     -0.645
                 55 C       56 C       59 C       60 C  
      0 C        0.000      0.000      0.000      0.000
      1 C        0.000      0.000      0.000      0.000
      2 C        0.000      0.000      0.000      0.000
      5 C        0.000      0.000      0.000      0.000
      6 C        0.000      0.000      0.000      0.000
      7 C        0.000      0.000      0.000      0.000
     14 C        0.000      0.000      0.000      0.000
     15 C        0.000      0.000      0.000      0.000
     18 C        0.000      0.000      0.000      0.000
     20 C        0.000      0.000      0.000      0.000
     22 C        0.000      0.000      0.000      0.000
     23 C        0.000      0.000      0.000      0.000
     26 C       -0.002     -0.007      0.000      0.000
     29 C        0.027      0.125      0.010      0.000
     32 C        0.009      0.044     -0.001      0.000
     34 C       -0.001     -0.010      0.002     -0.001
     36 C        0.013     -0.033     -0.023      0.002
     39 C        0.103      1.202      0.096      0.046
     43 C       -0.143     -0.838     -0.030      0.176
     44 C        0.000     -0.005     -0.001      0.000
     49 C        0.125      1.122      0.041     -0.006
     50 C        3.059      2.883      0.145      0.046
     51 C       -1.915     -2.827      1.474      2.932
     54 C       27.711     25.214     -0.800     -0.645
     55 C        0.000     -0.788      2.670      1.074
     56 C       -0.788      0.000     27.029     26.362
     59 C        2.670     27.029      0.000     -0.920
     60 C        1.074     26.362     -0.920      0.000

NMR spin-spin coupling calculation done in   0.2 sec 

Maximum memory used throughout the entire PROP-calculation: 34.3 MB

--------------------------------
SUGGESTED CITATIONS FOR THIS RUN
--------------------------------

Below you find a list of papers that are relevant to this ORCA run
We neither can nor want to force you to cite these papers, but we appreciate if you do
You receive ORCA, which is the product of decades of hard work by many enthusiastic individuals, for free
The only thing we kindly ask in return is that you cite our papers,
We deeply appreciate it, if you show your appreciation for ORCA by not just citing the generic ORCA reference.

Please note that relegating all ORCA citations to the supporting information does *not* help us.
SI sections are not indexed - citations you put there will not count into any citation statistics
But we need these citations in order to attract the funding resources that allow us to do what we are doing

Therefore, if you are a happy ORCA user, please consider citing a few of the papers listed below in the main body of your paper

In addition to the list printed below, the program has created the file inpJ.bibtex that contains the list in bibtex format
You can import this file easily into all common literature databanks and citation aid programs


List of essential papers. We consider these as the minimum necessary citations

  1. Neese,F.
     Software update: the ORCA program system, version 5.0
     WIRES Comput. Molec. Sci., 2022 12(1)e1606
     doi.org/10.1002/wcms.1606

List of papers to cite with high priority. The work reported in these papers was absolutely
necessary for this run to complete.
Our perspective: the developers of density functionals and basis sets usually get cited in chemistry papers
Good! But without the algorithms to do something with them, the functionals or basis sets would not do anything.
Hence, in our opinion, the algorithm design and method developments papers are equally worthy of getting cited

  1. Neese,F.
     An improvement of the resolution of the identity approximation for the formation of the Coulomb matrix
     J. Comp. Chem., 2003 24(14)1740-1747
     doi.org/10.1002/jcc.10318
  2. Neese,F.; Wennmohs,F.; Hansen,A.; Becker,U.
     Efficient, approximate and parallel Hartree-Fock and hybrid DFT calculations. A 'chain-of-spheres' algorithm for the Hartree-Fock exchange
     Chem. Phys., 2009 356(1-3)98-109
     doi.org/10.1016/j.chemphys.2008.10.036
  3. Stoychev,G.L.; Auer,A.A.; Izsak,R.; Neese,F.
     Self-Consistent Field Calculation of Nuclear Magnetic Resonance Chemical Shielding Constants Using Gauge-Including Atomic Orbitals and Approximate Two-Electron Integrals
     J. Chem. Theory Comput., 2018 14(2)619-637
     doi.org/10.1021/acs.jctc.7b01006
  4. Garcia-Rates,M.; Neese,F.
     Effect of the Solute Cavity on the Solvation Energy and its Derivatives within the Framework of the Gaussian Charge Scheme
     J. Comput. Chem., 2020 41 922-939
     doi.org/10.1002/jcc.26139
  5. Helmich-Paris,B.; de Souza,B.; Neese,F.; Izsák,R.
     An improved chain of spheres for exchange algorithm
     J. Chem. Phys., 2021 155 104109
     doi.org/doi: 10.1063/5.0058766.
  6. Neese,F.
     The SHARK Integral Generation and Digestion System
     J. Comp. Chem., 2022  1-16
     doi.org/10.1002/jcc.26942
  7. Grimme,S.; Bannwarth,C.; Dohm,S.; Hansen,A.; Pisarek,J.; Pracht,P.; Seibert,J.; Neese,F.
     Fully Automated Quantum-Chemistry-Based Computation of Spin-Spin-Coupled Nuclear Magnetic Resonance Spectra
     Angew. Chem., Int. Ed., 2017 56 14763-14769
     doi.org/10.1002/anie.201708266
  8. Caldeweyher,E.; Bannwarth,C.; Grimme,S.
     Extension of the D3 dispersion coefficient model
     J. Chem. Phys., 2017 147 034112-XXXX
     doi.org/10.1063/1.4993215
  9. Caldeweyher,E.; Ehlert,S.; Hansen,A.; Neugebauer,H.; Spicher,S.; Bannwarth,C.; Grimme,S.
     A generally applicable atomic-charge dependent London dispersion correction
     J. Chem. Phys., 2019 150 154122-XXXX
     doi.org/10.1063/1.5090222
 10. Caldeweyher,E.; Mewes,J.; Ehlert,S.; Grimme,S.
     Extension and evaluation of the D4 London-dispersion model for periodic systems
     Phys. Chem. Chem. Phys., 2020 22(16)8499-8512
     doi.org/10.1039/D0CP00502A

List of suggested additional citations. These are papers that are important in the 'surrounding' of 
of this run, or papers that preceded the highly important papers. If you like your results we are grateful for a citation.

  1. Izsak,R.; Neese,F.
     An overlap fitted chain of spheres exchange method
     J. Chem. Phys., 2011 135 144105
     doi.org/10.1063/1.3646921
  2. Izsak,R.; Hansen,A.; Neese,F.
     The resolution of identity and chain of spheres approximations for the LPNO-CCSD singles Fock term
     Molec. Phys., 2012 110 2413-2417
     doi.org/10.1080/00268976.2012.687466
  3. Neese,F.
     The ORCA program system
     WIRES Comput. Molec. Sci., 2012 2(1)73-78
     doi.org/10.1002/wcms.81
  4. Izsak,R.; Neese,F.; Klopper,W.
     Robust fitting techniques in the chain of spheres approximation to the Fock exchange: The role of the complementary space
     J. Chem. Phys., 2013 139 
     doi.org/10.1063/1.4819264
  5. Neese,F.
     Software update: the ORCA program system, version 4.0
     WIRES Comput. Molec. Sci., 2018 8(1)1-6
     doi.org/10.1002/wcms.1327
  6. Neese,F.; Wennmohs,F.; Becker,U.; Riplinger,C.
     The ORCA quantum chemistry program package
     J. Chem. Phys., 2020 152 Art. No. L224108
     doi.org/10.1063/5.0004608

Timings for individual modules:

Sum of individual times          ...      136.603 sec (=   2.277 min)
Startup calculation              ...        3.647 sec (=   0.061 min)   2.7 %
SCF iterations                   ...       19.269 sec (=   0.321 min)  14.1 %
Property integrals               ...        0.753 sec (=   0.013 min)   0.6 %
SCF Response                     ...      112.429 sec (=   1.874 min)  82.3 %
Property calculations            ...        0.505 sec (=   0.008 min)   0.4 %
                             ****ORCA TERMINATED NORMALLY****
TOTAL RUN TIME: 0 days 0 hours 2 minutes 16 seconds 864 msec
