
                                 *****************
                                 * O   R   C   A *
                                 *****************

                                            #,                                       
                                            ###                                      
                                            ####                                     
                                            #####                                    
                                            ######                                   
                                           ########,                                 
                                     ,,################,,,,,                         
                               ,,#################################,,                 
                          ,,##########################################,,             
                       ,#########################################, ''#####,          
                    ,#############################################,,   '####,        
                  ,##################################################,,,,####,       
                ,###########''''           ''''###############################       
              ,#####''   ,,,,##########,,,,          '''####'''          '####       
            ,##' ,,,,###########################,,,                        '##       
           ' ,,###''''                  '''############,,,                           
         ,,##''                                '''############,,,,        ,,,,,,###''
      ,#''                                            '''#######################'''  
     '                                                          ''''####''''         
             ,#######,   #######,   ,#######,      ##                                
            ,#'     '#,  ##    ##  ,#'     '#,    #''#        ,####,   ,####,        
            ##       ##  ##   ,#'  ##            #'  '#       #'       #'  '#        
            ##       ##  #######   ##           ,######,      #####,   #    #        
            '#,     ,#'  ##    ##  '#,     ,#' ,#      #,     #,   #   #,  ,#        
             '#######'   ##     ##  '#######'  #'      '#     '####' # '####'        



                #########################################################
                #                        -***-                          #
                #          Department of theory and spectroscopy        #
                #                                                       #
                #                      Frank Neese                      #
                #                                                       #
                #     Directorship, Architecture, Infrastructure        #
                #                    SHARK, DRIVERS                     #
                #        Core code/Algorithms in most modules           #
                #                                                       #
                #        Max Planck Institute fuer Kohlenforschung      #
                #                Kaiser Wilhelm Platz 1                 #
                #                 D-45470 Muelheim/Ruhr                 #
                #                      Germany                          #
                #                                                       #
                #                  All rights reserved                  #
                #                        -***-                          #
                #########################################################


                         Program Version 6.0.0  -   RELEASE  -


 With contributions from (in alphabetic order):
   Daniel Aravena         : Magnetic Suceptibility
   Michael Atanasov       : Ab Initio Ligand Field Theory (pilot matlab implementation)
   Alexander A. Auer      : GIAO ZORA, VPT2 properties, NMR spectrum
   Ute Becker             : All parallelization in ORCA, NUMFREQ, NUMCALC
   Giovanni Bistoni       : ED, misc. LED, open-shell LED, HFLD
   Martin Brehm           : Molecular dynamics
   Dmytro Bykov           : pre 5.0 version of the SCF Hessian
   Marcos Casanova-Páez   : Triplet and SCS-CIS(D). UHF-(DLPNO)-IP/EA/STEOM-CCSD. UHF-CVS-IP/STEOM-CCSD
   Vijay G. Chilkuri      : MRCI spin determinant printing, contributions to CSF-ICE
   Pauline Colinet        : FMM embedding
   Dipayan Datta          : RHF DLPNO-CCSD density
   Achintya Kumar Dutta   : EOM-CC, STEOM-CC
   Nicolas Foglia         : Exact transition moments, OPA infrastructure, MCD improvements
   Dmitry Ganyushin       : Spin-Orbit,Spin-Spin,Magnetic field MRCI
   Miquel Garcia          : C-PCM and meta-GGA Hessian, CCSD/C-PCM, Gaussian charge scheme
   Tiago L. C. Gouveia    : GS-ROHF, GS-ROCIS
   Yang Guo               : DLPNO-NEVPT2, F12-NEVPT2, CIM, IAO-localization
   Andreas Hansen         : Spin unrestricted coupled pair/coupled cluster methods
   Ingolf Harden          : AUTO-CI MPn and infrastructure 
   Benjamin Helmich-Paris : MC-RPA, TRAH-(SCF,CASSCF), AVAS, COSX integrals, SCF dyn. polar.
   Lee Huntington         : MR-EOM, pCC
   Robert Izsak           : Overlap fitted RIJCOSX, COSX-SCS-MP3, EOM
   Riya Kayal             : Wick's Theorem for AUTO-CI, AUTO-CI UHF-CCSDT
   Emily Kempfer          : AUTO-CI, RHF CISDT and CCSDT
   Christian Kollmar      : KDIIS, OOCD, Brueckner-CCSD(T), CCSD density, CASPT2, CASPT2-K, improved NEVPT2
   Axel Koslowski         : Symmetry handling
   Simone Kossmann        : Meta GGA functionals, TD-DFT gradient, OOMP2, (MP2 Hessian; deprecated post 5.0)
   Lucas Lang             : DCDCAS
   Marvin Lechner         : AUTO-CI (C++ implementation), FIC-MRCC
   Spencer Leger          : CASSCF response
   Dagmar Lenk            : GEPOL surface, SMD, ORCA-2-JSON
   Dimitrios Liakos       : Extrapolation schemes; Compound Job, initial MDCI parallelization
   Dimitrios Manganas     : Further ROCIS development; embedding schemes. LFT, Crystal Embedding
   Dimitrios Pantazis     : SARC Basis sets
   Anastasios Papadopoulos: AUTO-CI, single reference methods and gradients
   Taras Petrenko         : pre 6.0 DFT Hessian and TD-DFT gradient, (ASA, deprecated), ECA, 1-Electron XAS/XES, NRVS
   Peter Pinski           : DLPNO-MP2, DLPNO-MP2 Gradient
   Christoph Reimann      : Effective Core Potentials
   Marius Retegan         : Local ZFS, SOC
   Christoph Riplinger    : Optimizer, TS searches, QM/MM, DLPNO-CCSD(T), (RO)-DLPNO pert. Triples
   Michael Roemelt        : Original ROCIS implementation
   Masaaki Saitow         : Open-shell DLPNO-CCSD energy and density
   Barbara Sandhoefer     : DKH picture change effects
   Kantharuban Sivalingam : CASSCF convergence/infrastructure, NEVPT2 and variants, FIC-MRCI
   Bernardo de Souza      : ESD, SOC TD-DFT
   Georgi Stoychev        : AutoAux, RI-MP2 NMR, DLPNO-MP2 response, X2C
   Van Anh Tran           : RI-MP2 g-tensors
   Willem Van den Heuvel  : Paramagnetic NMR
   Zikuan Wang            : NOTCH, Electric field optimization 
   Frank Wennmohs         : Technical directorship and infrastructure
   Hang Xu                : AUTO-CI-Response properties 


 We gratefully acknowledge several colleagues who have allowed us to
 interface, adapt or use parts of their codes:
   Stefan Grimme, W. Hujo, H. Kruse, P. Pracht,  : VdW corrections, initial TS optimization,
                  C. Bannwarth, S. Ehlert,         DFT functionals, gCP, sTDA/sTD-DF
                  L. Wittmann, M. Mueller
   Ed Valeev, F. Pavosevic, A. Kumar             : LibInt (2-el integral package), F12 methods
   Garnet Chan, S. Sharma, J. Yang, R. Olivares  : DMRG
   Ulf Ekstrom                                   : XCFun DFT Library
   Mihaly Kallay                                 : mrcc  (arbitrary order and MRCC methods)
   Frank Weinhold                                : gennbo (NPA and NBO analysis)
   Simon Mueller                                 : openCOSMO-RS
   Christopher J. Cramer and Donald G. Truhlar   : smd solvation model
   Lars Goerigk                                  : TD-DFT with DH, B97 family of functionals
   V. Asgeirsson, H. Jonsson                     : NEB implementation
   FAccTs GmbH                                   : IRC, NEB, NEB-TS, DLPNO-Multilevel, CI-OPT
                                                   MM, QMMM, 2- and 3-layer-ONIOM, Crystal-QMMM,
                                                   LR-CPCM, SF, NACMEs, symmetry and pop. for TD-DFT,
                                                   nearIR, NL-DFT gradient (VV10), updates on ESD,
                                                   ML-optimized integration grids, MBIS, APM,
                                                   GOAT, DOCKER, SOLVATOR, interface openCOSMO-RS
   S Lehtola, MJT Oliveira, MAL Marques          : LibXC Library
   Liviu Ungur et al                             : ANISO software


 Your calculation uses the libint2 library for the computation of 2-el integrals
 For citations please refer to: http://libint.valeyev.net

 Your ORCA version has been built with support for libXC version: 6.2.2
 For citations please refer to: https://libxc.gitlab.io

 This ORCA versions uses:
   CBLAS   interface :  Fast vector & matrix operations
   LAPACKE interface :  Fast linear algebra routines
   SCALAPACK package :  Parallel linear algebra routines
   Shared memory     :  Shared parallel matrices
   BLAS/LAPACK       :  OpenBLAS 0.3.27  USE64BITINT DYNAMIC_ARCH NO_AFFINITY Zen SINGLE_THREADED
        Core in use  :  Zen
   Copyright (c) 2011-2014, The OpenBLAS Project


NOTE: MaxCore=8000 MB was set to SCF,MP2,MDCI,CIPSI,MRCI and CIS
      => If you want to overwrite this, your respective input block should be placed after the MaxCore statement
Your calculation utilizes the atom-pairwise dispersion correction
based on EEQ partial charges (D4)


================================================================================

----- Orbital basis set information -----
Your calculation utilizes the basis: pcJ-0
   F. Jensen, Theor. Chem. Acc. 126, 371 (2010).

----- AuxJ basis set information -----
Your calculation utilizes the auxiliary basis: def2/J
   F. Weigend, Phys. Chem. Chem. Phys. 8, 1057 (2006).

================================================================================
                                        WARNINGS
                       Please study these warnings very carefully!
================================================================================

WARNING: Old DensityContainer found on disk!
         Will remove this file - 
         If you want to keep old densities, please start your calculation with a different basename. 


================================================================================
                                       INPUT FILE
================================================================================
NAME = inpJ
|  1> ! pbe0
|  2> ! D4
|  3> ! pcJ-0
|  4> ! def2/J RIJCOSX
|  5> ! DEFGRID2
|  6> ! scfconv7
|  7> ! smallprint printgap noloewdin
|  8> ! NOSOSCF
|  9> %MaxCore 8000
| 10> %output
| 11>        print[P_BondOrder_M] 1
| 12>        print[P_Mayer] 1
| 13>        print[P_basis] 2
| 14> end
| 15> %pal
| 16>     nprocs 4
| 17> end
| 18> ! CPCM(chloroform)
| 19> *xyz 0 1
| 20> C   -5.0248730900   0.2097763500  -0.4914650600
| 21> C   -6.4736555500  -0.1813786400  -0.6645441300
| 22> C   -7.3789821900   0.7259088800   0.1782684900
| 23> H   -6.6276035700  -1.2296828100  -0.3847054900
| 24> H   -6.7684817900  -0.0646183400  -1.7179867800
| 25> C   -4.7517830000   1.6395193500  -0.7570595900
| 26> C   -5.6811084600   2.5974051100  -0.0446868300
| 27> C   -7.1536056100   2.1912678600  -0.1984345800
| 28> H   -5.5231765300   3.6185098300  -0.4078970700
| 29> H   -5.4250620700   2.5943530800   1.0257969000
| 30> H   -7.4671641100   2.3314369800  -1.2419114400
| 31> H   -7.7875672400   2.8315257300   0.4258192400
| 32> O   -7.1617950600   0.4988962500   1.5808328500
| 33> H   -8.4287584200   0.4601008800   0.0029852700
| 34> C   -4.1032680600  -0.6857667300  -0.0636672100
| 35> C   -3.7904978300   2.0580091800  -1.5876865300
| 36> H   -3.1436642000   1.3539073500  -2.1043357200
| 37> H   -3.6365405400   3.1179419900  -1.7761364000
| 38> C   -2.7186832900  -0.4056627500   0.2406421200
| 39> H   -4.4573639100  -1.7038411900   0.0940177800
| 40> C   -1.7690683600  -1.3111927000   0.5578889900
| 41> H   -2.4320102900   0.6434164900   0.2186776900
| 42> C   -1.9596304100  -2.8058197100   0.6050842200
| 43> C   -0.9491477200  -3.5307624700  -0.3052977100
| 44> H   -2.9766732000  -3.1045770400   0.3375464800
| 45> H   -1.7858323100  -3.1369457000   1.6411969300
| 46> C    0.4989355900  -3.0949860800  -0.0451352600
| 47> H   -1.2125799500  -3.3402875100  -1.3534294800
| 48> H   -1.0400864200  -4.6132009900  -0.1526847200
| 49> C    0.6620159700  -1.5714722600  -0.1336493400
| 50> H    1.1569087900  -3.6079666800  -0.7543443500
| 51> H    0.7982554200  -3.4192743500   0.9629892600
| 52> C   -0.3534583500  -0.9318664600   0.8671293900
| 53> H   -0.1116354400  -1.3969036100   1.8405324900
| 54> C    0.0741951700   0.5307112400   0.9472116500
| 55> H   -6.2074471900   0.4199817900   1.7205808300
| 56> C    1.6179758400   0.4622433700   0.8507745700
| 57> H   -0.2743603100   1.0118687200   1.8670725600
| 58> H   -0.3364953300   1.1030365800   0.1079421000
| 59> C    1.9888392200  -0.9918846300   0.4300431700
| 60> H    2.0950036100   0.7197572300   1.8015558200
| 61> H    1.9983979800   1.1763483200   0.1110640400
| 62> H    2.2214313900  -1.5705413300   1.3393731700
| 63> C    3.2496362900  -1.0192370400  -0.4572551700
| 64> C    0.4115510200  -1.0712305300  -1.5636605600
| 65> H    0.6395930800  -0.0052490900  -1.6638218900
| 66> H   -0.6326539300  -1.2106479700  -1.8600929200
| 67> H    1.0399754400  -1.6135498100  -2.2786666000
| 68> H    3.0523790900  -0.4196607700  -1.3581343400
| 69> C    3.6638179800  -2.4349878300  -0.8872869700
| 70> C    4.3974755900  -0.3816306100   0.2813774400
| 71> C    5.0798397900   0.6808976800  -0.1434159400
| 72> H    4.6668684200  -0.8696221500   1.2212435700
| 73> H    4.7780979500   1.1313012800  -1.0932070200
| 74> C    6.2996707600   1.3146743700   0.4848203000
| 75> C    7.5128716400   0.9702486700  -0.4006770700
| 76> C    6.5183091200   0.9607996200   1.9688741300
| 77> H    6.1615876800   2.4084380100   0.4331311800
| 78> H    6.5152632800  -0.1360731200   2.0600669700
| 79> C    5.3963108000   1.5344561700   2.8415324000
| 80> C    7.8687451100   1.4666747200   2.4873705100
| 81> H    7.7789246800  -0.0873032000  -0.2825114000
| 82> H    8.3868374500   1.5792342500  -0.1514523200
| 83> H    7.2767189000   1.1395804800  -1.4567273800
| 84> H    4.4069762300   1.2180220500   2.5008072700
| 85> H    5.4264533600   2.6313682200   2.8151266300
| 86> H    5.5159020400   1.2227933400   3.8851478300
| 87> H    8.7132808800   0.9653755000   2.0061757800
| 88> H    7.9492144500   1.2935783800   3.5662054600
| 89> H    7.9691098400   2.5460791300   2.3137038100
| 90> H    2.9355929800  -2.8839639300  -1.5674022900
| 91> H    3.7649812900  -3.0911106700  -0.0139945400
| 92> H    4.6303059600  -2.4050694300  -1.4017398000
| 93> *
| 94> %eprnmr
| 95>  Nuclei = all C { ssfc }
| 96>  SpinSpinRThresh 8.0
| 97> end
| 98> 
| 99>                          ****END OF INPUT****
================================================================================

                       ****************************
                       * Single Point Calculation *
                       ****************************

---------------------------------
CARTESIAN COORDINATES (ANGSTROEM)
---------------------------------
  C     -5.024873    0.209776   -0.491465
  C     -6.473656   -0.181379   -0.664544
  C     -7.378982    0.725909    0.178268
  H     -6.627604   -1.229683   -0.384705
  H     -6.768482   -0.064618   -1.717987
  C     -4.751783    1.639519   -0.757060
  C     -5.681108    2.597405   -0.044687
  C     -7.153606    2.191268   -0.198435
  H     -5.523177    3.618510   -0.407897
  H     -5.425062    2.594353    1.025797
  H     -7.467164    2.331437   -1.241911
  H     -7.787567    2.831526    0.425819
  O     -7.161795    0.498896    1.580833
  H     -8.428758    0.460101    0.002985
  C     -4.103268   -0.685767   -0.063667
  C     -3.790498    2.058009   -1.587687
  H     -3.143664    1.353907   -2.104336
  H     -3.636541    3.117942   -1.776136
  C     -2.718683   -0.405663    0.240642
  H     -4.457364   -1.703841    0.094018
  C     -1.769068   -1.311193    0.557889
  H     -2.432010    0.643416    0.218678
  C     -1.959630   -2.805820    0.605084
  C     -0.949148   -3.530762   -0.305298
  H     -2.976673   -3.104577    0.337546
  H     -1.785832   -3.136946    1.641197
  C      0.498936   -3.094986   -0.045135
  H     -1.212580   -3.340288   -1.353429
  H     -1.040086   -4.613201   -0.152685
  C      0.662016   -1.571472   -0.133649
  H      1.156909   -3.607967   -0.754344
  H      0.798255   -3.419274    0.962989
  C     -0.353458   -0.931866    0.867129
  H     -0.111635   -1.396904    1.840532
  C      0.074195    0.530711    0.947212
  H     -6.207447    0.419982    1.720581
  C      1.617976    0.462243    0.850775
  H     -0.274360    1.011869    1.867073
  H     -0.336495    1.103037    0.107942
  C      1.988839   -0.991885    0.430043
  H      2.095004    0.719757    1.801556
  H      1.998398    1.176348    0.111064
  H      2.221431   -1.570541    1.339373
  C      3.249636   -1.019237   -0.457255
  C      0.411551   -1.071231   -1.563661
  H      0.639593   -0.005249   -1.663822
  H     -0.632654   -1.210648   -1.860093
  H      1.039975   -1.613550   -2.278667
  H      3.052379   -0.419661   -1.358134
  C      3.663818   -2.434988   -0.887287
  C      4.397476   -0.381631    0.281377
  C      5.079840    0.680898   -0.143416
  H      4.666868   -0.869622    1.221244
  H      4.778098    1.131301   -1.093207
  C      6.299671    1.314674    0.484820
  C      7.512872    0.970249   -0.400677
  C      6.518309    0.960800    1.968874
  H      6.161588    2.408438    0.433131
  H      6.515263   -0.136073    2.060067
  C      5.396311    1.534456    2.841532
  C      7.868745    1.466675    2.487371
  H      7.778925   -0.087303   -0.282511
  H      8.386837    1.579234   -0.151452
  H      7.276719    1.139580   -1.456727
  H      4.406976    1.218022    2.500807
  H      5.426453    2.631368    2.815127
  H      5.515902    1.222793    3.885148
  H      8.713281    0.965375    2.006176
  H      7.949214    1.293578    3.566205
  H      7.969110    2.546079    2.313704
  H      2.935593   -2.883964   -1.567402
  H      3.764981   -3.091111   -0.013995
  H      4.630306   -2.405069   -1.401740

----------------------------
CARTESIAN COORDINATES (A.U.)
----------------------------
  NO LB      ZA    FRAG     MASS         X           Y           Z
   0 C     6.0000    0    12.011   -9.495634    0.396420   -0.928734
   1 C     6.0000    0    12.011  -12.233436   -0.342756   -1.255806
   2 C     6.0000    0    12.011  -13.944255    1.371769    0.336879
   3 H     1.0000    0     1.008  -12.524356   -2.323764   -0.726988
   4 H     1.0000    0     1.008  -12.790577   -0.122111   -3.246525
   5 C     6.0000    0    12.011   -8.979569    3.098243   -1.430635
   6 C     6.0000    0    12.011  -10.735739    4.908384   -0.084446
   7 C     6.0000    0    12.011  -13.518355    4.140896   -0.374987
   8 H     1.0000    0     1.008  -10.437291    6.837993   -0.770814
   9 H     1.0000    0     1.008  -10.251882    4.902617    1.938475
  10 H     1.0000    0     1.008  -14.110895    4.405777   -2.346873
  11 H     1.0000    0     1.008  -14.716369    5.350808    0.804682
  12 O     8.0000    0    15.999  -13.533831    0.942777    2.987341
  13 H     1.0000    0     1.008  -15.928045    0.869465    0.005641
  14 C     6.0000    0    12.011   -7.754053   -1.295911   -0.120314
  15 C     6.0000    0    12.011   -7.163003    3.889074   -3.000293
  16 H     1.0000    0     1.008   -5.940664    2.558514   -3.976618
  17 H     1.0000    0     1.008   -6.872066    5.892056   -3.356411
  18 C     6.0000    0    12.011   -5.137567   -0.766592    0.454748
  19 H     1.0000    0     1.008   -8.423197   -3.219793    0.177668
  20 C     6.0000    0    12.011   -3.343055   -2.477795    1.054257
  21 H     1.0000    0     1.008   -4.595833    1.215881    0.413241
  22 C     6.0000    0    12.011   -3.703165   -5.302231    1.143443
  23 C     6.0000    0    12.011   -1.793629   -6.672174   -0.576929
  24 H     1.0000    0     1.008   -5.625097   -5.866800    0.637870
  25 H     1.0000    0     1.008   -3.374734   -5.927968    3.101413
  26 C     6.0000    0    12.011    0.942852   -5.848676   -0.085293
  27 H     1.0000    0     1.008   -2.291444   -6.312229   -2.557611
  28 H     1.0000    0     1.008   -1.965478   -8.717686   -0.288532
  29 C     6.0000    0    12.011    1.251029   -2.969652   -0.252561
  30 H     1.0000    0     1.008    2.186241   -6.818069   -1.425504
  31 H     1.0000    0     1.008    1.508484   -6.461492    1.819786
  32 C     6.0000    0    12.011   -0.667939   -1.760972    1.638637
  33 H     1.0000    0     1.008   -0.210960   -2.639765    3.478102
  34 C     6.0000    0    12.011    0.140209    1.002899    1.789971
  35 H     1.0000    0     1.008  -11.730375    0.793651    3.251427
  36 C     6.0000    0    12.011    3.057531    0.873513    1.607731
  37 H     1.0000    0     1.008   -0.518466    1.912155    3.528256
  38 H     1.0000    0     1.008   -0.635884    2.084437    0.203981
  39 C     6.0000    0    12.011    3.758361   -1.874390    0.812664
  40 H     1.0000    0     1.008    3.958983    1.360144    3.404447
  41 H     1.0000    0     1.008    3.776425    2.222976    0.209881
  42 H     1.0000    0     1.008    4.197897   -2.967893    2.531048
  43 C     6.0000    0    12.011    6.140923   -1.926079   -0.864087
  44 C     6.0000    0    12.011    0.777719   -2.024332   -2.954890
  45 H     1.0000    0     1.008    1.208656   -0.009919   -3.144168
  46 H     1.0000    0     1.008   -1.195543   -2.287793   -3.515066
  47 H     1.0000    0     1.008    1.965269   -3.049167   -4.306056
  48 H     1.0000    0     1.008    5.768161   -0.793044   -2.566502
  49 C     6.0000    0    12.011    6.923613   -4.601460   -1.676729
  50 C     6.0000    0    12.011    8.310025   -0.721177    0.531726
  51 C     6.0000    0    12.011    9.599506    1.286710   -0.271017
  52 H     1.0000    0     1.008    8.819103   -1.643348    2.307816
  53 H     1.0000    0     1.008    9.029297    2.137850   -2.065862
  54 C     6.0000    0    12.011   11.904652    2.484375    0.916178
  55 C     6.0000    0    12.011   14.197270    1.833504   -0.757170
  56 C     6.0000    0    12.011   12.317819    1.815648    3.720633
  57 H     1.0000    0     1.008   11.643713    4.551288    0.818499
  58 H     1.0000    0     1.008   12.312063   -0.257141    3.892962
  59 C     6.0000    0    12.011   10.197550    2.899702    5.369718
  60 C     6.0000    0    12.011   14.869773    2.771614    4.700449
  61 H     1.0000    0     1.008   14.700037   -0.164979   -0.533869
  62 H     1.0000    0     1.008   15.848826    2.984320   -0.286203
  63 H     1.0000    0     1.008   13.751006    2.153495   -2.752816
  64 H     1.0000    0     1.008    8.327978    2.301728    4.725841
  65 H     1.0000    0     1.008   10.254511    4.972565    5.319818
  66 H     1.0000    0     1.008   10.423544    2.310745    7.341865
  67 H     1.0000    0     1.008   16.465715    1.824295    3.791123
  68 H     1.0000    0     1.008   15.021838    2.444509    6.739152
  69 H     1.0000    0     1.008   15.059435    4.811392    4.372267
  70 H     1.0000    0     1.008    5.547467   -5.449902   -2.961961
  71 H     1.0000    0     1.008    7.114784   -5.841353   -0.026446
  72 H     1.0000    0     1.008    8.750010   -4.544923   -2.648904

--------------------------------
INTERNAL COORDINATES (ANGSTROEM)
--------------------------------
 C      0   0   0     0.000000000000     0.00000000     0.00000000
 C      1   0   0     1.510605576276     0.00000000     0.00000000
 C      2   1   0     1.533988292482   110.48256793     0.00000000
 H      2   1   3     1.095879231548   110.68133657   237.86669031
 H      2   1   3     1.100134944581   109.83145028   118.75192016
 C      1   2   3     1.479622822773   113.99502062   306.26739958
 C      6   1   2     1.512833728142   114.45161460    49.54846107
 C      3   2   1     1.529698253260   110.14060393    56.79650919
 H      7   6   1     1.095225557664   110.21723982   188.87766455
 H      7   6   1     1.100683644338   108.25885483    72.21802255
 H      8   3   2     1.098549167074   108.30581943    64.33049734
 H      8   3   2     1.096143384870   109.51639716   181.33189834
 O      3   2   1     1.437321038446   110.70429742   292.79793635
 H      3   2   1     1.096999650479   109.49169793   177.25543754
 C      1   2   3     1.354387034758   121.17045179   123.12518872
 C      6   1   2     1.337588886515   123.12264441   231.44179128
 H     16   6   1     1.086774823704   121.34945266   359.06171637
 H     16   6   1     1.087508051631   120.94970496   178.45953009
 C     15   1   2     1.445038889876   126.18109631   185.25904575
 H     15   1   2     1.089368639700   116.26237328     3.11816007
 C     19  15   1     1.349962437311   126.40402033   186.01036108
 H     19  15   1     1.087764265323   115.79867521     6.74827739
 C     21  19  15     1.507465151722   125.69731939     2.48798732
 C     23  21  19     1.541237337511   111.40670109   124.19457335
 H     23  21  19     1.093255880956   112.38845050     0.63645800
 H     23  21  19     1.101535178122   107.91147591   242.71690787
 C     24  23  21     1.534448055547   112.64368150    51.39846507
 H     24  23  21     1.097386649032   108.97416346   289.25368833
 H     24  23  21     1.096920107143   109.12434126   173.31701908
 C     27  24  23     1.534771746036   111.86436427   306.25711585
 H     27  24  23     1.095013863489   108.91751725   182.75687214
 H     27  24  23     1.100486388156   109.16629926    66.28739810
 C     21  19  15     1.497821658862   122.92019499   180.32213538
 H     33  21  19     1.105554822598   106.37856671   127.44720804
 C     33  21  19     1.525920781061   121.22840371     4.85977925
 H     13   3   2     0.967748338611   107.62620012    42.43646659
 C     35  33  21     1.548304465112   103.52007998   196.52111260
 H     35  33  21     1.095055951513   112.08796627    74.55028439
 H     35  33  21     1.095717280668   110.81816455   314.91720204
 C     30  27  24     1.553747406569   116.11054165   166.23921213
 H     37  35  33     1.094465105334   111.71980742   250.14748358
 H     37  35  33     1.096283974347   111.05220320   131.58035466
 H     40  30  27     1.102643978309   106.47297977   321.17941817
 C     40  30  27     1.541964899153   118.87210799    81.95503815
 C     30  27  24     1.535547644633   111.08555026   294.07834857
 H     45  30  27     1.094692606891   111.62066794   186.69498867
 H     45  30  27     1.094382631549   111.49264038    66.65442000
 H     45  30  27     1.095564279423   110.66832904   306.54067262
 H     44  40  30     1.099993356998   108.35938391    61.30820281
 C     44  40  30     1.536497354611   113.44103557   300.44777941
 C     44  40  30     1.506537470745   109.47180223   178.75707630
 C     51  44  40     1.332305026705   124.84991316   239.07530583
 H     51  44  40     1.092728961037   114.86793068    60.16064865
 H     52  51  44     1.093624540940   117.64847311     0.71897967
 C     52  51  44     1.511403738717   127.97028278   184.86388791
 C     55  52  51     1.540970807748   107.62790745   107.17633318
 C     55  52  51     1.541248144034   114.73685129   340.49855809
 H     55  52  51     1.103656469330   107.16509034   222.01251176
 H     57  55  52     1.100661264406   107.95066891    53.44196673
 C     57  55  52     1.532806094599   111.00354821   294.17101559
 C     57  55  52     1.532457332509   112.02446571   171.80501740
 H     56  55  52     1.096888008595   110.15451194   287.43676412
 H     56  55  52     1.093980187074   111.93950452   166.54094703
 H     56  55  52     1.095300705623   110.47164593    46.38782444
 H     60  57  55     1.093163783662   112.12827951    54.91672442
 H     60  57  55     1.097643787414   109.88940881   294.97491912
 H     60  57  55     1.095704773204   110.84919527   176.03382769
 H     61  57  55     1.093658970137   112.35306556   294.20264032
 H     61  57  55     1.095592308728   110.22682692   174.07322050
 H     61  57  55     1.097883000162   110.58454997    55.06775212
 H     50  44  40     1.092908064521   111.90559550    67.34675903
 H     50  44  40     1.096982618256   110.68100334   306.66674221
 H     50  44  40     1.095288017116   110.13003366   187.32599891

---------------------------
INTERNAL COORDINATES (A.U.)
---------------------------
 C      0   0   0     0.000000000000     0.00000000     0.00000000
 C      1   0   0     2.854630835537     0.00000000     0.00000000
 C      2   1   0     2.898817765433   110.48256793     0.00000000
 H      2   1   3     2.070911623478   110.68133657   237.86669031
 H      2   1   3     2.078953755614   109.83145028   118.75192016
 C      1   2   3     2.796081916541   113.99502062   306.26739958
 C      6   1   2     2.858841432348   114.45161460    49.54846107
 C      3   2   1     2.890710766199   110.14060393    56.79650919
 H      7   6   1     2.069676358856   110.21723982   188.87766455
 H      7   6   1     2.079990647886   108.25885483    72.21802255
 H      8   3   2     2.075957070417   108.30581943    64.33049734
 H      8   3   2     2.071410800913   109.51639716   181.33189834
 O      3   2   1     2.716143129186   110.70429742   292.79793635
 H      3   2   1     2.073028908412   109.49169793   177.25543754
 C      1   2   3     2.559420575027   121.17045179   123.12518872
 C      6   1   2     2.527676675291   123.12264441   231.44179128
 H     16   6   1     2.053706786040   121.34945266   359.06171637
 H     16   6   1     2.055092386016   120.94970496   178.45953009
 C     15   1   2     2.730727754730   126.18109631   185.25904575
 H     15   1   2     2.058608387916   116.26237328     3.11816007
 C     19  15   1     2.551059297599   126.40402033   186.01036108
 H     19  15   1     2.055576559726   115.79867521     6.74827739
 C     21  19  15     2.848696293185   125.69731939     2.48798732
 C     23  21  19     2.912516475269   111.40670109   124.19457335
 H     23  21  19     2.065954209305   112.38845050     0.63645800
 H     23  21  19     2.081599813531   107.91147591   242.71690787
 C     24  23  21     2.899686591712   112.64368150    51.39846507
 H     24  23  21     2.073760229692   108.97416346   289.25368833
 H     24  23  21     2.072878593291   109.12434126   173.31701908
 C     27  24  23     2.900298278088   111.86436427   306.25711585
 H     27  24  23     2.069276314841   108.91751725   182.75687214
 H     27  24  23     2.079617887722   109.16629926    66.28739810
 C     21  19  15     2.830472732705   122.92019499   180.32213538
 H     33  21  19     2.089195840747   106.37856671   127.44720804
 C     33  21  19     2.883572378264   121.22840371     4.85977925
 H     13   3   2     1.828779326532   107.62620012    42.43646659
 C     35  33  21     2.925871410990   103.52007998   196.52111260
 H     35  33  21     2.069355849680   112.08796627    74.55028439
 H     35  33  21     2.070605580667   110.81816455   314.91720204
 C     30  27  24     2.936157079706   116.11054165   166.23921213
 H     37  35  33     2.068239312215   111.71980742   250.14748358
 H     37  35  33     2.071676476522   111.05220320   131.58035466
 H     40  30  27     2.083695142221   106.47297977   321.17941817
 C     40  30  27     2.913891367519   118.87210799    81.95503815
 C     30  27  24     2.901764513944   111.08555026   294.07834857
 H     45  30  27     2.068669227852   111.62066794   186.69498867
 H     45  30  27     2.068083459347   111.49264038    66.65442000
 H     45  30  27     2.070316450217   110.66832904   306.54067262
 H     44  40  30     2.078686193858   108.35938391    61.30820281
 C     44  40  30     2.903559205710   113.44103557   300.44777941
 C     44  40  30     2.846943230198   109.47180223   178.75707630
 C     51  44  40     2.517691627319   124.84991316   239.07530583
 H     51  44  40     2.064958474964   114.86793068    60.16064865
 H     52  51  44     2.066650875713   117.64847311     0.71897967
 C     52  51  44     2.856139143960   127.97028278   184.86388791
 C     55  52  51     2.912012807010   107.62790745   107.17633318
 C     55  52  51     2.912536896639   114.73685129   340.49855809
 H     55  52  51     2.085608472965   107.16509034   222.01251176
 H     57  55  52     2.079948355943   107.95066891    53.44196673
 C     57  55  52     2.896583735198   111.00354821   294.17101559
 C     57  55  52     2.895924670361   112.02446571   171.80501740
 H     56  55  52     2.072817935827   110.15451194   287.43676412
 H     56  55  52     2.067322949505   111.93950452   166.54094703
 H     56  55  52     2.069818367918   110.47164593    46.38782444
 H     60  57  55     2.065780170643   112.12827951    54.91672442
 H     60  57  55     2.074246150812   109.88940881   294.97491912
 H     60  57  55     2.070581944986   110.84919527   176.03382769
 H     61  57  55     2.066715937466   112.35306556   294.20264032
 H     61  57  55     2.070369417926   110.22682692   174.07322050
 H     61  57  55     2.074698197394   110.58454997    55.06775212
 H     50  44  40     2.065296931499   111.90559550    67.34675903
 H     50  44  40     2.072996722175   110.68100334   306.66674221
 H     50  44  40     2.069794390115   110.13003366   187.32599891

---------------------
BASIS SET INFORMATION
---------------------
There are 3 groups of distinct atoms

 Group   1 Type C   : 7s4p contracted to 4s3p pattern {4111/211}
 Group   2 Type H   : 5s contracted to 3s pattern {311}
 Group   3 Type O   : 7s4p contracted to 4s3p pattern {4111/211}

Atom   0C    basis set group =>   1
Atom   1C    basis set group =>   1
Atom   2C    basis set group =>   1
Atom   3H    basis set group =>   2
Atom   4H    basis set group =>   2
Atom   5C    basis set group =>   1
Atom   6C    basis set group =>   1
Atom   7C    basis set group =>   1
Atom   8H    basis set group =>   2
Atom   9H    basis set group =>   2
Atom  10H    basis set group =>   2
Atom  11H    basis set group =>   2
Atom  12O    basis set group =>   3
Atom  13H    basis set group =>   2
Atom  14C    basis set group =>   1
Atom  15C    basis set group =>   1
Atom  16H    basis set group =>   2
Atom  17H    basis set group =>   2
Atom  18C    basis set group =>   1
Atom  19H    basis set group =>   2
Atom  20C    basis set group =>   1
Atom  21H    basis set group =>   2
Atom  22C    basis set group =>   1
Atom  23C    basis set group =>   1
Atom  24H    basis set group =>   2
Atom  25H    basis set group =>   2
Atom  26C    basis set group =>   1
Atom  27H    basis set group =>   2
Atom  28H    basis set group =>   2
Atom  29C    basis set group =>   1
Atom  30H    basis set group =>   2
Atom  31H    basis set group =>   2
Atom  32C    basis set group =>   1
Atom  33H    basis set group =>   2
Atom  34C    basis set group =>   1
Atom  35H    basis set group =>   2
Atom  36C    basis set group =>   1
Atom  37H    basis set group =>   2
Atom  38H    basis set group =>   2
Atom  39C    basis set group =>   1
Atom  40H    basis set group =>   2
Atom  41H    basis set group =>   2
Atom  42H    basis set group =>   2
Atom  43C    basis set group =>   1
Atom  44C    basis set group =>   1
Atom  45H    basis set group =>   2
Atom  46H    basis set group =>   2
Atom  47H    basis set group =>   2
Atom  48H    basis set group =>   2
Atom  49C    basis set group =>   1
Atom  50C    basis set group =>   1
Atom  51C    basis set group =>   1
Atom  52H    basis set group =>   2
Atom  53H    basis set group =>   2
Atom  54C    basis set group =>   1
Atom  55C    basis set group =>   1
Atom  56C    basis set group =>   1
Atom  57H    basis set group =>   2
Atom  58H    basis set group =>   2
Atom  59C    basis set group =>   1
Atom  60C    basis set group =>   1
Atom  61H    basis set group =>   2
Atom  62H    basis set group =>   2
Atom  63H    basis set group =>   2
Atom  64H    basis set group =>   2
Atom  65H    basis set group =>   2
Atom  66H    basis set group =>   2
Atom  67H    basis set group =>   2
Atom  68H    basis set group =>   2
Atom  69H    basis set group =>   2
Atom  70H    basis set group =>   2
Atom  71H    basis set group =>   2
Atom  72H    basis set group =>   2

-------------------------
BASIS SET IN INPUT FORMAT
-------------------------

 # Basis set for element : H 
 NewGTO H 
 S 3 
   1    1357.7500000000      0.0012928364
   2      54.3100000000      0.0588280685
   3       4.3448000000      0.9761499708
 S 1 
   1       0.6604910000      1.0000000000
 S 1 
   1       0.1366870000      1.0000000000
  end;

 # Basis set for element : C 
 NewGTO C 
 S 4 
   1  139534.0000000000      0.0001655246
   2    5581.3600000000      0.0074486101
   3     446.5090000000      0.1285821065
   4      67.4620000000      0.9218029311
 S 1 
   1      15.0674000000      1.0000000000
 S 1 
   1       3.9387600000      1.0000000000
 S 1 
   1       0.2999150000      1.0000000000
 P 2 
   1      28.3900000000      0.0816325586
   2       4.3676900000      0.9660360576
 P 1 
   1       0.8698170000      1.0000000000
 P 1 
   1       0.1889340000      1.0000000000
  end;

 # Basis set for element : O 
 NewGTO O 
 S 4 
   1  253789.0000000000      0.0001641076
   2   10151.6000000000      0.0074010921
   3     812.1250000000      0.1277711901
   4     122.6930000000      0.9223372164
 S 1 
   1      27.5608000000      1.0000000000
 S 1 
   1       7.3172600000      1.0000000000
 S 1 
   1       0.5792400000      1.0000000000
 P 2 
   1      53.4157000000      0.0793786106
   2       8.2177900000      0.9670506337
 P 1 
   1       1.6754400000      1.0000000000
 P 1 
   1       0.3506720000      1.0000000000
  end;

---------------------------------
AUXILIARY/J BASIS SET INFORMATION
---------------------------------
There are 3 groups of distinct atoms

 Group   1 Type C   : 12s5p4d2f1g contracted to 6s4p3d1f1g pattern {711111/2111/211/2/1}
 Group   2 Type H   : 5s2p1d contracted to 3s1p1d pattern {311/2/1}
 Group   3 Type O   : 12s5p4d2f1g contracted to 6s4p3d1f1g pattern {711111/2111/211/2/1}

Atom   0C    basis set group =>   1
Atom   1C    basis set group =>   1
Atom   2C    basis set group =>   1
Atom   3H    basis set group =>   2
Atom   4H    basis set group =>   2
Atom   5C    basis set group =>   1
Atom   6C    basis set group =>   1
Atom   7C    basis set group =>   1
Atom   8H    basis set group =>   2
Atom   9H    basis set group =>   2
Atom  10H    basis set group =>   2
Atom  11H    basis set group =>   2
Atom  12O    basis set group =>   3
Atom  13H    basis set group =>   2
Atom  14C    basis set group =>   1
Atom  15C    basis set group =>   1
Atom  16H    basis set group =>   2
Atom  17H    basis set group =>   2
Atom  18C    basis set group =>   1
Atom  19H    basis set group =>   2
Atom  20C    basis set group =>   1
Atom  21H    basis set group =>   2
Atom  22C    basis set group =>   1
Atom  23C    basis set group =>   1
Atom  24H    basis set group =>   2
Atom  25H    basis set group =>   2
Atom  26C    basis set group =>   1
Atom  27H    basis set group =>   2
Atom  28H    basis set group =>   2
Atom  29C    basis set group =>   1
Atom  30H    basis set group =>   2
Atom  31H    basis set group =>   2
Atom  32C    basis set group =>   1
Atom  33H    basis set group =>   2
Atom  34C    basis set group =>   1
Atom  35H    basis set group =>   2
Atom  36C    basis set group =>   1
Atom  37H    basis set group =>   2
Atom  38H    basis set group =>   2
Atom  39C    basis set group =>   1
Atom  40H    basis set group =>   2
Atom  41H    basis set group =>   2
Atom  42H    basis set group =>   2
Atom  43C    basis set group =>   1
Atom  44C    basis set group =>   1
Atom  45H    basis set group =>   2
Atom  46H    basis set group =>   2
Atom  47H    basis set group =>   2
Atom  48H    basis set group =>   2
Atom  49C    basis set group =>   1
Atom  50C    basis set group =>   1
Atom  51C    basis set group =>   1
Atom  52H    basis set group =>   2
Atom  53H    basis set group =>   2
Atom  54C    basis set group =>   1
Atom  55C    basis set group =>   1
Atom  56C    basis set group =>   1
Atom  57H    basis set group =>   2
Atom  58H    basis set group =>   2
Atom  59C    basis set group =>   1
Atom  60C    basis set group =>   1
Atom  61H    basis set group =>   2
Atom  62H    basis set group =>   2
Atom  63H    basis set group =>   2
Atom  64H    basis set group =>   2
Atom  65H    basis set group =>   2
Atom  66H    basis set group =>   2
Atom  67H    basis set group =>   2
Atom  68H    basis set group =>   2
Atom  69H    basis set group =>   2
Atom  70H    basis set group =>   2
Atom  71H    basis set group =>   2
Atom  72H    basis set group =>   2

-------------------------------------
AUXILIARY/J BASIS SET IN INPUT FORMAT
-------------------------------------

 # Auxiliary/J basis set for element : H 
 NewAuxJGTO H 
 S 3 
   1      15.6752927000      0.1007184237
   2       3.6063578000      0.3404257499
   3       1.2080016000      0.6491996172
 S 1 
   1       0.4726794000      1.0000000000
 S 1 
   1       0.2018100000      1.0000000000
 P 2 
   1       2.0281365000      0.5596620919
   2       0.5358730000      0.5596620919
 D 1 
   1       2.2165124000      1.0000000000
  end;

 # Auxiliary/J basis set for element : C 
 NewAuxJGTO C 
 S 7 
   1    1861.0916331000      0.0134602335
   2     642.9939764000      0.0299160374
   3     235.1105725000      0.1008649584
   4      90.7028894000      0.2370970548
   5      36.7794552000      0.3924037254
   6      15.6046273000      0.3195862154
   7       6.8907294000      0.0530104441
 S 1 
   1       3.1478850000     -1.0000000000
 S 1 
   1       1.4777287000      1.0000000000
 S 1 
   1       0.7076466000      1.0000000000
 S 1 
   1       0.3430122000      1.0000000000
 S 1 
   1       0.1669453000      1.0000000000
 P 2 
   1      13.5472892000     -0.6769313712
   2       5.4669419000     -0.3779500978
 P 1 
   1       2.1751721000      1.0000000000
 P 1 
   1       0.8582194000      1.0000000000
 P 1 
   1       0.3376720000      1.0000000000
 D 2 
   1       5.9287253000     -0.3533329857
   2       1.9809209000     -0.7456525731
 D 1 
   1       0.8055417000     -1.0000000000
 D 1 
   1       0.3531244000     -1.0000000000
 F 2 
   1       1.6755626000      0.6311076882
   2       0.5997536000      0.4968166032
 G 1 
   1       1.0024600000     -1.0000000000
  end;

 # Auxiliary/J basis set for element : O 
 NewAuxJGTO O 
 S 7 
   1    2876.8216605000      0.0168151159
   2    1004.7443032000      0.0340137548
   3     369.7579954000      0.1194951309
   4     142.9442404000      0.2664627624
   5      57.8366425000      0.4202764046
   6      24.3864983000      0.2765077335
   7      10.6622662000      0.0057008815
 S 1 
   1       4.8070437000     -1.0000000000
 S 1 
   1       2.2210770000      1.0000000000
 S 1 
   1       1.0447795000      1.0000000000
 S 1 
   1       0.4968425000      1.0000000000
 S 1 
   1       0.2371384000      1.0000000000
 P 2 
   1      64.2613382000     -0.2731534179
   2      16.3006076000     -0.8168011598
 P 1 
   1       4.3550542000      1.0000000000
 P 1 
   1       1.2019554000      1.0000000000
 P 1 
   1       0.3354196000      1.0000000000
 D 2 
   1       9.2146611000     -0.4661230638
   2       2.8435251000     -0.6600908911
 D 1 
   1       0.9955759000     -1.0000000000
 D 1 
   1       0.3649441000     -1.0000000000
 F 2 
   1       2.6420115000      0.5931563945
   2       0.7345613000      0.5931563945
 G 1 
   1       1.3931000000     -1.0000000000
  end;


Checking for AutoStart:
The File: inpJ.gbw exists
Trying to determine its content:
     ... Fine, the file contains calculation information
     ... Fine, the calculation information was read
     ... Fine, the file contains a basis set
     ... Fine, the basis set was read
     ... Fine, the file contains a geometry
     ... Fine, the geometry was read
     ... Fine, the file contains a set of orbitals
     ... Fine, the orbitals can be read
     => possible old guess file was deleted
     => GBW file was renamed to GES file
     => GES file is set as startup file
     => Guess is set to MORead
     ... now leaving AutoStart



           ************************************************************
           *        Program running with 4 parallel MPI-processes     *
           *              working on a common directory               *
           ************************************************************
------------------------------------------------------------------------------
                             ORCA STARTUP CALCULATIONS
                           -- RI-GTO INTEGRALS CHOSEN --
------------------------------------------------------------------------------
------------------------------------------------------------------------------
                   ___                                                        
                  /   \      - P O W E R E D   B Y -                         
                 /     \                                                     
                 |  |  |   _    _      __       _____    __    __             
                 |  |  |  | |  | |    /  \     |  _  \  |  |  /  |          
                  \  \/   | |  | |   /    \    | | | |  |  | /  /          
                 / \  \   | |__| |  /  /\  \   | |_| |  |  |/  /          
                |  |  |   |  __  | /  /__\  \  |    /   |      \           
                |  |  |   | |  | | |   __   |  |    \   |  |\   \          
                \     /   | |  | | |  |  |  |  | |\  \  |  | \   \       
                 \___/    |_|  |_| |__|  |__|  |_| \__\ |__|  \__/        
                                                                              
                      - O R C A' S   B I G   F R I E N D -                    
                                      &                                       
                       - I N T E G R A L  F E E D E R -                       
                                                                              
 v1 FN, 2020, v2 2021, v3 2022-2024                                           
------------------------------------------------------------------------------


----------------------
SHARK INTEGRAL PACKAGE
----------------------

Number of atoms                             ...     73
Number of basis functions                   ...    509
Number of shells                            ...    335
Maximum angular momentum                    ...      1
Integral batch strategy                     ... SHARK/LIBINT Hybrid
RI-J (if used) integral strategy            ... SPLIT-RIJ (Revised 2003 algorithm where possible)
Printlevel                                  ...      1
Contraction scheme used                     ... SEGMENTED contraction
Prescreening option                         ... SCHWARTZ
   Thresh                                   ... 3.000e-11
   Tcut                                     ... 1.000e-12
   Tpresel                                  ... 1.000e-12 
Coulomb Range Separation                    ... NOT USED
Exchange Range Separation                   ... NOT USED
Multipole approximations                    ... NOT USED
Finite Nucleus Model                        ... NOT USED
CABS basis                                  ... NOT available
Auxiliary Coulomb fitting basis             ... AVAILABLE
   # of basis functions in Aux-J            ...   1905
   # of shells in Aux-J                     ...    655
   Maximum angular momentum in Aux-J        ...      4
Auxiliary J/K fitting basis                 ... NOT available
Auxiliary Correlation fitting basis         ... NOT available
Auxiliary 'external' fitting basis          ... NOT available

Checking pre-screening integrals            ... done (  0.0 sec) Dimension = 335
Check shell pair data                       ... done (  0.0 sec)
Shell pair information
Shell pair cut-off parameter TPreSel        ...   1.0e-12
Total number of shell pairs                 ...     56280
Shell pairs after pre-screening             ...     21915
Total number of primitive shell pairs       ...    145865
Primitive shell pairs kept                  ...     37705
          la=0 lb=0:  11014 shell pairs
          la=1 lb=0:   9019 shell pairs
          la=1 lb=1:   1882 shell pairs

Calculating one electron integrals          ... done (  0.0 sec)
Calculating RI/J V-Matrix + Cholesky decomp.... done (  0.2 sec)
Calculating Nuclear repulsion               ... done (  0.0 sec) ENN=   2790.197660660765 Eh

Diagonalization of the overlap matrix:
Smallest eigenvalue                        ... 7.575e-03
Time for diagonalization                   ...    0.031 sec
Threshold for overlap eigenvalues          ... 1.000e-07
Number of eigenvalues below threshold      ... 0
Time for construction of square roots      ...    0.014 sec
Total time needed                          ...    0.047 sec

-------------------
DFT GRID GENERATION
-------------------

General Integration Accuracy     IntAcc      ... 4.388
Radial Grid Type                 RadialGrid  ... OptM3 with GC (2021)
Angular Grid (max. ang.)         AngularGrid ... 4 (Lebedev-302)
Angular grid pruning method      GridPruning ... 4 (adaptive)
Weight generation scheme         WeightScheme... mBecke (2022)
Basis function cutoff            BFCut       ... 1.0000e-11
Integration weight cutoff        WCut        ... 1.0000e-14
Partially contracted basis set               ... off
Rotationally invariant grid construction     ... off
Angular grids for H and He will be reduced by one unit

Total number of grid points                  ...   309838
Total number of batches                      ...     4873
Average number of points per batch           ...       63
Average number of grid points per atom       ...     4244

--------------------
COSX GRID GENERATION
--------------------

GRIDX 1
-------
General Integration Accuracy     IntAcc      ... 3.816
Radial Grid Type                 RadialGrid  ... OptM3 with GC (2021)
Angular Grid (max. ang.)         AngularGrid ... 1 (Lebedev-50)
Angular grid pruning method      GridPruning ... 4 (adaptive)
Weight generation scheme         WeightScheme... mBecke (2022)
Basis function cutoff            BFCut       ... 1.0000e-11
Integration weight cutoff        WCut        ... 1.0000e-14
Partially contracted basis set               ... on
Rotationally invariant grid construction     ... off
Angular grids for H and He will be reduced by one unit

Total number of grid points                  ...    39392
Total number of batches                      ...      349
Average number of points per batch           ...      112
Average number of grid points per atom       ...      540
UseSFitting                                  ... on

GRIDX 2
-------
General Integration Accuracy     IntAcc      ... 4.020
Radial Grid Type                 RadialGrid  ... OptM3 with GC (2021)
Angular Grid (max. ang.)         AngularGrid ... 2 (Lebedev-110)
Angular grid pruning method      GridPruning ... 4 (adaptive)
Weight generation scheme         WeightScheme... mBecke (2022)
Basis function cutoff            BFCut       ... 1.0000e-11
Integration weight cutoff        WCut        ... 1.0000e-14
Partially contracted basis set               ... on
Rotationally invariant grid construction     ... off
Angular grids for H and He will be reduced by one unit

Total number of grid points                  ...    81375
Total number of batches                      ...      678
Average number of points per batch           ...      120
Average number of grid points per atom       ...     1115
UseSFitting                                  ... on

GRIDX 3
-------
General Integration Accuracy     IntAcc      ... 4.338
Radial Grid Type                 RadialGrid  ... OptM3 with GC (2021)
Angular Grid (max. ang.)         AngularGrid ... 3 (Lebedev-194)
Angular grid pruning method      GridPruning ... 4 (adaptive)
Weight generation scheme         WeightScheme... mBecke (2022)
Basis function cutoff            BFCut       ... 1.0000e-11
Integration weight cutoff        WCut        ... 1.0000e-14
Partially contracted basis set               ... on
Rotationally invariant grid construction     ... off
Angular grids for H and He will be reduced by one unit

Total number of grid points                  ...   176154
Total number of batches                      ...     1415
Average number of points per batch           ...      124
Average number of grid points per atom       ...     2413
UseSFitting                                  ... on
Initializing property integral containers    ... done (  0.0 sec)

SHARK setup successfully completed in   3.6 seconds

Maximum memory used throughout the entire STARTUP-calculation: 85.7 MB


           ************************************************************
           *        Program running with 4 parallel MPI-processes     *
           *              working on a common directory               *
           ************************************************************
-------------------------------------------------------------------------------
                                 ORCA GUESS
                   Start orbitals & Density for SCF / CASSCF
-------------------------------------------------------------------------------

------------
SCF SETTINGS
------------
Hamiltonian:
 Density Functional     Method          .... DFT(GTOs)
 Exchange Functional    Exchange        .... PBE
   PBE kappa parameter   XKappa         ....  0.804000
   PBE mue parameter    XMuePBE         ....  0.219520
 Correlation Functional Correlation     .... PBE
   PBE beta parameter  CBetaPBE         ....  0.066725
 LDA part of GGA corr.  LDAOpt          .... PW91-LDA
 Gradients option       PostSCFGGA      .... off
 Hybrid DFT is turned on
   Fraction HF Exchange ScalHFX         ....  0.250000
   Scaling of DF-GGA-X  ScalDFX         ....  0.750000
   Scaling of DF-GGA-C  ScalDFC         ....  1.000000
   Scaling of DF-LDA-C  ScalLDAC        ....  1.000000
   Perturbative correction              ....  0.000000
   NL short-range parameter             ....  6.900000
 RI-approximation to the Coulomb term is turned on
   Number of AuxJ basis functions       .... 1905
   RIJ-COSX (HFX calculated with COS-X)).... on


General Settings:
 Integral files         IntName         .... inpJ
 Hartree-Fock type      HFTyp           .... RHF
 Total Charge           Charge          ....    0
 Multiplicity           Mult            ....    1
 Number of Electrons    NEL             ....  220
 Basis Dimension        Dim             ....  509
 Nuclear Repulsion      ENuc            ....   2790.1976606608 Eh

Convergence Acceleration:
 AO-DIIS                CNVDIIS         .... on
   Start iteration      DIISMaxIt       ....    12
   Startup error        DIISStart       ....  0.200000
   # of expansion vecs  DIISMaxEq       ....     5
   Bias factor          DIISBfac        ....   1.050
   Max. coefficient     DIISMaxC        ....  10.000
 MO-DIIS                CNVKDIIS        .... off
 Trust-Rad. Augm. Hess. CNVTRAH         .... auto
   Auto Start mean grad. ratio tolernc. ....  1.125000
   Auto Start start iteration           ....     1
   Auto Start num. interpolation iter.  ....    10
   Max. Number of Micro iterations      ....    24
   Max. Number of Macro iterations      .... Maxiter - #DIIS iter
   Number of Davidson start vectors     ....     2
   Converg. threshold    (grad. norm)   ....   1.000e-04
   Grad. Scal. Fac. for Micro threshold ....   0.100
   Minimum threshold for Micro iter.    ....   1.000e-02
   NR start threshold (gradient norm)   ....   1.000e-04
   Initial trust radius                 ....   0.400
   Minimum AH scaling param. (alpha)    ....   1.000
   Maximum AH scaling param. (alpha)    .... 1000.000
   Quad. conv. algorithm                .... NR
   White noise on init. David. guess    .... on
   Maximum white noise                  ....   0.010
   Pseudo random numbers                .... off
   Inactive MOs                         .... canonical
   Orbital update algorithm             .... Taylor
   Preconditioner                       .... Diag
   Full preconditioner red. dimension   ....   250
 SOSCF                  CNVSOSCF        .... off
 Level Shifting         CNVShift        .... on
   Level shift para.    LevelShift      ....    0.2500
   Turn off err/grad.   ShiftErr        ....    0.0010
 Zerner damping         CNVZerner       .... off
 Static damping         CNVDamp         .... on
   Fraction old density DampFac         ....    0.7000
   Max. Damping (<1)    DampMax         ....    0.9800
   Min. Damping (>=0)   DampMin         ....    0.0000
   Turn off err/grad.   DampErr         ....    0.1000

SCF Procedure:
 Maximum # iterations   MaxIter         ....   125
 SCF integral mode      SCFMode         .... Direct
   Integral package                     .... SHARK and LIBINT hybrid scheme
 Reset frequency        DirectResetFreq ....    20
 Integral Threshold     Thresh          ....  3.000e-11 Eh
 Primitive CutOff       TCut            ....  1.000e-12 Eh

Convergence Tolerance:
 Convergence Check Mode ConvCheckMode   .... Total+1el-Energy
 Convergence forced     ConvForced      .... 0
 Energy Change          TolE            ....  1.000e-07 Eh
 1-El. energy change                    ....  1.000e-04 Eh
 DIIS Error             TolErr          ....  1.000e-07

---------------------
INITIAL GUESS: MOREAD
---------------------
Guess MOs are being read from file: inpJ.ges
Input Geometry matches current geometry (good)
Input basis set matches current basis set (good)
Occupation numbers will be reassigned to an Aufbau configuration
MOs were renormalized
MOs were reorthogonalized (Cholesky)
                      ------------------
                      INITIAL GUESS DONE (   0.1 sec)
                      ------------------
             **** ENERGY FILE WAS UPDATED (inpJ.en.tmp) ****
Finished Guess after   0.2 sec
Maximum memory used throughout the entire GUESS-calculation: 36.8 MB


           ************************************************************
           *        Program running with 4 parallel MPI-processes     *
           *              working on a common directory               *
           ************************************************************

-------------------------------------------------------------------------------------------
                                      ORCA LEAN-SCF
                              memory conserving SCF solver
-------------------------------------------------------------------------------------------

--------------------
CPCM SOLVATION MODEL
--------------------
CPCM parameters:
  Epsilon                                         ...       4.8030
  Refrac                                          ...       1.4459
  Rsolv                                           ...       1.3000
  Surface type                                    ... GAUSSIAN VDW
  Discretization scheme                           ... Constant charge density
    Threshold for H atoms                         ...       5.0000 (charges/Ang^2)
    Threshold for non-H atoms                     ...       5.0000 (charges/Ang^2)
  Epsilon function type                           ...         CPCM
Solvent:                                          ... CHLOROFORM
Radii:
  Scheme                                          ... Element-dependent radii
  Radius for C  used is    3.8550 Bohr (=   2.0400 Ang.)
  Radius for H  used is    2.4944 Bohr (=   1.3200 Ang.)
  Radius for O  used is    3.4469 Bohr (=   1.8240 Ang.)
Calculating surface                               ...        done! (  0.0s)
Cavity surface points                             ...         5358
Cavity Volume                                     ...    3618.5029
Cavity Surface-area                               ...    1787.3269
Calculating surface distance matrix               ...        done! (  0.2s)
Performing Cholesky decomposition & store         ...        done! (  0.9s)
Overall time for CPCM initialization              ...                 1.1s

----------------------------------------D-I-I-S--------------------------------------------
Iteration    Energy (Eh)           Delta-E    RMSDP     MaxDP     DIISErr   Damp  Time(sec)
-------------------------------------------------------------------------------------------
               ***  Starting incremental Fock matrix formation  ***
    1    -1165.5108636142413161     0.00e+00  4.27e-08  5.50e-06  6.59e-06  0.700   6.2

  HOMO= 109 E= -6.011 eV LUMO=  5.935 eV gap=  11.946 eV
    2    -1165.5108636417849084    -2.75e-08  2.89e-08  3.30e-06  3.31e-06  0.700   2.0
                 **** Energy Check signals convergence ****

  HOMO= 109 E= -6.011 eV LUMO=  5.935 eV gap=  11.946 eV

               *****************************************************
               *                     SUCCESS                       *
               *           SCF CONVERGED AFTER   2 CYCLES          *
               *****************************************************

Recomputing exchange energy using gridx3       ... done (    8.261 sec)
Old exchange energy                            :    -42.067078357 Eh
New exchange energy                            :    -42.067092017 Eh
Exchange energy change after final integration :     -0.000013660 Eh
Total energy after final integration           :  -1165.510877302 Eh
             **** ENERGY FILE WAS UPDATED (inpJ.en.tmp) ****

----------------
TOTAL SCF ENERGY
----------------

Total Energy       :      -1165.51087730181644 Eh          -31715.16334 eV

Components:
Nuclear Repulsion  :       2790.19766066076500 Eh           75925.13831 eV
Electronic Energy  :      -3955.69505986410832 Eh         -107639.93489 eV
One Electron Energy:      -7122.15127520030182 Eh         -193803.58898 eV
Two Electron Energy:       3166.45621533619351 Eh           86163.65409 eV
CPCM Dielectric    :         -0.01346443844167 Eh              -0.36639 eV

Virial components:
Potential Energy   :      -2322.40180861071894 Eh          -63195.76602 eV
Kinetic Energy     :       1156.89093130890274 Eh           31480.60268 eV
Virial Ratio       :          2.00745095821882

DFT components:
N(Alpha)           :      110.000131276857 electrons
N(Beta)            :      110.000131276857 electrons
N(Total)           :      220.000262553713 electrons
E(X)               :     -125.743917068947 Eh       
E(C)               :       -7.327998021347 Eh       
E(XC)              :     -133.071915090295 Eh       

CPCM Solvation Model Properties:
Surface-charge          :         -0.03346638996078
Corrected charge        :         -0.00000000000000
Outlying charge corr.   :          0.00003933075001 Eh               0.00107 eV
Free-energy (cav+disp)  :  This term is not implemented in the current solvation scheme

---------------
SCF CONVERGENCE
---------------

  Last Energy change         ...    2.7544e-08  Tolerance :   1.0000e-07
  Last MAX-Density change    ...    3.3015e-06  Tolerance :   1.0000e-05
  Last RMS-Density change    ...    2.8914e-08  Tolerance :   1.0000e-06
  Last DIIS Error            ...    3.3102e-06  Tolerance :   1.0000e-07


----------------
ORBITAL ENERGIES
----------------

  NO   OCC          E(Eh)            E(eV) 
   0   2.0000     -19.212529      -522.7995 
   1   2.0000     -10.300494      -280.2907 
   2   2.0000     -10.270550      -279.4759 
   3   2.0000     -10.268374      -279.4167 
   4   2.0000     -10.263773      -279.2915 
   5   2.0000     -10.257583      -279.1230 
   6   2.0000     -10.257186      -279.1122 
   7   2.0000     -10.252244      -278.9777 
   8   2.0000     -10.250354      -278.9263 
   9   2.0000     -10.248211      -278.8680 
  10   2.0000     -10.247968      -278.8614 
  11   2.0000     -10.247655      -278.8529 
  12   2.0000     -10.246380      -278.8182 
  13   2.0000     -10.245448      -278.7928 
  14   2.0000     -10.245242      -278.7872 
  15   2.0000     -10.244755      -278.7739 
  16   2.0000     -10.243244      -278.7328 
  17   2.0000     -10.242983      -278.7257 
  18   2.0000     -10.241815      -278.6940 
  19   2.0000     -10.241551      -278.6868 
  20   2.0000     -10.240290      -278.6525 
  21   2.0000     -10.234672      -278.4996 
  22   2.0000     -10.234391      -278.4919 
  23   2.0000     -10.233145      -278.4580 
  24   2.0000     -10.227834      -278.3135 
  25   2.0000     -10.226211      -278.2694 
  26   2.0000     -10.224506      -278.2230 
  27   2.0000     -10.221874      -278.1513 
  28   2.0000     -10.220989      -278.1273 
  29   2.0000      -1.043296       -28.3895 
  30   2.0000      -0.901614       -24.5342 
  31   2.0000      -0.882224       -24.0065 
  32   2.0000      -0.860896       -23.4262 
  33   2.0000      -0.846426       -23.0324 
  34   2.0000      -0.822589       -22.3838 
  35   2.0000      -0.814383       -22.1605 
  36   2.0000      -0.795978       -21.6597 
  37   2.0000      -0.795130       -21.6366 
  38   2.0000      -0.777428       -21.1549 
  39   2.0000      -0.758550       -20.6412 
  40   2.0000      -0.742233       -20.1972 
  41   2.0000      -0.736618       -20.0444 
  42   2.0000      -0.715110       -19.4591 
  43   2.0000      -0.702972       -19.1289 
  44   2.0000      -0.700157       -19.0522 
  45   2.0000      -0.695638       -18.9293 
  46   2.0000      -0.670813       -18.2538 
  47   2.0000      -0.657283       -17.8856 
  48   2.0000      -0.629465       -17.1286 
  49   2.0000      -0.622234       -16.9318 
  50   2.0000      -0.612314       -16.6619 
  51   2.0000      -0.606212       -16.4959 
  52   2.0000      -0.597217       -16.2511 
  53   2.0000      -0.592931       -16.1345 
  54   2.0000      -0.557592       -15.1729 
  55   2.0000      -0.550880       -14.9902 
  56   2.0000      -0.539591       -14.6830 
  57   2.0000      -0.529532       -14.4093 
  58   2.0000      -0.515431       -14.0256 
  59   2.0000      -0.509153       -13.8548 
  60   2.0000      -0.498274       -13.5587 
  61   2.0000      -0.490326       -13.3425 
  62   2.0000      -0.487296       -13.2600 
  63   2.0000      -0.481169       -13.0933 
  64   2.0000      -0.473742       -12.8912 
  65   2.0000      -0.467064       -12.7094 
  66   2.0000      -0.464213       -12.6319 
  67   2.0000      -0.459383       -12.5004 
  68   2.0000      -0.457807       -12.4576 
  69   2.0000      -0.450675       -12.2635 
  70   2.0000      -0.445616       -12.1258 
  71   2.0000      -0.439146       -11.9498 
  72   2.0000      -0.436198       -11.8695 
  73   2.0000      -0.435102       -11.8397 
  74   2.0000      -0.432334       -11.7644 
  75   2.0000      -0.423361       -11.5202 
  76   2.0000      -0.421088       -11.4584 
  77   2.0000      -0.414048       -11.2668 
  78   2.0000      -0.411149       -11.1879 
  79   2.0000      -0.403068       -10.9680 
  80   2.0000      -0.401585       -10.9277 
  81   2.0000      -0.396111       -10.7787 
  82   2.0000      -0.394274       -10.7287 
  83   2.0000      -0.391420       -10.6511 
  84   2.0000      -0.389856       -10.6085 
  85   2.0000      -0.381228       -10.3737 
  86   2.0000      -0.375635       -10.2216 
  87   2.0000      -0.373805       -10.1718 
  88   2.0000      -0.369604       -10.0574 
  89   2.0000      -0.364830        -9.9275 
  90   2.0000      -0.360691        -9.8149 
  91   2.0000      -0.358751        -9.7621 
  92   2.0000      -0.353026        -9.6063 
  93   2.0000      -0.344590        -9.3768 
  94   2.0000      -0.341445        -9.2912 
  95   2.0000      -0.341013        -9.2794 
  96   2.0000      -0.338578        -9.2132 
  97   2.0000      -0.334841        -9.1115 
  98   2.0000      -0.332768        -9.0551 
  99   2.0000      -0.329801        -8.9743 
 100   2.0000      -0.327681        -8.9167 
 101   2.0000      -0.319333        -8.6895 
 102   2.0000      -0.318814        -8.6754 
 103   2.0000      -0.316752        -8.6192 
 104   2.0000      -0.310770        -8.4565 
 105   2.0000      -0.301279        -8.1982 
 106   2.0000      -0.276727        -7.5301 
 107   2.0000      -0.275302        -7.4913 
 108   2.0000      -0.257028        -6.9941 
 109   2.0000      -0.220895        -6.0109 
 110   0.0000      -0.031894        -0.8679 
 111   0.0000       0.019372         0.5271 
 112   0.0000       0.027922         0.7598 
 113   0.0000       0.079659         2.1676 
 114   0.0000       0.087305         2.3757 
 115   0.0000       0.099628         2.7110 
 116   0.0000       0.103837         2.8255 
 117   0.0000       0.107304         2.9199 
 118   0.0000       0.111611         3.0371 
 119   0.0000       0.115706         3.1485 
 120   0.0000       0.117588         3.1997 
*Only the first 10 virtual orbitals were printed.

                    ********************************
                    * MULLIKEN POPULATION ANALYSIS *
                    ********************************

-----------------------
MULLIKEN ATOMIC CHARGES
-----------------------
   0 C :    0.078537
   1 C :   -0.500551
   2 C :   -0.074340
   3 H :    0.222933
   4 H :    0.219758
   5 C :    0.138900
   6 C :   -0.480221
   7 C :   -0.439835
   8 H :    0.225434
   9 H :    0.207319
  10 H :    0.208830
  11 H :    0.227893
  12 O :   -0.488115
  13 H :    0.247393
  14 C :   -0.280419
  15 C :   -0.514057
  16 H :    0.201020
  17 H :    0.196993
  18 C :   -0.260707
  19 H :    0.220188
  20 C :    0.153904
  21 H :    0.219344
  22 C :   -0.479057
  23 C :   -0.427605
  24 H :    0.211874
  25 H :    0.206998
  26 C :   -0.397427
  27 H :    0.208768
  28 H :    0.217331
  29 C :    0.002770
  30 H :    0.222012
  31 H :    0.194514
  32 C :   -0.229567
  33 H :    0.227863
  34 C :   -0.433185
  35 H :    0.341075
  36 C :   -0.423092
  37 H :    0.208281
  38 H :    0.198123
  39 C :   -0.187112
  40 H :    0.214878
  41 H :    0.206213
  42 H :    0.209491
  43 C :   -0.249262
  44 C :   -0.627457
  45 H :    0.205386
  46 H :    0.209228
  47 H :    0.200854
  48 H :    0.218797
  49 C :   -0.619116
  50 C :   -0.183212
  51 C :   -0.173347
  52 H :    0.212120
  53 H :    0.211200
  54 C :   -0.231440
  55 C :   -0.615754
  56 C :   -0.214350
  57 H :    0.214263
  58 H :    0.210463
  59 C :   -0.619916
  60 C :   -0.609759
  61 H :    0.196335
  62 H :    0.208802
  63 H :    0.207870
  64 H :    0.222464
  65 H :    0.189524
  66 H :    0.197524
  67 H :    0.210182
  68 H :    0.206544
  69 H :    0.191249
  70 H :    0.211279
  71 H :    0.193322
  72 H :    0.202862
Sum of atomic charges:   -0.0000000

--------------------------------
MULLIKEN REDUCED ORBITAL CHARGES
--------------------------------
  0 C s       :     3.354222  s :     3.354222
      pz      :     1.002935  p :     2.567241
      px      :     0.809186
      py      :     0.755120

  1 C s       :     3.378003  s :     3.378003
      pz      :     1.131489  p :     3.122547
      px      :     0.872160
      py      :     1.118898

  2 C s       :     3.312705  s :     3.312705
      pz      :     0.707858  p :     2.761635
      px      :     1.144097
      py      :     0.909680

  3 H s       :     0.777067  s :     0.777067

  4 H s       :     0.780242  s :     0.780242

  5 C s       :     3.341517  s :     3.341517
      pz      :     0.891355  p :     2.519583
      px      :     0.861484
      py      :     0.766744

  6 C s       :     3.367287  s :     3.367287
      pz      :     1.131503  p :     3.112934
      px      :     0.888655
      py      :     1.092776

  7 C s       :     3.338580  s :     3.338580
      pz      :     1.183077  p :     3.101254
      px      :     0.964435
      py      :     0.953742

  8 H s       :     0.774566  s :     0.774566

  9 H s       :     0.792681  s :     0.792681

 10 H s       :     0.791170  s :     0.791170

 11 H s       :     0.772107  s :     0.772107

 12 O s       :     3.685000  s :     3.685000
      pz      :     1.438805  p :     4.803115
      px      :     1.463187
      py      :     1.901124

 13 H s       :     0.752607  s :     0.752607

 14 C s       :     3.394180  s :     3.394180
      pz      :     0.980008  p :     2.886239
      px      :     0.830871
      py      :     1.075360

 15 C s       :     3.385411  s :     3.385411
      pz      :     0.993528  p :     3.128647
      px      :     0.988572
      py      :     1.146546

 16 H s       :     0.798980  s :     0.798980

 17 H s       :     0.803007  s :     0.803007

 18 C s       :     3.397510  s :     3.397510
      pz      :     1.015431  p :     2.863197
      px      :     0.770888
      py      :     1.076878

 19 H s       :     0.779812  s :     0.779812

 20 C s       :     3.350566  s :     3.350566
      pz      :     0.943516  p :     2.495530
      px      :     0.760665
      py      :     0.791349

 21 H s       :     0.780656  s :     0.780656

 22 C s       :     3.372495  s :     3.372495
      pz      :     1.108248  p :     3.106562
      px      :     1.111314
      py      :     0.887000

 23 C s       :     3.327517  s :     3.327517
      pz      :     1.091326  p :     3.100088
      px      :     0.889424
      py      :     1.119339

 24 H s       :     0.788126  s :     0.788126

 25 H s       :     0.793002  s :     0.793002

 26 C s       :     3.349939  s :     3.349939
      pz      :     1.174428  p :     3.047488
      px      :     0.962315
      py      :     0.910746

 27 H s       :     0.791232  s :     0.791232

 28 H s       :     0.782669  s :     0.782669

 29 C s       :     3.317632  s :     3.317632
      pz      :     0.868619  p :     2.679598
      px      :     0.905132
      py      :     0.905847

 30 H s       :     0.777988  s :     0.777988

 31 H s       :     0.805486  s :     0.805486

 32 C s       :     3.362658  s :     3.362658
      pz      :     1.073455  p :     2.866908
      px      :     0.860702
      py      :     0.932751

 33 H s       :     0.772137  s :     0.772137

 34 C s       :     3.344511  s :     3.344511
      pz      :     1.190500  p :     3.088674
      px      :     0.932168
      py      :     0.966007

 35 H s       :     0.658925  s :     0.658925

 36 C s       :     3.336545  s :     3.336545
      pz      :     1.171324  p :     3.086547
      px      :     0.934967
      py      :     0.980256

 37 H s       :     0.791719  s :     0.791719

 38 H s       :     0.801877  s :     0.801877

 39 C s       :     3.337592  s :     3.337592
      pz      :     1.054239  p :     2.849520
      px      :     0.858694
      py      :     0.936587

 40 H s       :     0.785122  s :     0.785122

 41 H s       :     0.793787  s :     0.793787

 42 H s       :     0.790509  s :     0.790509

 43 C s       :     3.345294  s :     3.345294
      pz      :     1.065452  p :     2.903969
      px      :     0.873470
      py      :     0.965047

 44 C s       :     3.365749  s :     3.365749
      pz      :     0.960205  p :     3.261708
      px      :     1.163016
      py      :     1.138487

 45 H s       :     0.794614  s :     0.794614

 46 H s       :     0.790772  s :     0.790772

 47 H s       :     0.799146  s :     0.799146

 48 H s       :     0.781203  s :     0.781203

 49 C s       :     3.347212  s :     3.347212
      pz      :     1.142277  p :     3.271904
      px      :     1.153701
      py      :     0.975926

 50 C s       :     3.341516  s :     3.341516
      pz      :     1.058109  p :     2.841695
      px      :     0.895052
      py      :     0.888534

 51 C s       :     3.342481  s :     3.342481
      pz      :     1.067563  p :     2.830865
      px      :     0.873044
      py      :     0.890258

 52 H s       :     0.787880  s :     0.787880

 53 H s       :     0.788800  s :     0.788800

 54 C s       :     3.340499  s :     3.340499
      pz      :     0.888258  p :     2.890941
      px      :     0.883780
      py      :     1.118904

 55 C s       :     3.344319  s :     3.344319
      pz      :     1.097498  p :     3.271435
      px      :     1.019796
      py      :     1.154141

 56 C s       :     3.315172  s :     3.315172
      pz      :     0.877152  p :     2.899178
      px      :     0.890545
      py      :     1.131481

 57 H s       :     0.785737  s :     0.785737

 58 H s       :     0.789537  s :     0.789537

 59 C s       :     3.343512  s :     3.343512
      pz      :     1.090596  p :     3.276404
      px      :     1.061217
      py      :     1.124591

 60 C s       :     3.341055  s :     3.341055
      pz      :     1.143287  p :     3.268704
      px      :     0.992461
      py      :     1.132955

 61 H s       :     0.803665  s :     0.803665

 62 H s       :     0.791198  s :     0.791198

 63 H s       :     0.792130  s :     0.792130

 64 H s       :     0.777536  s :     0.777536

 65 H s       :     0.810476  s :     0.810476

 66 H s       :     0.802476  s :     0.802476

 67 H s       :     0.789818  s :     0.789818

 68 H s       :     0.793456  s :     0.793456

 69 H s       :     0.808751  s :     0.808751

 70 H s       :     0.788721  s :     0.788721

 71 H s       :     0.806678  s :     0.806678

 72 H s       :     0.797138  s :     0.797138


------------------------
MULLIKEN OVERLAP CHARGES
------------------------
B(  0-C ,  1-C ) :   0.5243 B(  0-C ,  2-C ) :  -0.1800 B(  0-C ,  3-H ) :  -0.0797 
B(  0-C ,  4-H ) :  -0.0864 B(  0-C ,  5-C ) :   0.4159 B(  0-C ,  6-C ) :  -0.1412 
B(  0-C , 14-C ) :   0.9502 B(  0-C , 15-C ) :  -0.2023 B(  0-C , 18-C ) :  -0.1863 
B(  0-C , 19-H ) :  -0.0752 B(  1-C ,  2-C ) :   0.5265 B(  1-C ,  3-H ) :   0.8090 
B(  1-C ,  4-H ) :   0.7737 B(  1-C ,  5-C ) :  -0.1403 B(  1-C ,  7-C ) :  -0.1581 
B(  1-C , 12-O ) :  -0.1100 B(  1-C , 13-H ) :  -0.0574 B(  1-C , 14-C ) :  -0.1137 
B(  2-C ,  3-H ) :  -0.0592 B(  2-C ,  4-H ) :  -0.0536 B(  2-C ,  6-C ) :  -0.1583 
B(  2-C ,  7-C ) :   0.5149 B(  2-C , 10-H ) :  -0.0624 B(  2-C , 11-H ) :  -0.0697 
B(  2-C , 12-O ) :   0.6965 B(  2-C , 13-H ) :   0.8217 B(  2-C , 35-H ) :  -0.1152 
B(  5-C ,  6-C ) :   0.5297 B(  5-C ,  7-C ) :  -0.1574 B(  5-C ,  8-H ) :  -0.0730 
B(  5-C ,  9-H ) :  -0.0939 B(  5-C , 14-C ) :  -0.1994 B(  5-C , 15-C ) :   1.0615 
B(  5-C , 16-H ) :  -0.0996 B(  5-C , 17-H ) :  -0.0952 B(  6-C ,  7-C ) :   0.5526 
B(  6-C ,  8-H ) :   0.8228 B(  6-C ,  9-H ) :   0.7936 B(  6-C , 10-H ) :  -0.0740 
B(  6-C , 11-H ) :  -0.0562 B(  6-C , 15-C ) :  -0.1298 B(  7-C ,  9-H ) :  -0.0777 
B(  7-C , 10-H ) :   0.7763 B(  7-C , 11-H ) :   0.8045 B(  7-C , 12-O ) :  -0.1081 
B(  7-C , 13-H ) :  -0.0825 B( 12-O , 35-H ) :   0.6664 B( 14-C , 18-C ) :   0.6126 
B( 14-C , 19-H ) :   0.8212 B( 14-C , 20-C ) :  -0.1941 B( 14-C , 21-H ) :  -0.0737 
B( 15-C , 16-H ) :   0.8137 B( 15-C , 17-H ) :   0.8065 B( 18-C , 19-H ) :  -0.0602 
B( 18-C , 20-C ) :   0.9192 B( 18-C , 21-H ) :   0.8335 B( 18-C , 22-C ) :  -0.1509 
B( 18-C , 32-C ) :  -0.1497 B( 20-C , 21-H ) :  -0.0830 B( 20-C , 22-C ) :   0.5338 
B( 20-C , 23-C ) :  -0.1729 B( 20-C , 24-H ) :  -0.0674 B( 20-C , 25-H ) :  -0.0917 
B( 20-C , 29-C ) :  -0.1248 B( 20-C , 32-C ) :   0.5186 B( 20-C , 33-H ) :  -0.0914 
[...]
        0.0000         1.9480        0.0000
        0.0000         0.0000        1.9480

 Diagonalized JT*J matrix:
 
 J[55,60](FC)             1.948            1.948            1.948  iso=      1.948
                ---------------  ---------------  ---------------  ---------------
 J[55,60](Total)          1.948            1.948            1.948  iso=      1.948



-----------------------------------------------------------
 NUCLEUS A = C   56 NUCLEUS B = C   59 
 ( 13C  gnA =  1.405  13C  gnB =  1.405) r(AB) =     1.5328
-----------------------------------------------------------

Fermi-contact contribution to J (Hz):
       26.6221         0.0000        0.0000
        0.0000        26.6221        0.0000
        0.0000         0.0000       26.6221

Total spin-spin coupling tensor J (Hz):
       26.6221         0.0000        0.0000
        0.0000        26.6221        0.0000
        0.0000         0.0000       26.6221

 Diagonalized JT*J matrix:
 
 J[56,59](FC)            26.622           26.622           26.622  iso=     26.622
                ---------------  ---------------  ---------------  ---------------
 J[56,59](Total)         26.622           26.622           26.622  iso=     26.622



-----------------------------------------------------------
 NUCLEUS A = C   56 NUCLEUS B = C   60 
 ( 13C  gnA =  1.405  13C  gnB =  1.405) r(AB) =     1.5325
-----------------------------------------------------------

Fermi-contact contribution to J (Hz):
       27.0930         0.0000        0.0000
        0.0000        27.0930        0.0000
        0.0000         0.0000       27.0930

Total spin-spin coupling tensor J (Hz):
       27.0930         0.0000        0.0000
        0.0000        27.0930        0.0000
        0.0000         0.0000       27.0930

 Diagonalized JT*J matrix:
 
 J[56,60](FC)            27.093           27.093           27.093  iso=     27.093
                ---------------  ---------------  ---------------  ---------------
 J[56,60](Total)         27.093           27.093           27.093  iso=     27.093



-----------------------------------------------------------
 NUCLEUS A = C   59 NUCLEUS B = C   60 
 ( 13C  gnA =  1.405  13C  gnB =  1.405) r(AB) =     2.4986
-----------------------------------------------------------

Fermi-contact contribution to J (Hz):
       -1.0909         0.0000        0.0000
        0.0000        -1.0909        0.0000
        0.0000         0.0000       -1.0909

Total spin-spin coupling tensor J (Hz):
       -1.0909         0.0000        0.0000
        0.0000        -1.0909        0.0000
        0.0000         0.0000       -1.0909

 Diagonalized JT*J matrix:
 
 J[59,60](FC)            -1.091           -1.091           -1.091  iso=     -1.091
                ---------------  ---------------  ---------------  ---------------
 J[59,60](Total)         -1.091           -1.091           -1.091  iso=     -1.091



-----------------------------------------------------------------------------
                SUMMARY OF ISOTROPIC COUPLING CONSTANTS J (Hz)                
-----------------------------------------------------------------------------
                  0 C        1 C        2 C        5 C        6 C        7 C  
      0 C        0.000     33.094     -3.745     41.327     -0.880      2.285
      1 C       33.094      0.000     23.411     -1.192      1.435     -0.659
      2 C       -3.745     23.411      0.000      2.299     -2.756     25.776
      5 C       41.327     -1.192      2.299      0.000     30.353     -2.770
      6 C       -0.880      1.435     -2.756     30.353      0.000     24.792
      7 C        2.285     -0.659     25.776     -2.770     24.792      0.000
     14 C       69.393     -0.362      2.840     -3.024      2.185     -0.621
     15 C       -3.415      2.417     -0.863     64.551     -1.081      2.602
     18 C       -2.410      4.172     -1.091      3.182     -0.811      0.190
     20 C        6.804     -1.100      1.080     -1.393      0.604     -0.102
     22 C       -0.920      0.326     -0.328      0.425     -0.182      0.037
     23 C        0.831     -0.288      0.282     -0.347      0.154      0.000
     26 C       -0.096      0.040      0.000      0.049      0.000      0.000
     29 C        1.165     -0.365      0.000     -0.450      0.208      0.000
     32 C       -1.117      0.543     -0.372      0.472     -0.214      0.044
     34 C        0.022     -0.015      0.013     -0.015      0.006     -0.001
     36 C       -0.017      0.000      0.000      0.016     -0.008      0.000
     39 C       -0.070      0.000      0.000      0.030      0.000      0.000
     43 C        0.000      0.000      0.000      0.000      0.000      0.000
     44 C        0.009     -0.003      0.000     -0.002     -0.005      0.000
     49 C        0.000      0.000      0.000      0.000      0.000      0.000
     50 C        0.000      0.000      0.000      0.000      0.000      0.000
     51 C        0.000      0.000      0.000      0.000      0.000      0.000
     54 C        0.000      0.000      0.000      0.000      0.000      0.000
     55 C        0.000      0.000      0.000      0.000      0.000      0.000
     56 C        0.000      0.000      0.000      0.000      0.000      0.000
     59 C        0.000      0.000      0.000      0.000      0.000      0.000
     60 C        0.000      0.000      0.000      0.000      0.000      0.000
                 14 C       15 C       18 C       20 C       22 C       23 C  
      0 C       69.393     -3.415     -2.410      6.804     -0.920      0.831
      1 C       -0.362      2.417      4.172     -1.100      0.326     -0.288
      2 C        2.840     -0.863     -1.091      1.080     -0.328      0.282
      5 C       -3.024     64.551      3.182     -1.393      0.425     -0.347
      6 C        2.185     -1.081     -0.811      0.604     -0.182      0.154
      7 C       -0.621      2.602      0.190     -0.102      0.037      0.000
     14 C        0.000      3.108     54.081     -2.635      3.805     -0.932
     15 C        3.108      0.000     -1.144      1.010     -0.272      0.256
     18 C       54.081     -1.144      0.000     69.964     -2.149      2.360
     20 C       -2.635      1.010     69.964      0.000     32.115     -2.990
     22 C        3.805     -0.272     -2.149     32.115      0.000     24.197
     23 C       -0.932      0.256      2.360     -2.990     24.197      0.000
     26 C        0.138     -0.034     -0.352      1.019     -1.922     25.423
     29 C       -1.134      0.324      2.278     -2.449      1.063     -2.220
     32 C        4.379     -0.315     -1.289     36.801     -0.208      1.531
     34 C        0.067      0.004      2.440     -1.383      1.622     -0.267
     36 C        0.017     -0.014     -0.148      3.453      0.071      0.165
     39 C        0.252     -0.023     -0.046      2.878     -0.332      2.532
     43 C        0.006      0.017      0.278      0.172      0.002     -0.113
     44 C        0.006      0.028     -0.051      0.692     -0.134      0.589
     49 C        0.000      0.000     -0.009     -0.049      0.137      0.043
     50 C        0.000      0.000      0.024      0.128     -0.005      0.121
     51 C        0.000      0.000      0.016      0.046      0.001     -0.003
     54 C        0.000      0.000      0.000      0.000      0.000      0.000
     55 C        0.000      0.000      0.000      0.000      0.000      0.000
     56 C        0.000      0.000      0.000      0.000      0.000      0.000
     59 C        0.000      0.000      0.000      0.000      0.000      0.000
     60 C        0.000      0.000      0.000      0.000      0.000      0.000
                 26 C       29 C       32 C       34 C       36 C       39 C  
      0 C       -0.096      1.165     -1.117      0.022     -0.017     -0.070
      1 C        0.040     -0.365      0.543     -0.015      0.000      0.000
      2 C        0.000      0.000     -0.372      0.013      0.000      0.000
      5 C        0.049     -0.450      0.472     -0.015      0.016      0.030
      6 C        0.000      0.208     -0.214      0.006     -0.008      0.000
      7 C        0.000      0.000      0.044     -0.001      0.000      0.000
     14 C        0.138     -1.134      4.379      0.067      0.017      0.252
     15 C       -0.034      0.324     -0.315      0.004     -0.014     -0.023
     18 C       -0.352      2.278     -1.289      2.440     -0.148     -0.046
     20 C        1.019     -2.449     36.801     -1.383      3.453      2.878
     22 C       -1.922      1.063     -0.208      1.622      0.071     -0.332
     23 C       25.423     -2.220      1.531     -0.267      0.165      2.532
     26 C        0.000     27.874     -0.926      2.257      3.027     -0.602
     29 C       27.874      0.000     23.104      0.871      0.783     28.457
     32 C       -0.926     23.104      0.000     27.915      1.189      3.343
     34 C        2.257      0.871     27.915      0.000     25.865      0.185
     36 C        3.027      0.783      1.189     25.865      0.000     26.858
     39 C       -0.602     28.457      3.343      0.185     26.858      0.000
     43 C       -0.017     -0.641      2.690      1.799      0.380     28.976
     44 C       -0.595     27.238     -0.972      0.818      0.281     -1.197
     49 C        0.352      0.068     -0.029      0.049      3.292     -1.223
     50 C       -0.119      3.627     -0.084     -0.045      0.624     -1.827
     51 C       -0.022      0.225      0.119      0.069     -0.027      3.195
     54 C       -0.000      0.086     -0.016     -0.000     -0.025     -0.503
     55 C        0.000      0.035      0.000      0.006      0.039      0.970
     56 C        0.000      0.001      0.001     -0.001      0.009      0.032
     59 C        0.000      0.007     -0.002      0.011      0.018     -0.001
     60 C        0.000      0.000      0.000      0.000      0.031     -0.008
                 43 C       44 C       49 C       50 C       51 C       54 C  
      0 C        0.000      0.009      0.000      0.000      0.000      0.000
      1 C        0.000     -0.003      0.000      0.000      0.000      0.000
      2 C        0.000      0.000      0.000      0.000      0.000      0.000
      5 C        0.000     -0.002      0.000      0.000      0.000      0.000
      6 C        0.000     -0.005      0.000      0.000      0.000      0.000
      7 C        0.000      0.000      0.000      0.000      0.000      0.000
     14 C        0.006      0.006      0.000      0.000      0.000      0.000
     15 C        0.017      0.028      0.000      0.000      0.000      0.000
     18 C        0.278     -0.051     -0.009      0.024      0.016      0.000
     20 C        0.172      0.692     -0.049      0.128      0.046      0.000
     22 C        0.002     -0.134      0.137     -0.005      0.001      0.000
     23 C       -0.113      0.589      0.043      0.121     -0.003      0.000
     26 C       -0.017     -0.595      0.352     -0.119     -0.022     -0.000
     29 C       -0.641     27.238      0.068      3.627      0.225      0.086
     32 C        2.690     -0.972     -0.029     -0.084      0.119     -0.016
     34 C        1.799      0.818      0.049     -0.045      0.069     -0.000
     36 C        0.380      0.281      3.292      0.624     -0.027     -0.025
     39 C       28.976     -1.197     -1.223     -1.827      3.195     -0.503
     43 C        0.000      1.470     25.890     36.356     -0.373      3.723
     44 C        1.470      0.000     -0.101     -0.172     -0.007     -0.002
     49 C       25.890     -0.101      0.000     -3.030      3.590     -0.750
     50 C       36.356     -0.172     -3.030      0.000     68.748     -1.944
     51 C       -0.373     -0.007      3.590     68.748      0.000     35.484
     54 C        3.723     -0.002     -0.750     -1.944     35.484      0.000
     55 C       -0.992      0.001      1.544      3.510     -3.167     25.892
     56 C       -0.135      0.000      0.049      2.312     -1.363     27.572
     59 C        0.013     -0.001     -0.044      0.016      0.576     -0.549
     60 C        0.027      0.000     -0.035     -0.137      3.105     -0.661
                 55 C       56 C       59 C       60 C  
      0 C        0.000      0.000      0.000      0.000
      1 C        0.000      0.000      0.000      0.000
      2 C        0.000      0.000      0.000      0.000
      5 C        0.000      0.000      0.000      0.000
      6 C        0.000      0.000      0.000      0.000
      7 C        0.000      0.000      0.000      0.000
     14 C        0.000      0.000      0.000      0.000
     15 C        0.000      0.000      0.000      0.000
     18 C        0.000      0.000      0.000      0.000
     20 C        0.000      0.000      0.000      0.000
     22 C        0.000      0.000      0.000      0.000
     23 C        0.000      0.000      0.000      0.000
     26 C        0.000      0.000      0.000      0.000
     29 C        0.035      0.001      0.007      0.000
     32 C        0.000      0.001     -0.002      0.000
     34 C        0.006     -0.001      0.011      0.000
     36 C        0.039      0.009      0.018      0.031
     39 C        0.970      0.032     -0.001     -0.008
     43 C       -0.992     -0.135      0.013      0.027
     44 C        0.001      0.000     -0.001      0.000
     49 C        1.544      0.049     -0.044     -0.035
     50 C        3.510      2.312      0.016     -0.137
     51 C       -3.167     -1.363      0.576      3.105
     54 C       25.892     27.572     -0.549     -0.661
     55 C        0.000     -0.912      2.551      1.948
     56 C       -0.912      0.000     26.622     27.093
     59 C        2.551     26.622      0.000     -1.091
     60 C        1.948     27.093     -1.091      0.000

NMR spin-spin coupling calculation done in   0.3 sec 

Maximum memory used throughout the entire PROP-calculation: 34.3 MB

--------------------------------
SUGGESTED CITATIONS FOR THIS RUN
--------------------------------

Below you find a list of papers that are relevant to this ORCA run
We neither can nor want to force you to cite these papers, but we appreciate if you do
You receive ORCA, which is the product of decades of hard work by many enthusiastic individuals, for free
The only thing we kindly ask in return is that you cite our papers,
We deeply appreciate it, if you show your appreciation for ORCA by not just citing the generic ORCA reference.

Please note that relegating all ORCA citations to the supporting information does *not* help us.
SI sections are not indexed - citations you put there will not count into any citation statistics
But we need these citations in order to attract the funding resources that allow us to do what we are doing

Therefore, if you are a happy ORCA user, please consider citing a few of the papers listed below in the main body of your paper

In addition to the list printed below, the program has created the file inpJ.bibtex that contains the list in bibtex format
You can import this file easily into all common literature databanks and citation aid programs


List of essential papers. We consider these as the minimum necessary citations

  1. Neese,F.
     Software update: the ORCA program system, version 5.0
     WIRES Comput. Molec. Sci., 2022 12(1)e1606
     doi.org/10.1002/wcms.1606

List of papers to cite with high priority. The work reported in these papers was absolutely
necessary for this run to complete.
Our perspective: the developers of density functionals and basis sets usually get cited in chemistry papers
Good! But without the algorithms to do something with them, the functionals or basis sets would not do anything.
Hence, in our opinion, the algorithm design and method developments papers are equally worthy of getting cited

  1. Neese,F.
     An improvement of the resolution of the identity approximation for the formation of the Coulomb matrix
     J. Comp. Chem., 2003 24(14)1740-1747
     doi.org/10.1002/jcc.10318
  2. Neese,F.; Wennmohs,F.; Hansen,A.; Becker,U.
     Efficient, approximate and parallel Hartree-Fock and hybrid DFT calculations. A 'chain-of-spheres' algorithm for the Hartree-Fock exchange
     Chem. Phys., 2009 356(1-3)98-109
     doi.org/10.1016/j.chemphys.2008.10.036
  3. Stoychev,G.L.; Auer,A.A.; Izsak,R.; Neese,F.
     Self-Consistent Field Calculation of Nuclear Magnetic Resonance Chemical Shielding Constants Using Gauge-Including Atomic Orbitals and Approximate Two-Electron Integrals
     J. Chem. Theory Comput., 2018 14(2)619-637
     doi.org/10.1021/acs.jctc.7b01006
  4. Garcia-Rates,M.; Neese,F.
     Effect of the Solute Cavity on the Solvation Energy and its Derivatives within the Framework of the Gaussian Charge Scheme
     J. Comput. Chem., 2020 41 922-939
     doi.org/10.1002/jcc.26139
  5. Helmich-Paris,B.; de Souza,B.; Neese,F.; Izsák,R.
     An improved chain of spheres for exchange algorithm
     J. Chem. Phys., 2021 155 104109
     doi.org/doi: 10.1063/5.0058766.
  6. Neese,F.
     The SHARK Integral Generation and Digestion System
     J. Comp. Chem., 2022  1-16
     doi.org/10.1002/jcc.26942
  7. Grimme,S.; Bannwarth,C.; Dohm,S.; Hansen,A.; Pisarek,J.; Pracht,P.; Seibert,J.; Neese,F.
     Fully Automated Quantum-Chemistry-Based Computation of Spin-Spin-Coupled Nuclear Magnetic Resonance Spectra
     Angew. Chem., Int. Ed., 2017 56 14763-14769
     doi.org/10.1002/anie.201708266
  8. Caldeweyher,E.; Bannwarth,C.; Grimme,S.
     Extension of the D3 dispersion coefficient model
     J. Chem. Phys., 2017 147 034112-XXXX
     doi.org/10.1063/1.4993215
  9. Caldeweyher,E.; Ehlert,S.; Hansen,A.; Neugebauer,H.; Spicher,S.; Bannwarth,C.; Grimme,S.
     A generally applicable atomic-charge dependent London dispersion correction
     J. Chem. Phys., 2019 150 154122-XXXX
     doi.org/10.1063/1.5090222
 10. Caldeweyher,E.; Mewes,J.; Ehlert,S.; Grimme,S.
     Extension and evaluation of the D4 London-dispersion model for periodic systems
     Phys. Chem. Chem. Phys., 2020 22(16)8499-8512
     doi.org/10.1039/D0CP00502A

List of suggested additional citations. These are papers that are important in the 'surrounding' of 
of this run, or papers that preceded the highly important papers. If you like your results we are grateful for a citation.

  1. Izsak,R.; Neese,F.
     An overlap fitted chain of spheres exchange method
     J. Chem. Phys., 2011 135 144105
     doi.org/10.1063/1.3646921
  2. Izsak,R.; Hansen,A.; Neese,F.
     The resolution of identity and chain of spheres approximations for the LPNO-CCSD singles Fock term
     Molec. Phys., 2012 110 2413-2417
     doi.org/10.1080/00268976.2012.687466
  3. Neese,F.
     The ORCA program system
     WIRES Comput. Molec. Sci., 2012 2(1)73-78
     doi.org/10.1002/wcms.81
  4. Izsak,R.; Neese,F.; Klopper,W.
     Robust fitting techniques in the chain of spheres approximation to the Fock exchange: The role of the complementary space
     J. Chem. Phys., 2013 139 
     doi.org/10.1063/1.4819264
  5. Neese,F.
     Software update: the ORCA program system, version 4.0
     WIRES Comput. Molec. Sci., 2018 8(1)1-6
     doi.org/10.1002/wcms.1327
  6. Neese,F.; Wennmohs,F.; Becker,U.; Riplinger,C.
     The ORCA quantum chemistry program package
     J. Chem. Phys., 2020 152 Art. No. L224108
     doi.org/10.1063/5.0004608

Timings for individual modules:

Sum of individual times          ...      138.066 sec (=   2.301 min)
Startup calculation              ...        3.809 sec (=   0.063 min)   2.8 %
SCF iterations                   ...       18.852 sec (=   0.314 min)  13.7 %
Property integrals               ...        0.636 sec (=   0.011 min)   0.5 %
SCF Response                     ...      114.248 sec (=   1.904 min)  82.7 %
Property calculations            ...        0.521 sec (=   0.009 min)   0.4 %
                             ****ORCA TERMINATED NORMALLY****
TOTAL RUN TIME: 0 days 0 hours 2 minutes 18 seconds 345 msec
