
                                 *****************
                                 * O   R   C   A *
                                 *****************

                                            #,                                       
                                            ###                                      
                                            ####                                     
                                            #####                                    
                                            ######                                   
                                           ########,                                 
                                     ,,################,,,,,                         
                               ,,#################################,,                 
                          ,,##########################################,,             
                       ,#########################################, ''#####,          
                    ,#############################################,,   '####,        
                  ,##################################################,,,,####,       
                ,###########''''           ''''###############################       
              ,#####''   ,,,,##########,,,,          '''####'''          '####       
            ,##' ,,,,###########################,,,                        '##       
           ' ,,###''''                  '''############,,,                           
         ,,##''                                '''############,,,,        ,,,,,,###''
      ,#''                                            '''#######################'''  
     '                                                          ''''####''''         
             ,#######,   #######,   ,#######,      ##                                
            ,#'     '#,  ##    ##  ,#'     '#,    #''#        ,####,   ,####,        
            ##       ##  ##   ,#'  ##            #'  '#       #'       #'  '#        
            ##       ##  #######   ##           ,######,      #####,   #    #        
            '#,     ,#'  ##    ##  '#,     ,#' ,#      #,     #,   #   #,  ,#        
             '#######'   ##     ##  '#######'  #'      '#     '####' # '####'        



                #########################################################
                #                        -***-                          #
                #          Department of theory and spectroscopy        #
                #                                                       #
                #                      Frank Neese                      #
                #                                                       #
                #     Directorship, Architecture, Infrastructure        #
                #                    SHARK, DRIVERS                     #
                #        Core code/Algorithms in most modules           #
                #                                                       #
                #        Max Planck Institute fuer Kohlenforschung      #
                #                Kaiser Wilhelm Platz 1                 #
                #                 D-45470 Muelheim/Ruhr                 #
                #                      Germany                          #
                #                                                       #
                #                  All rights reserved                  #
                #                        -***-                          #
                #########################################################


                         Program Version 6.0.0  -   RELEASE  -


 With contributions from (in alphabetic order):
   Daniel Aravena         : Magnetic Suceptibility
   Michael Atanasov       : Ab Initio Ligand Field Theory (pilot matlab implementation)
   Alexander A. Auer      : GIAO ZORA, VPT2 properties, NMR spectrum
   Ute Becker             : All parallelization in ORCA, NUMFREQ, NUMCALC
   Giovanni Bistoni       : ED, misc. LED, open-shell LED, HFLD
   Martin Brehm           : Molecular dynamics
   Dmytro Bykov           : pre 5.0 version of the SCF Hessian
   Marcos Casanova-Páez   : Triplet and SCS-CIS(D). UHF-(DLPNO)-IP/EA/STEOM-CCSD. UHF-CVS-IP/STEOM-CCSD
   Vijay G. Chilkuri      : MRCI spin determinant printing, contributions to CSF-ICE
   Pauline Colinet        : FMM embedding
   Dipayan Datta          : RHF DLPNO-CCSD density
   Achintya Kumar Dutta   : EOM-CC, STEOM-CC
   Nicolas Foglia         : Exact transition moments, OPA infrastructure, MCD improvements
   Dmitry Ganyushin       : Spin-Orbit,Spin-Spin,Magnetic field MRCI
   Miquel Garcia          : C-PCM and meta-GGA Hessian, CCSD/C-PCM, Gaussian charge scheme
   Tiago L. C. Gouveia    : GS-ROHF, GS-ROCIS
   Yang Guo               : DLPNO-NEVPT2, F12-NEVPT2, CIM, IAO-localization
   Andreas Hansen         : Spin unrestricted coupled pair/coupled cluster methods
   Ingolf Harden          : AUTO-CI MPn and infrastructure 
   Benjamin Helmich-Paris : MC-RPA, TRAH-(SCF,CASSCF), AVAS, COSX integrals, SCF dyn. polar.
   Lee Huntington         : MR-EOM, pCC
   Robert Izsak           : Overlap fitted RIJCOSX, COSX-SCS-MP3, EOM
   Riya Kayal             : Wick's Theorem for AUTO-CI, AUTO-CI UHF-CCSDT
   Emily Kempfer          : AUTO-CI, RHF CISDT and CCSDT
   Christian Kollmar      : KDIIS, OOCD, Brueckner-CCSD(T), CCSD density, CASPT2, CASPT2-K, improved NEVPT2
   Axel Koslowski         : Symmetry handling
   Simone Kossmann        : Meta GGA functionals, TD-DFT gradient, OOMP2, (MP2 Hessian; deprecated post 5.0)
   Lucas Lang             : DCDCAS
   Marvin Lechner         : AUTO-CI (C++ implementation), FIC-MRCC
   Spencer Leger          : CASSCF response
   Dagmar Lenk            : GEPOL surface, SMD, ORCA-2-JSON
   Dimitrios Liakos       : Extrapolation schemes; Compound Job, initial MDCI parallelization
   Dimitrios Manganas     : Further ROCIS development; embedding schemes. LFT, Crystal Embedding
   Dimitrios Pantazis     : SARC Basis sets
   Anastasios Papadopoulos: AUTO-CI, single reference methods and gradients
   Taras Petrenko         : pre 6.0 DFT Hessian and TD-DFT gradient, (ASA, deprecated), ECA, 1-Electron XAS/XES, NRVS
   Peter Pinski           : DLPNO-MP2, DLPNO-MP2 Gradient
   Christoph Reimann      : Effective Core Potentials
   Marius Retegan         : Local ZFS, SOC
   Christoph Riplinger    : Optimizer, TS searches, QM/MM, DLPNO-CCSD(T), (RO)-DLPNO pert. Triples
   Michael Roemelt        : Original ROCIS implementation
   Masaaki Saitow         : Open-shell DLPNO-CCSD energy and density
   Barbara Sandhoefer     : DKH picture change effects
   Kantharuban Sivalingam : CASSCF convergence/infrastructure, NEVPT2 and variants, FIC-MRCI
   Bernardo de Souza      : ESD, SOC TD-DFT
   Georgi Stoychev        : AutoAux, RI-MP2 NMR, DLPNO-MP2 response, X2C
   Van Anh Tran           : RI-MP2 g-tensors
   Willem Van den Heuvel  : Paramagnetic NMR
   Zikuan Wang            : NOTCH, Electric field optimization 
   Frank Wennmohs         : Technical directorship and infrastructure
   Hang Xu                : AUTO-CI-Response properties 


 We gratefully acknowledge several colleagues who have allowed us to
 interface, adapt or use parts of their codes:
   Stefan Grimme, W. Hujo, H. Kruse, P. Pracht,  : VdW corrections, initial TS optimization,
                  C. Bannwarth, S. Ehlert,         DFT functionals, gCP, sTDA/sTD-DF
                  L. Wittmann, M. Mueller
   Ed Valeev, F. Pavosevic, A. Kumar             : LibInt (2-el integral package), F12 methods
   Garnet Chan, S. Sharma, J. Yang, R. Olivares  : DMRG
   Ulf Ekstrom                                   : XCFun DFT Library
   Mihaly Kallay                                 : mrcc  (arbitrary order and MRCC methods)
   Frank Weinhold                                : gennbo (NPA and NBO analysis)
   Simon Mueller                                 : openCOSMO-RS
   Christopher J. Cramer and Donald G. Truhlar   : smd solvation model
   Lars Goerigk                                  : TD-DFT with DH, B97 family of functionals
   V. Asgeirsson, H. Jonsson                     : NEB implementation
   FAccTs GmbH                                   : IRC, NEB, NEB-TS, DLPNO-Multilevel, CI-OPT
                                                   MM, QMMM, 2- and 3-layer-ONIOM, Crystal-QMMM,
                                                   LR-CPCM, SF, NACMEs, symmetry and pop. for TD-DFT,
                                                   nearIR, NL-DFT gradient (VV10), updates on ESD,
                                                   ML-optimized integration grids, MBIS, APM,
                                                   GOAT, DOCKER, SOLVATOR, interface openCOSMO-RS
   S Lehtola, MJT Oliveira, MAL Marques          : LibXC Library
   Liviu Ungur et al                             : ANISO software


 Your calculation uses the libint2 library for the computation of 2-el integrals
 For citations please refer to: http://libint.valeyev.net

 Your ORCA version has been built with support for libXC version: 6.2.2
 For citations please refer to: https://libxc.gitlab.io

 This ORCA versions uses:
   CBLAS   interface :  Fast vector & matrix operations
   LAPACKE interface :  Fast linear algebra routines
   SCALAPACK package :  Parallel linear algebra routines
   Shared memory     :  Shared parallel matrices
   BLAS/LAPACK       :  OpenBLAS 0.3.27  USE64BITINT DYNAMIC_ARCH NO_AFFINITY Zen SINGLE_THREADED
        Core in use  :  Zen
   Copyright (c) 2011-2014, The OpenBLAS Project


NOTE: MaxCore=8000 MB was set to SCF,MP2,MDCI,CIPSI,MRCI and CIS
      => If you want to overwrite this, your respective input block should be placed after the MaxCore statement
Your calculation utilizes the atom-pairwise dispersion correction
based on EEQ partial charges (D4)


================================================================================

----- Orbital basis set information -----
Your calculation utilizes the basis: def2-SVP
   F. Weigend and R. Ahlrichs, Phys. Chem. Chem. Phys. 7, 3297 (2005).

----- AuxJ basis set information -----
Your calculation utilizes the auxiliary basis: def2/J
   F. Weigend, Phys. Chem. Chem. Phys. 8, 1057 (2006).

================================================================================
                                        WARNINGS
                       Please study these warnings very carefully!
================================================================================

WARNING: Old DensityContainer found on disk!
         Will remove this file - 
         If you want to keep old densities, please start your calculation with a different basename. 


================================================================================
                                       INPUT FILE
================================================================================
NAME = inpS
|  1> ! wb97x-d4
|  2> ! def2-svp
|  3> ! def2/J RIJCOSX
|  4> ! DEFGRID2
|  5> ! scfconv7
|  6> ! smallprint printgap noloewdin
|  7> ! NOSOSCF
|  8> %MaxCore 8000
|  9> %output
| 10>        print[P_BondOrder_M] 1
| 11>        print[P_Mayer] 1
| 12>        print[P_basis] 2
| 13> end
| 14> %pal
| 15>     nprocs 4
| 16> end
| 17> ! CPCM(chloroform)
| 18> *xyz 0 1
| 19> C   -5.0248730900   0.2097763500  -0.4914650600
| 20> C   -6.4736555500  -0.1813786400  -0.6645441300
| 21> C   -7.3789821900   0.7259088800   0.1782684900
| 22> H   -6.6276035700  -1.2296828100  -0.3847054900
| 23> H   -6.7684817900  -0.0646183400  -1.7179867800
| 24> C   -4.7517830000   1.6395193500  -0.7570595900
| 25> C   -5.6811084600   2.5974051100  -0.0446868300
| 26> C   -7.1536056100   2.1912678600  -0.1984345800
| 27> H   -5.5231765300   3.6185098300  -0.4078970700
| 28> H   -5.4250620700   2.5943530800   1.0257969000
| 29> H   -7.4671641100   2.3314369800  -1.2419114400
| 30> H   -7.7875672400   2.8315257300   0.4258192400
| 31> O   -7.1617950600   0.4988962500   1.5808328500
| 32> H   -8.4287584200   0.4601008800   0.0029852700
| 33> C   -4.1032680600  -0.6857667300  -0.0636672100
| 34> C   -3.7904978300   2.0580091800  -1.5876865300
| 35> H   -3.1436642000   1.3539073500  -2.1043357200
| 36> H   -3.6365405400   3.1179419900  -1.7761364000
| 37> C   -2.7186832900  -0.4056627500   0.2406421200
| 38> H   -4.4573639100  -1.7038411900   0.0940177800
| 39> C   -1.7690683600  -1.3111927000   0.5578889900
| 40> H   -2.4320102900   0.6434164900   0.2186776900
| 41> C   -1.9596304100  -2.8058197100   0.6050842200
| 42> C   -0.9491477200  -3.5307624700  -0.3052977100
| 43> H   -2.9766732000  -3.1045770400   0.3375464800
| 44> H   -1.7858323100  -3.1369457000   1.6411969300
| 45> C    0.4989355900  -3.0949860800  -0.0451352600
| 46> H   -1.2125799500  -3.3402875100  -1.3534294800
| 47> H   -1.0400864200  -4.6132009900  -0.1526847200
| 48> C    0.6620159700  -1.5714722600  -0.1336493400
| 49> H    1.1569087900  -3.6079666800  -0.7543443500
| 50> H    0.7982554200  -3.4192743500   0.9629892600
| 51> C   -0.3534583500  -0.9318664600   0.8671293900
| 52> H   -0.1116354400  -1.3969036100   1.8405324900
| 53> C    0.0741951700   0.5307112400   0.9472116500
| 54> H   -6.2074471900   0.4199817900   1.7205808300
| 55> C    1.6179758400   0.4622433700   0.8507745700
| 56> H   -0.2743603100   1.0118687200   1.8670725600
| 57> H   -0.3364953300   1.1030365800   0.1079421000
| 58> C    1.9888392200  -0.9918846300   0.4300431700
| 59> H    2.0950036100   0.7197572300   1.8015558200
| 60> H    1.9983979800   1.1763483200   0.1110640400
| 61> H    2.2214313900  -1.5705413300   1.3393731700
| 62> C    3.2496362900  -1.0192370400  -0.4572551700
| 63> C    0.4115510200  -1.0712305300  -1.5636605600
| 64> H    0.6395930800  -0.0052490900  -1.6638218900
| 65> H   -0.6326539300  -1.2106479700  -1.8600929200
| 66> H    1.0399754400  -1.6135498100  -2.2786666000
| 67> H    3.0523790900  -0.4196607700  -1.3581343400
| 68> C    3.6638179800  -2.4349878300  -0.8872869700
| 69> C    4.3974755900  -0.3816306100   0.2813774400
| 70> C    5.0798397900   0.6808976800  -0.1434159400
| 71> H    4.6668684200  -0.8696221500   1.2212435700
| 72> H    4.7780979500   1.1313012800  -1.0932070200
| 73> C    6.2996707600   1.3146743700   0.4848203000
| 74> C    7.5128716400   0.9702486700  -0.4006770700
| 75> C    6.5183091200   0.9607996200   1.9688741300
| 76> H    6.1615876800   2.4084380100   0.4331311800
| 77> H    6.5152632800  -0.1360731200   2.0600669700
| 78> C    5.3963108000   1.5344561700   2.8415324000
| 79> C    7.8687451100   1.4666747200   2.4873705100
| 80> H    7.7789246800  -0.0873032000  -0.2825114000
| 81> H    8.3868374500   1.5792342500  -0.1514523200
| 82> H    7.2767189000   1.1395804800  -1.4567273800
| 83> H    4.4069762300   1.2180220500   2.5008072700
| 84> H    5.4264533600   2.6313682200   2.8151266300
| 85> H    5.5159020400   1.2227933400   3.8851478300
| 86> H    8.7132808800   0.9653755000   2.0061757800
| 87> H    7.9492144500   1.2935783800   3.5662054600
| 88> H    7.9691098400   2.5460791300   2.3137038100
| 89> H    2.9355929800  -2.8839639300  -1.5674022900
| 90> H    3.7649812900  -3.0911106700  -0.0139945400
| 91> H    4.6303059600  -2.4050694300  -1.4017398000
| 92> *
| 93> %eprnmr
| 94>  Nuclei = all C { shift }
| 95>  origin giao
| 96>  giao_2el giao_2el_same_as_scf
| 97>  giao_1el giao_1el_analytic
| 98> end
| 99> 
|100>                          ****END OF INPUT****
================================================================================

                       ****************************
                       * Single Point Calculation *
                       ****************************

---------------------------------
CARTESIAN COORDINATES (ANGSTROEM)
---------------------------------
  C     -5.024873    0.209776   -0.491465
  C     -6.473656   -0.181379   -0.664544
  C     -7.378982    0.725909    0.178268
  H     -6.627604   -1.229683   -0.384705
  H     -6.768482   -0.064618   -1.717987
  C     -4.751783    1.639519   -0.757060
  C     -5.681108    2.597405   -0.044687
  C     -7.153606    2.191268   -0.198435
  H     -5.523177    3.618510   -0.407897
  H     -5.425062    2.594353    1.025797
  H     -7.467164    2.331437   -1.241911
  H     -7.787567    2.831526    0.425819
  O     -7.161795    0.498896    1.580833
  H     -8.428758    0.460101    0.002985
  C     -4.103268   -0.685767   -0.063667
  C     -3.790498    2.058009   -1.587687
  H     -3.143664    1.353907   -2.104336
  H     -3.636541    3.117942   -1.776136
  C     -2.718683   -0.405663    0.240642
  H     -4.457364   -1.703841    0.094018
  C     -1.769068   -1.311193    0.557889
  H     -2.432010    0.643416    0.218678
  C     -1.959630   -2.805820    0.605084
  C     -0.949148   -3.530762   -0.305298
  H     -2.976673   -3.104577    0.337546
  H     -1.785832   -3.136946    1.641197
  C      0.498936   -3.094986   -0.045135
  H     -1.212580   -3.340288   -1.353429
  H     -1.040086   -4.613201   -0.152685
  C      0.662016   -1.571472   -0.133649
  H      1.156909   -3.607967   -0.754344
  H      0.798255   -3.419274    0.962989
  C     -0.353458   -0.931866    0.867129
  H     -0.111635   -1.396904    1.840532
  C      0.074195    0.530711    0.947212
  H     -6.207447    0.419982    1.720581
  C      1.617976    0.462243    0.850775
  H     -0.274360    1.011869    1.867073
  H     -0.336495    1.103037    0.107942
  C      1.988839   -0.991885    0.430043
  H      2.095004    0.719757    1.801556
  H      1.998398    1.176348    0.111064
  H      2.221431   -1.570541    1.339373
  C      3.249636   -1.019237   -0.457255
  C      0.411551   -1.071231   -1.563661
  H      0.639593   -0.005249   -1.663822
  H     -0.632654   -1.210648   -1.860093
  H      1.039975   -1.613550   -2.278667
  H      3.052379   -0.419661   -1.358134
  C      3.663818   -2.434988   -0.887287
  C      4.397476   -0.381631    0.281377
  C      5.079840    0.680898   -0.143416
  H      4.666868   -0.869622    1.221244
  H      4.778098    1.131301   -1.093207
  C      6.299671    1.314674    0.484820
  C      7.512872    0.970249   -0.400677
  C      6.518309    0.960800    1.968874
  H      6.161588    2.408438    0.433131
  H      6.515263   -0.136073    2.060067
  C      5.396311    1.534456    2.841532
  C      7.868745    1.466675    2.487371
  H      7.778925   -0.087303   -0.282511
  H      8.386837    1.579234   -0.151452
  H      7.276719    1.139580   -1.456727
  H      4.406976    1.218022    2.500807
  H      5.426453    2.631368    2.815127
  H      5.515902    1.222793    3.885148
  H      8.713281    0.965375    2.006176
  H      7.949214    1.293578    3.566205
  H      7.969110    2.546079    2.313704
  H      2.935593   -2.883964   -1.567402
  H      3.764981   -3.091111   -0.013995
  H      4.630306   -2.405069   -1.401740

----------------------------
CARTESIAN COORDINATES (A.U.)
----------------------------
  NO LB      ZA    FRAG     MASS         X           Y           Z
   0 C     6.0000    0    12.011   -9.495634    0.396420   -0.928734
   1 C     6.0000    0    12.011  -12.233436   -0.342756   -1.255806
   2 C     6.0000    0    12.011  -13.944255    1.371769    0.336879
   3 H     1.0000    0     1.008  -12.524356   -2.323764   -0.726988
   4 H     1.0000    0     1.008  -12.790577   -0.122111   -3.246525
   5 C     6.0000    0    12.011   -8.979569    3.098243   -1.430635
   6 C     6.0000    0    12.011  -10.735739    4.908384   -0.084446
   7 C     6.0000    0    12.011  -13.518355    4.140896   -0.374987
   8 H     1.0000    0     1.008  -10.437291    6.837993   -0.770814
   9 H     1.0000    0     1.008  -10.251882    4.902617    1.938475
  10 H     1.0000    0     1.008  -14.110895    4.405777   -2.346873
  11 H     1.0000    0     1.008  -14.716369    5.350808    0.804682
  12 O     8.0000    0    15.999  -13.533831    0.942777    2.987341
  13 H     1.0000    0     1.008  -15.928045    0.869465    0.005641
  14 C     6.0000    0    12.011   -7.754053   -1.295911   -0.120314
  15 C     6.0000    0    12.011   -7.163003    3.889074   -3.000293
  16 H     1.0000    0     1.008   -5.940664    2.558514   -3.976618
  17 H     1.0000    0     1.008   -6.872066    5.892056   -3.356411
  18 C     6.0000    0    12.011   -5.137567   -0.766592    0.454748
  19 H     1.0000    0     1.008   -8.423197   -3.219793    0.177668
  20 C     6.0000    0    12.011   -3.343055   -2.477795    1.054257
  21 H     1.0000    0     1.008   -4.595833    1.215881    0.413241
  22 C     6.0000    0    12.011   -3.703165   -5.302231    1.143443
  23 C     6.0000    0    12.011   -1.793629   -6.672174   -0.576929
  24 H     1.0000    0     1.008   -5.625097   -5.866800    0.637870
  25 H     1.0000    0     1.008   -3.374734   -5.927968    3.101413
  26 C     6.0000    0    12.011    0.942852   -5.848676   -0.085293
  27 H     1.0000    0     1.008   -2.291444   -6.312229   -2.557611
  28 H     1.0000    0     1.008   -1.965478   -8.717686   -0.288532
  29 C     6.0000    0    12.011    1.251029   -2.969652   -0.252561
  30 H     1.0000    0     1.008    2.186241   -6.818069   -1.425504
  31 H     1.0000    0     1.008    1.508484   -6.461492    1.819786
  32 C     6.0000    0    12.011   -0.667939   -1.760972    1.638637
  33 H     1.0000    0     1.008   -0.210960   -2.639765    3.478102
  34 C     6.0000    0    12.011    0.140209    1.002899    1.789971
  35 H     1.0000    0     1.008  -11.730375    0.793651    3.251427
  36 C     6.0000    0    12.011    3.057531    0.873513    1.607731
  37 H     1.0000    0     1.008   -0.518466    1.912155    3.528256
  38 H     1.0000    0     1.008   -0.635884    2.084437    0.203981
  39 C     6.0000    0    12.011    3.758361   -1.874390    0.812664
  40 H     1.0000    0     1.008    3.958983    1.360144    3.404447
  41 H     1.0000    0     1.008    3.776425    2.222976    0.209881
  42 H     1.0000    0     1.008    4.197897   -2.967893    2.531048
  43 C     6.0000    0    12.011    6.140923   -1.926079   -0.864087
  44 C     6.0000    0    12.011    0.777719   -2.024332   -2.954890
  45 H     1.0000    0     1.008    1.208656   -0.009919   -3.144168
  46 H     1.0000    0     1.008   -1.195543   -2.287793   -3.515066
  47 H     1.0000    0     1.008    1.965269   -3.049167   -4.306056
  48 H     1.0000    0     1.008    5.768161   -0.793044   -2.566502
  49 C     6.0000    0    12.011    6.923613   -4.601460   -1.676729
  50 C     6.0000    0    12.011    8.310025   -0.721177    0.531726
  51 C     6.0000    0    12.011    9.599506    1.286710   -0.271017
  52 H     1.0000    0     1.008    8.819103   -1.643348    2.307816
  53 H     1.0000    0     1.008    9.029297    2.137850   -2.065862
  54 C     6.0000    0    12.011   11.904652    2.484375    0.916178
  55 C     6.0000    0    12.011   14.197270    1.833504   -0.757170
  56 C     6.0000    0    12.011   12.317819    1.815648    3.720633
  57 H     1.0000    0     1.008   11.643713    4.551288    0.818499
  58 H     1.0000    0     1.008   12.312063   -0.257141    3.892962
  59 C     6.0000    0    12.011   10.197550    2.899702    5.369718
  60 C     6.0000    0    12.011   14.869773    2.771614    4.700449
  61 H     1.0000    0     1.008   14.700037   -0.164979   -0.533869
  62 H     1.0000    0     1.008   15.848826    2.984320   -0.286203
  63 H     1.0000    0     1.008   13.751006    2.153495   -2.752816
  64 H     1.0000    0     1.008    8.327978    2.301728    4.725841
  65 H     1.0000    0     1.008   10.254511    4.972565    5.319818
  66 H     1.0000    0     1.008   10.423544    2.310745    7.341865
  67 H     1.0000    0     1.008   16.465715    1.824295    3.791123
  68 H     1.0000    0     1.008   15.021838    2.444509    6.739152
  69 H     1.0000    0     1.008   15.059435    4.811392    4.372267
  70 H     1.0000    0     1.008    5.547467   -5.449902   -2.961961
  71 H     1.0000    0     1.008    7.114784   -5.841353   -0.026446
  72 H     1.0000    0     1.008    8.750010   -4.544923   -2.648904

--------------------------------
INTERNAL COORDINATES (ANGSTROEM)
--------------------------------
 C      0   0   0     0.000000000000     0.00000000     0.00000000
 C      1   0   0     1.510605576276     0.00000000     0.00000000
 C      2   1   0     1.533988292482   110.48256793     0.00000000
 H      2   1   3     1.095879231548   110.68133657   237.86669031
 H      2   1   3     1.100134944581   109.83145028   118.75192016
 C      1   2   3     1.479622822773   113.99502062   306.26739958
 C      6   1   2     1.512833728142   114.45161460    49.54846107
 C      3   2   1     1.529698253260   110.14060393    56.79650919
 H      7   6   1     1.095225557664   110.21723982   188.87766455
 H      7   6   1     1.100683644338   108.25885483    72.21802255
 H      8   3   2     1.098549167074   108.30581943    64.33049734
 H      8   3   2     1.096143384870   109.51639716   181.33189834
 O      3   2   1     1.437321038446   110.70429742   292.79793635
 H      3   2   1     1.096999650479   109.49169793   177.25543754
 C      1   2   3     1.354387034758   121.17045179   123.12518872
 C      6   1   2     1.337588886515   123.12264441   231.44179128
 H     16   6   1     1.086774823704   121.34945266   359.06171637
 H     16   6   1     1.087508051631   120.94970496   178.45953009
 C     15   1   2     1.445038889876   126.18109631   185.25904575
 H     15   1   2     1.089368639700   116.26237328     3.11816007
 C     19  15   1     1.349962437311   126.40402033   186.01036108
 H     19  15   1     1.087764265323   115.79867521     6.74827739
 C     21  19  15     1.507465151722   125.69731939     2.48798732
 C     23  21  19     1.541237337511   111.40670109   124.19457335
 H     23  21  19     1.093255880956   112.38845050     0.63645800
 H     23  21  19     1.101535178122   107.91147591   242.71690787
 C     24  23  21     1.534448055547   112.64368150    51.39846507
 H     24  23  21     1.097386649032   108.97416346   289.25368833
 H     24  23  21     1.096920107143   109.12434126   173.31701908
 C     27  24  23     1.534771746036   111.86436427   306.25711585
 H     27  24  23     1.095013863489   108.91751725   182.75687214
 H     27  24  23     1.100486388156   109.16629926    66.28739810
 C     21  19  15     1.497821658862   122.92019499   180.32213538
 H     33  21  19     1.105554822598   106.37856671   127.44720804
 C     33  21  19     1.525920781061   121.22840371     4.85977925
 H     13   3   2     0.967748338611   107.62620012    42.43646659
 C     35  33  21     1.548304465112   103.52007998   196.52111260
 H     35  33  21     1.095055951513   112.08796627    74.55028439
 H     35  33  21     1.095717280668   110.81816455   314.91720204
 C     30  27  24     1.553747406569   116.11054165   166.23921213
 H     37  35  33     1.094465105334   111.71980742   250.14748358
 H     37  35  33     1.096283974347   111.05220320   131.58035466
 H     40  30  27     1.102643978309   106.47297977   321.17941817
 C     40  30  27     1.541964899153   118.87210799    81.95503815
 C     30  27  24     1.535547644633   111.08555026   294.07834857
 H     45  30  27     1.094692606891   111.62066794   186.69498867
 H     45  30  27     1.094382631549   111.49264038    66.65442000
 H     45  30  27     1.095564279423   110.66832904   306.54067262
 H     44  40  30     1.099993356998   108.35938391    61.30820281
 C     44  40  30     1.536497354611   113.44103557   300.44777941
 C     44  40  30     1.506537470745   109.47180223   178.75707630
 C     51  44  40     1.332305026705   124.84991316   239.07530583
 H     51  44  40     1.092728961037   114.86793068    60.16064865
 H     52  51  44     1.093624540940   117.64847311     0.71897967
 C     52  51  44     1.511403738717   127.97028278   184.86388791
 C     55  52  51     1.540970807748   107.62790745   107.17633318
 C     55  52  51     1.541248144034   114.73685129   340.49855809
 H     55  52  51     1.103656469330   107.16509034   222.01251176
 H     57  55  52     1.100661264406   107.95066891    53.44196673
 C     57  55  52     1.532806094599   111.00354821   294.17101559
 C     57  55  52     1.532457332509   112.02446571   171.80501740
 H     56  55  52     1.096888008595   110.15451194   287.43676412
 H     56  55  52     1.093980187074   111.93950452   166.54094703
 H     56  55  52     1.095300705623   110.47164593    46.38782444
 H     60  57  55     1.093163783662   112.12827951    54.91672442
 H     60  57  55     1.097643787414   109.88940881   294.97491912
 H     60  57  55     1.095704773204   110.84919527   176.03382769
 H     61  57  55     1.093658970137   112.35306556   294.20264032
 H     61  57  55     1.095592308728   110.22682692   174.07322050
 H     61  57  55     1.097883000162   110.58454997    55.06775212
 H     50  44  40     1.092908064521   111.90559550    67.34675903
 H     50  44  40     1.096982618256   110.68100334   306.66674221
 H     50  44  40     1.095288017116   110.13003366   187.32599891

---------------------------
INTERNAL COORDINATES (A.U.)
---------------------------
 C      0   0   0     0.000000000000     0.00000000     0.00000000
 C      1   0   0     2.854630835537     0.00000000     0.00000000
 C      2   1   0     2.898817765433   110.48256793     0.00000000
 H      2   1   3     2.070911623478   110.68133657   237.86669031
 H      2   1   3     2.078953755614   109.83145028   118.75192016
 C      1   2   3     2.796081916541   113.99502062   306.26739958
 C      6   1   2     2.858841432348   114.45161460    49.54846107
 C      3   2   1     2.890710766199   110.14060393    56.79650919
 H      7   6   1     2.069676358856   110.21723982   188.87766455
 H      7   6   1     2.079990647886   108.25885483    72.21802255
 H      8   3   2     2.075957070417   108.30581943    64.33049734
 H      8   3   2     2.071410800913   109.51639716   181.33189834
 O      3   2   1     2.716143129186   110.70429742   292.79793635
 H      3   2   1     2.073028908412   109.49169793   177.25543754
 C      1   2   3     2.559420575027   121.17045179   123.12518872
 C      6   1   2     2.527676675291   123.12264441   231.44179128
 H     16   6   1     2.053706786040   121.34945266   359.06171637
 H     16   6   1     2.055092386016   120.94970496   178.45953009
 C     15   1   2     2.730727754730   126.18109631   185.25904575
 H     15   1   2     2.058608387916   116.26237328     3.11816007
 C     19  15   1     2.551059297599   126.40402033   186.01036108
 H     19  15   1     2.055576559726   115.79867521     6.74827739
 C     21  19  15     2.848696293185   125.69731939     2.48798732
 C     23  21  19     2.912516475269   111.40670109   124.19457335
 H     23  21  19     2.065954209305   112.38845050     0.63645800
 H     23  21  19     2.081599813531   107.91147591   242.71690787
 C     24  23  21     2.899686591712   112.64368150    51.39846507
 H     24  23  21     2.073760229692   108.97416346   289.25368833
 H     24  23  21     2.072878593291   109.12434126   173.31701908
 C     27  24  23     2.900298278088   111.86436427   306.25711585
 H     27  24  23     2.069276314841   108.91751725   182.75687214
 H     27  24  23     2.079617887722   109.16629926    66.28739810
 C     21  19  15     2.830472732705   122.92019499   180.32213538
 H     33  21  19     2.089195840747   106.37856671   127.44720804
 C     33  21  19     2.883572378264   121.22840371     4.85977925
 H     13   3   2     1.828779326532   107.62620012    42.43646659
 C     35  33  21     2.925871410990   103.52007998   196.52111260
 H     35  33  21     2.069355849680   112.08796627    74.55028439
 H     35  33  21     2.070605580667   110.81816455   314.91720204
 C     30  27  24     2.936157079706   116.11054165   166.23921213
 H     37  35  33     2.068239312215   111.71980742   250.14748358
 H     37  35  33     2.071676476522   111.05220320   131.58035466
 H     40  30  27     2.083695142221   106.47297977   321.17941817
 C     40  30  27     2.913891367519   118.87210799    81.95503815
 C     30  27  24     2.901764513944   111.08555026   294.07834857
 H     45  30  27     2.068669227852   111.62066794   186.69498867
 H     45  30  27     2.068083459347   111.49264038    66.65442000
 H     45  30  27     2.070316450217   110.66832904   306.54067262
 H     44  40  30     2.078686193858   108.35938391    61.30820281
 C     44  40  30     2.903559205710   113.44103557   300.44777941
 C     44  40  30     2.846943230198   109.47180223   178.75707630
 C     51  44  40     2.517691627319   124.84991316   239.07530583
 H     51  44  40     2.064958474964   114.86793068    60.16064865
 H     52  51  44     2.066650875713   117.64847311     0.71897967
 C     52  51  44     2.856139143960   127.97028278   184.86388791
 C     55  52  51     2.912012807010   107.62790745   107.17633318
 C     55  52  51     2.912536896639   114.73685129   340.49855809
 H     55  52  51     2.085608472965   107.16509034   222.01251176
 H     57  55  52     2.079948355943   107.95066891    53.44196673
 C     57  55  52     2.896583735198   111.00354821   294.17101559
 C     57  55  52     2.895924670361   112.02446571   171.80501740
 H     56  55  52     2.072817935827   110.15451194   287.43676412
 H     56  55  52     2.067322949505   111.93950452   166.54094703
 H     56  55  52     2.069818367918   110.47164593    46.38782444
 H     60  57  55     2.065780170643   112.12827951    54.91672442
 H     60  57  55     2.074246150812   109.88940881   294.97491912
 H     60  57  55     2.070581944986   110.84919527   176.03382769
 H     61  57  55     2.066715937466   112.35306556   294.20264032
 H     61  57  55     2.070369417926   110.22682692   174.07322050
 H     61  57  55     2.074698197394   110.58454997    55.06775212
 H     50  44  40     2.065296931499   111.90559550    67.34675903
 H     50  44  40     2.072996722175   110.68100334   306.66674221
 H     50  44  40     2.069794390115   110.13003366   187.32599891

---------------------
BASIS SET INFORMATION
---------------------
There are 3 groups of distinct atoms

 Group   1 Type C   : 7s4p1d contracted to 3s2p1d pattern {511/31/1}
 Group   2 Type H   : 4s1p contracted to 2s1p pattern {31/1}
 Group   3 Type O   : 7s4p1d contracted to 3s2p1d pattern {511/31/1}

Atom   0C    basis set group =>   1
Atom   1C    basis set group =>   1
Atom   2C    basis set group =>   1
Atom   3H    basis set group =>   2
Atom   4H    basis set group =>   2
Atom   5C    basis set group =>   1
Atom   6C    basis set group =>   1
Atom   7C    basis set group =>   1
Atom   8H    basis set group =>   2
Atom   9H    basis set group =>   2
Atom  10H    basis set group =>   2
Atom  11H    basis set group =>   2
Atom  12O    basis set group =>   3
Atom  13H    basis set group =>   2
Atom  14C    basis set group =>   1
Atom  15C    basis set group =>   1
Atom  16H    basis set group =>   2
Atom  17H    basis set group =>   2
Atom  18C    basis set group =>   1
Atom  19H    basis set group =>   2
Atom  20C    basis set group =>   1
Atom  21H    basis set group =>   2
Atom  22C    basis set group =>   1
Atom  23C    basis set group =>   1
Atom  24H    basis set group =>   2
Atom  25H    basis set group =>   2
Atom  26C    basis set group =>   1
Atom  27H    basis set group =>   2
Atom  28H    basis set group =>   2
Atom  29C    basis set group =>   1
Atom  30H    basis set group =>   2
Atom  31H    basis set group =>   2
Atom  32C    basis set group =>   1
Atom  33H    basis set group =>   2
Atom  34C    basis set group =>   1
Atom  35H    basis set group =>   2
Atom  36C    basis set group =>   1
Atom  37H    basis set group =>   2
Atom  38H    basis set group =>   2
Atom  39C    basis set group =>   1
Atom  40H    basis set group =>   2
Atom  41H    basis set group =>   2
Atom  42H    basis set group =>   2
Atom  43C    basis set group =>   1
Atom  44C    basis set group =>   1
Atom  45H    basis set group =>   2
Atom  46H    basis set group =>   2
Atom  47H    basis set group =>   2
Atom  48H    basis set group =>   2
Atom  49C    basis set group =>   1
Atom  50C    basis set group =>   1
Atom  51C    basis set group =>   1
Atom  52H    basis set group =>   2
Atom  53H    basis set group =>   2
Atom  54C    basis set group =>   1
Atom  55C    basis set group =>   1
Atom  56C    basis set group =>   1
Atom  57H    basis set group =>   2
Atom  58H    basis set group =>   2
Atom  59C    basis set group =>   1
Atom  60C    basis set group =>   1
Atom  61H    basis set group =>   2
Atom  62H    basis set group =>   2
Atom  63H    basis set group =>   2
Atom  64H    basis set group =>   2
Atom  65H    basis set group =>   2
Atom  66H    basis set group =>   2
Atom  67H    basis set group =>   2
Atom  68H    basis set group =>   2
Atom  69H    basis set group =>   2
Atom  70H    basis set group =>   2
Atom  71H    basis set group =>   2
Atom  72H    basis set group =>   2

-------------------------
BASIS SET IN INPUT FORMAT
-------------------------

 # Basis set for element : H 
 NewGTO H 
 S 3 
   1      13.0107010000      0.0334854848
   2       1.9622572000      0.2347218709
   3       0.4445379600      0.8137702853
 S 1 
   1       0.1219496200      1.0000000000
 P 1 
   1       0.8000000000      1.0000000000
  end;

 # Basis set for element : C 
 NewGTO C 
 S 5 
   1    1238.4016938000      0.0055173650
   2     186.2900499200      0.0410888285
   3      42.2511763460      0.1822538213
   4      11.6765579320      0.4682845944
   5       3.5930506482      0.4457581734
 S 1 
   1       0.4024514736      1.0000000000
 S 1 
   1       0.1309018267      1.0000000000
 P 3 
   1       9.4680970621      0.0568883320
   2       2.0103545142      0.3129405934
   3       0.5477100471      0.7606501651
 P 1 
   1       0.1526861379      1.0000000000
 D 1 
   1       0.8000000000      1.0000000000
  end;

 # Basis set for element : O 
 NewGTO O 
 S 5 
   1    2266.1767785000     -0.0053893504
   2     340.8701019100     -0.0402347214
   3      77.3631351670     -0.1800818421
   4      21.4796449400     -0.4682885766
   5       6.6589433124     -0.4469261716
 S 1 
   1       0.8097597567      1.0000000000
 S 1 
   1       0.2553077223      1.0000000000
 P 3 
   1      17.7215043170      0.0626302488
   2       3.8635505440      0.3333113849
   3       1.0480920883      0.7414863830
 P 1 
   1       0.2764154441      1.0000000000
 D 1 
   1       1.2000000000      1.0000000000
  end;

---------------------------------
AUXILIARY/J BASIS SET INFORMATION
---------------------------------
There are 3 groups of distinct atoms

 Group   1 Type C   : 12s5p4d2f1g contracted to 6s4p3d1f1g pattern {711111/2111/211/2/1}
 Group   2 Type H   : 5s2p1d contracted to 3s1p1d pattern {311/2/1}
 Group   3 Type O   : 12s5p4d2f1g contracted to 6s4p3d1f1g pattern {711111/2111/211/2/1}

Atom   0C    basis set group =>   1
Atom   1C    basis set group =>   1
Atom   2C    basis set group =>   1
Atom   3H    basis set group =>   2
Atom   4H    basis set group =>   2
Atom   5C    basis set group =>   1
Atom   6C    basis set group =>   1
Atom   7C    basis set group =>   1
Atom   8H    basis set group =>   2
Atom   9H    basis set group =>   2
Atom  10H    basis set group =>   2
Atom  11H    basis set group =>   2
Atom  12O    basis set group =>   3
Atom  13H    basis set group =>   2
Atom  14C    basis set group =>   1
Atom  15C    basis set group =>   1
Atom  16H    basis set group =>   2
Atom  17H    basis set group =>   2
Atom  18C    basis set group =>   1
Atom  19H    basis set group =>   2
Atom  20C    basis set group =>   1
Atom  21H    basis set group =>   2
Atom  22C    basis set group =>   1
Atom  23C    basis set group =>   1
Atom  24H    basis set group =>   2
Atom  25H    basis set group =>   2
Atom  26C    basis set group =>   1
Atom  27H    basis set group =>   2
Atom  28H    basis set group =>   2
Atom  29C    basis set group =>   1
Atom  30H    basis set group =>   2
Atom  31H    basis set group =>   2
Atom  32C    basis set group =>   1
Atom  33H    basis set group =>   2
Atom  34C    basis set group =>   1
Atom  35H    basis set group =>   2
Atom  36C    basis set group =>   1
Atom  37H    basis set group =>   2
Atom  38H    basis set group =>   2
Atom  39C    basis set group =>   1
Atom  40H    basis set group =>   2
Atom  41H    basis set group =>   2
Atom  42H    basis set group =>   2
Atom  43C    basis set group =>   1
Atom  44C    basis set group =>   1
Atom  45H    basis set group =>   2
Atom  46H    basis set group =>   2
Atom  47H    basis set group =>   2
Atom  48H    basis set group =>   2
Atom  49C    basis set group =>   1
Atom  50C    basis set group =>   1
Atom  51C    basis set group =>   1
Atom  52H    basis set group =>   2
Atom  53H    basis set group =>   2
Atom  54C    basis set group =>   1
Atom  55C    basis set group =>   1
Atom  56C    basis set group =>   1
Atom  57H    basis set group =>   2
Atom  58H    basis set group =>   2
Atom  59C    basis set group =>   1
Atom  60C    basis set group =>   1
Atom  61H    basis set group =>   2
Atom  62H    basis set group =>   2
Atom  63H    basis set group =>   2
Atom  64H    basis set group =>   2
Atom  65H    basis set group =>   2
Atom  66H    basis set group =>   2
Atom  67H    basis set group =>   2
Atom  68H    basis set group =>   2
Atom  69H    basis set group =>   2
Atom  70H    basis set group =>   2
Atom  71H    basis set group =>   2
Atom  72H    basis set group =>   2

-------------------------------------
AUXILIARY/J BASIS SET IN INPUT FORMAT
-------------------------------------

 # Auxiliary/J basis set for element : H 
 NewAuxJGTO H 
 S 3 
   1      15.6752927000      0.1007184237
   2       3.6063578000      0.3404257499
   3       1.2080016000      0.6491996172
 S 1 
   1       0.4726794000      1.0000000000
 S 1 
   1       0.2018100000      1.0000000000
 P 2 
   1       2.0281365000      0.5596620919
   2       0.5358730000      0.5596620919
 D 1 
   1       2.2165124000      1.0000000000
  end;

 # Auxiliary/J basis set for element : C 
 NewAuxJGTO C 
 S 7 
   1    1861.0916331000      0.0134602335
   2     642.9939764000      0.0299160374
   3     235.1105725000      0.1008649584
   4      90.7028894000      0.2370970548
   5      36.7794552000      0.3924037254
   6      15.6046273000      0.3195862154
   7       6.8907294000      0.0530104441
 S 1 
   1       3.1478850000     -1.0000000000
 S 1 
   1       1.4777287000      1.0000000000
 S 1 
   1       0.7076466000      1.0000000000
 S 1 
   1       0.3430122000      1.0000000000
 S 1 
   1       0.1669453000      1.0000000000
 P 2 
   1      13.5472892000     -0.6769313712
   2       5.4669419000     -0.3779500978
 P 1 
   1       2.1751721000      1.0000000000
 P 1 
   1       0.8582194000      1.0000000000
 P 1 
   1       0.3376720000      1.0000000000
 D 2 
   1       5.9287253000     -0.3533329857
   2       1.9809209000     -0.7456525731
 D 1 
   1       0.8055417000     -1.0000000000
 D 1 
   1       0.3531244000     -1.0000000000
 F 2 
   1       1.6755626000      0.6311076882
   2       0.5997536000      0.4968166032
 G 1 
   1       1.0024600000     -1.0000000000
  end;

 # Auxiliary/J basis set for element : O 
 NewAuxJGTO O 
 S 7 
   1    2876.8216605000      0.0168151159
   2    1004.7443032000      0.0340137548
   3     369.7579954000      0.1194951309
   4     142.9442404000      0.2664627624
   5      57.8366425000      0.4202764046
   6      24.3864983000      0.2765077335
   7      10.6622662000      0.0057008815
 S 1 
   1       4.8070437000     -1.0000000000
 S 1 
   1       2.2210770000      1.0000000000
 S 1 
   1       1.0447795000      1.0000000000
 S 1 
   1       0.4968425000      1.0000000000
 S 1 
   1       0.2371384000      1.0000000000
 P 2 
   1      64.2613382000     -0.2731534179
   2      16.3006076000     -0.8168011598
 P 1 
   1       4.3550542000      1.0000000000
 P 1 
   1       1.2019554000      1.0000000000
 P 1 
   1       0.3354196000      1.0000000000
 D 2 
   1       9.2146611000     -0.4661230638
   2       2.8435251000     -0.6600908911
 D 1 
   1       0.9955759000     -1.0000000000
 D 1 
   1       0.3649441000     -1.0000000000
 F 2 
   1       2.6420115000      0.5931563945
   2       0.7345613000      0.5931563945
 G 1 
   1       1.3931000000     -1.0000000000
  end;


Checking for AutoStart:
The File: inpS.gbw exists
Trying to determine its content:
     ... Fine, the file contains calculation information
     ... Fine, the calculation information was read
     ... Fine, the file contains a basis set
     ... Fine, the basis set was read
     ... Fine, the file contains a geometry
     ... Fine, the geometry was read
     ... Fine, the file contains a set of orbitals
     ... Fine, the orbitals can be read
     => possible old guess file was deleted
     => GBW file was renamed to GES file
     => GES file is set as startup file
     => Guess is set to MORead
     ... now leaving AutoStart



           ************************************************************
           *        Program running with 4 parallel MPI-processes     *
           *              working on a common directory               *
           ************************************************************
------------------------------------------------------------------------------
                             ORCA STARTUP CALCULATIONS
                           -- RI-GTO INTEGRALS CHOSEN --
------------------------------------------------------------------------------
------------------------------------------------------------------------------
                   ___                                                        
                  /   \      - P O W E R E D   B Y -                         
                 /     \                                                     
                 |  |  |   _    _      __       _____    __    __             
                 |  |  |  | |  | |    /  \     |  _  \  |  |  /  |          
                  \  \/   | |  | |   /    \    | | | |  |  | /  /          
                 / \  \   | |__| |  /  /\  \   | |_| |  |  |/  /          
                |  |  |   |  __  | /  /__\  \  |    /   |      \           
                |  |  |   | |  | | |   __   |  |    \   |  |\   \          
                \     /   | |  | | |  |  |  |  | |\  \  |  | \   \       
                 \___/    |_|  |_| |__|  |__|  |_| \__\ |__|  \__/        
                                                                              
                      - O R C A' S   B I G   F R I E N D -                    
                                      &                                       
                       - I N T E G R A L  F E E D E R -                       
                                                                              
 v1 FN, 2020, v2 2021, v3 2022-2024                                           
------------------------------------------------------------------------------


----------------------
SHARK INTEGRAL PACKAGE
----------------------

Number of atoms                             ...     73
Number of basis functions                   ...    626
Number of shells                            ...    306
Maximum angular momentum                    ...      2
Integral batch strategy                     ... SHARK/LIBINT Hybrid
RI-J (if used) integral strategy            ... SPLIT-RIJ (Revised 2003 algorithm where possible)
Printlevel                                  ...      1
Contraction scheme used                     ... SEGMENTED contraction
Prescreening option                         ... SCHWARTZ
   Thresh                                   ... 3.000e-11
   Tcut                                     ... 1.000e-12
   Tpresel                                  ... 1.000e-12 
Coulomb Range Separation                    ... NOT USED
Exchange Range Separation                   ... Long Range
   Mu parameter                             ... 3.000e-01
   Scaling (regular/separated)              ... 1.670e-01 8.330e-01
Multipole approximations                    ... NOT USED
Finite Nucleus Model                        ... NOT USED
CABS basis                                  ... NOT available
Auxiliary Coulomb fitting basis             ... AVAILABLE
   # of basis functions in Aux-J            ...   1905
   # of shells in Aux-J                     ...    655
   Maximum angular momentum in Aux-J        ...      4
Auxiliary J/K fitting basis                 ... NOT available
Auxiliary Correlation fitting basis         ... NOT available
Auxiliary 'external' fitting basis          ... NOT available

Checking pre-screening integrals            ... done (  0.0 sec) Dimension = 306
Check shell pair data                       ... done (  0.0 sec)
Shell pair information
Shell pair cut-off parameter TPreSel        ...   1.0e-12
Total number of shell pairs                 ...     46971
Shell pairs after pre-screening             ...     27592
Total number of primitive shell pairs       ...    162105
Primitive shell pairs kept                  ...     60929
          la=0 lb=0:   9660 shell pairs
          la=1 lb=0:  10571 shell pairs
          la=1 lb=1:   2932 shell pairs
          la=2 lb=0:   2759 shell pairs
          la=2 lb=1:   1474 shell pairs
          la=2 lb=2:    196 shell pairs

Calculating one electron integrals          ... done (  0.1 sec)
Calculating RI/J V-Matrix + Cholesky decomp.... done (  0.2 sec)
Calculating Nuclear repulsion               ... done (  0.0 sec) ENN=   2790.197660660765 Eh

Diagonalization of the overlap matrix:
Smallest eigenvalue                        ... 4.513e-04
Time for diagonalization                   ...    0.052 sec
Threshold for overlap eigenvalues          ... 1.000e-07
Number of eigenvalues below threshold      ... 0
Time for construction of square roots      ...    0.031 sec
Total time needed                          ...    0.086 sec

-------------------
DFT GRID GENERATION
-------------------

General Integration Accuracy     IntAcc      ... 4.388
Radial Grid Type                 RadialGrid  ... OptM3 with GC (2021)
Angular Grid (max. ang.)         AngularGrid ... 4 (Lebedev-302)
Angular grid pruning method      GridPruning ... 4 (adaptive)
Weight generation scheme         WeightScheme... mBecke (2022)
Basis function cutoff            BFCut       ... 1.0000e-11
Integration weight cutoff        WCut        ... 1.0000e-14
Partially contracted basis set               ... off
Rotationally invariant grid construction     ... off
Angular grids for H and He will be reduced by one unit

Total number of grid points                  ...   309838
Total number of batches                      ...     4873
Average number of points per batch           ...       63
Average number of grid points per atom       ...     4244

--------------------
COSX GRID GENERATION
--------------------

GRIDX 1
-------
General Integration Accuracy     IntAcc      ... 3.816
Radial Grid Type                 RadialGrid  ... OptM3 with GC (2021)
Angular Grid (max. ang.)         AngularGrid ... 1 (Lebedev-50)
Angular grid pruning method      GridPruning ... 4 (adaptive)
Weight generation scheme         WeightScheme... mBecke (2022)
Basis function cutoff            BFCut       ... 1.0000e-11
Integration weight cutoff        WCut        ... 1.0000e-14
Partially contracted basis set               ... on
Rotationally invariant grid construction     ... off
Angular grids for H and He will be reduced by one unit

Total number of grid points                  ...    39392
Total number of batches                      ...      349
Average number of points per batch           ...      112
Average number of grid points per atom       ...      540
UseSFitting                                  ... on

GRIDX 2
-------
General Integration Accuracy     IntAcc      ... 4.020
Radial Grid Type                 RadialGrid  ... OptM3 with GC (2021)
Angular Grid (max. ang.)         AngularGrid ... 2 (Lebedev-110)
Angular grid pruning method      GridPruning ... 4 (adaptive)
Weight generation scheme         WeightScheme... mBecke (2022)
Basis function cutoff            BFCut       ... 1.0000e-11
Integration weight cutoff        WCut        ... 1.0000e-14
Partially contracted basis set               ... on
Rotationally invariant grid construction     ... off
Angular grids for H and He will be reduced by one unit

Total number of grid points                  ...    81375
Total number of batches                      ...      678
Average number of points per batch           ...      120
Average number of grid points per atom       ...     1115
UseSFitting                                  ... on

GRIDX 3
-------
General Integration Accuracy     IntAcc      ... 4.338
Radial Grid Type                 RadialGrid  ... OptM3 with GC (2021)
Angular Grid (max. ang.)         AngularGrid ... 3 (Lebedev-194)
Angular grid pruning method      GridPruning ... 4 (adaptive)
Weight generation scheme         WeightScheme... mBecke (2022)
Basis function cutoff            BFCut       ... 1.0000e-11
Integration weight cutoff        WCut        ... 1.0000e-14
Partially contracted basis set               ... on
Rotationally invariant grid construction     ... off
Angular grids for H and He will be reduced by one unit

Total number of grid points                  ...   176154
Total number of batches                      ...     1415
Average number of points per batch           ...      124
Average number of grid points per atom       ...     2413
UseSFitting                                  ... on
Initializing property integral containers    ... done (  0.0 sec)

SHARK setup successfully completed in   4.4 seconds

Maximum memory used throughout the entire STARTUP-calculation: 95.8 MB


           ************************************************************
           *        Program running with 4 parallel MPI-processes     *
           *              working on a common directory               *
           ************************************************************
-------------------------------------------------------------------------------
                                 ORCA GUESS
                   Start orbitals & Density for SCF / CASSCF
-------------------------------------------------------------------------------

------------
SCF SETTINGS
------------
Hamiltonian:
 Density Functional     Method          .... DFT(GTOs)
 Exchange Functional    Exchange        .... WB97X-V
 Correlation Functional Correlation     .... WB97X-V
 Gradients option       PostSCFGGA      .... off
 Hybrid DFT is turned on
   Fraction HF Exchange ScalHFX         ....  0.167000
   Scaling of DF-GGA-X  ScalDFX         ....  0.000000
   Scaling of DF-GGA-C  ScalDFC         ....  1.000000
   Scaling of DF-LDA-C  ScalLDAC        ....  1.000000
   Perturbative correction              ....  0.000000
 Long-range corrected/Screened/Range-Separated Hybrid DFT is turned on
   Amount of maximum screened exact exchange              ....  0.833000
   Range separation parameter mu (erf(mu*r12)/r12)        ....  0.300000
 RI-approximation to the Coulomb term is turned on
   Number of AuxJ basis functions       .... 1905
   RIJ-COSX (HFX calculated with COS-X)).... on


General Settings:
 Integral files         IntName         .... inpS
 Hartree-Fock type      HFTyp           .... RHF
 Total Charge           Charge          ....    0
 Multiplicity           Mult            ....    1
 Number of Electrons    NEL             ....  220
 Basis Dimension        Dim             ....  626
 Nuclear Repulsion      ENuc            ....   2790.1976606608 Eh

Convergence Acceleration:
 AO-DIIS                CNVDIIS         .... on
   Start iteration      DIISMaxIt       ....    12
   Startup error        DIISStart       ....  0.200000
   # of expansion vecs  DIISMaxEq       ....     5
   Bias factor          DIISBfac        ....   1.050
   Max. coefficient     DIISMaxC        ....  10.000
 MO-DIIS                CNVKDIIS        .... off
 Trust-Rad. Augm. Hess. CNVTRAH         .... auto
   Auto Start mean grad. ratio tolernc. ....  1.125000
   Auto Start start iteration           ....     1
   Auto Start num. interpolation iter.  ....    10
   Max. Number of Micro iterations      ....    24
   Max. Number of Macro iterations      .... Maxiter - #DIIS iter
   Number of Davidson start vectors     ....     2
   Converg. threshold    (grad. norm)   ....   1.000e-04
   Grad. Scal. Fac. for Micro threshold ....   0.100
   Minimum threshold for Micro iter.    ....   1.000e-02
   NR start threshold (gradient norm)   ....   1.000e-04
   Initial trust radius                 ....   0.400
   Minimum AH scaling param. (alpha)    ....   1.000
   Maximum AH scaling param. (alpha)    .... 1000.000
   Quad. conv. algorithm                .... NR
   White noise on init. David. guess    .... on
   Maximum white noise                  ....   0.010
   Pseudo random numbers                .... off
   Inactive MOs                         .... canonical
   Orbital update algorithm             .... Taylor
   Preconditioner                       .... Diag
   Full preconditioner red. dimension   ....   250
 SOSCF                  CNVSOSCF        .... off
 Level Shifting         CNVShift        .... on
   Level shift para.    LevelShift      ....    0.2500
   Turn off err/grad.   ShiftErr        ....    0.0010
 Zerner damping         CNVZerner       .... off
 Static damping         CNVDamp         .... on
   Fraction old density DampFac         ....    0.7000
   Max. Damping (<1)    DampMax         ....    0.9800
   Min. Damping (>=0)   DampMin         ....    0.0000
   Turn off err/grad.   DampErr         ....    0.1000

SCF Procedure:
 Maximum # iterations   MaxIter         ....   125
 SCF integral mode      SCFMode         .... Direct
   Integral package                     .... SHARK and LIBINT hybrid scheme
 Reset frequency        DirectResetFreq ....    20
 Integral Threshold     Thresh          ....  3.000e-11 Eh
 Primitive CutOff       TCut            ....  1.000e-12 Eh

Convergence Tolerance:
 Convergence Check Mode ConvCheckMode   .... Total+1el-Energy
 Convergence forced     ConvForced      .... 0
 Energy Change          TolE            ....  1.000e-07 Eh
 1-El. energy change                    ....  1.000e-04 Eh
 DIIS Error             TolErr          ....  1.000e-07

---------------------
INITIAL GUESS: MOREAD
---------------------
Guess MOs are being read from file: inpS.ges
Input Geometry matches current geometry (good)
Input basis set matches current basis set (good)
Occupation numbers will be reassigned to an Aufbau configuration
MOs were renormalized
MOs were reorthogonalized (Cholesky)
                      ------------------
                      INITIAL GUESS DONE (   0.2 sec)
                      ------------------
             **** ENERGY FILE WAS UPDATED (inpS.en.tmp) ****
Finished Guess after   0.3 sec
Maximum memory used throughout the entire GUESS-calculation: 52.5 MB


           ************************************************************
           *        Program running with 4 parallel MPI-processes     *
           *              working on a common directory               *
           ************************************************************

-------------------------------------------------------------------------------------------
                                      ORCA LEAN-SCF
                              memory conserving SCF solver
-------------------------------------------------------------------------------------------

--------------------
CPCM SOLVATION MODEL
--------------------
CPCM parameters:
  Epsilon                                         ...       4.8030
  Refrac                                          ...       1.4459
  Rsolv                                           ...       1.3000
  Surface type                                    ... GAUSSIAN VDW
  Discretization scheme                           ... Constant charge density
    Threshold for H atoms                         ...       5.0000 (charges/Ang^2)
    Threshold for non-H atoms                     ...       5.0000 (charges/Ang^2)
  Epsilon function type                           ...         CPCM
Solvent:                                          ... CHLOROFORM
Radii:
  Scheme                                          ... Element-dependent radii
  Radius for C  used is    3.8550 Bohr (=   2.0400 Ang.)
  Radius for H  used is    2.4944 Bohr (=   1.3200 Ang.)
  Radius for O  used is    3.4469 Bohr (=   1.8240 Ang.)
Calculating surface                               ...        done! (  0.0s)
Cavity surface points                             ...         5358
Cavity Volume                                     ...    3618.5029
Cavity Surface-area                               ...    1787.3269
Calculating surface distance matrix               ...        done! (  0.3s)
Performing Cholesky decomposition & store         ...        done! (  0.9s)
Overall time for CPCM initialization              ...                 1.2s

----------------------------------------D-I-I-S--------------------------------------------
Iteration    Energy (Eh)           Delta-E    RMSDP     MaxDP     DIISErr   Damp  Time(sec)
-------------------------------------------------------------------------------------------
               ***  Starting incremental Fock matrix formation  ***
    1    -1168.3613770629931423     0.00e+00  3.25e-08  2.25e-06  4.51e-06  0.700  24.0

  HOMO= 109 E= -7.957 eV LUMO=  8.069 eV gap=  16.026 eV
    2    -1168.3613770568053951     6.19e-09  2.78e-08  1.45e-06  2.66e-06  0.700   4.8
                 **** Energy Check signals convergence ****

  HOMO= 109 E= -7.957 eV LUMO=  8.069 eV gap=  16.026 eV

               *****************************************************
               *                     SUCCESS                       *
               *           SCF CONVERGED AFTER   2 CYCLES          *
               *****************************************************

Recomputing exchange energy using gridx3       ... done (   41.091 sec)
Old exchange energy                            :    -56.782128912 Eh
New exchange energy                            :    -56.782124565 Eh
Exchange energy change after final integration :      0.000004348 Eh
Total energy after final integration           :  -1168.361372709 Eh
             **** ENERGY FILE WAS UPDATED (inpS.en.tmp) ****

----------------
TOTAL SCF ENERGY
----------------

Total Energy       :      -1168.36137270925565 Eh          -31792.72926 eV

Components:
Nuclear Repulsion  :       2790.19766066076500 Eh           75925.13831 eV
Electronic Energy  :      -3958.54990952322032 Eh         -107717.61930 eV
One Electron Energy:      -7125.42386876348519 Eh         -193892.64078 eV
Two Electron Energy:       3166.87395924026487 Eh           86175.02148 eV
CPCM Dielectric    :         -0.00912819434994 Eh              -0.24839 eV

Virial components:
Potential Energy   :      -2321.65737201527691 Eh          -63175.50887 eV
Kinetic Energy     :       1153.29599930602126 Eh           31382.77961 eV
Virial Ratio       :          2.01306288534106

DFT components:
N(Alpha)           :      110.000132176575 electrons
N(Beta)            :      110.000132176575 electrons
N(Total)           :      220.000264353150 electrons
E(X)               :     -111.767359483929 Eh       
E(C)               :       -8.951800777280 Eh       
E(XC)              :     -120.719160261209 Eh       

CPCM Solvation Model Properties:
Surface-charge          :         -0.04205371464484
Corrected charge        :          0.00000000000000
Outlying charge corr.   :          0.00006210452158 Eh               0.00169 eV
Free-energy (cav+disp)  :  This term is not implemented in the current solvation scheme

---------------
SCF CONVERGENCE
---------------

  Last Energy change         ...   -6.1877e-09  Tolerance :   1.0000e-07
  Last MAX-Density change    ...    1.4532e-06  Tolerance :   1.0000e-05
  Last RMS-Density change    ...    2.7794e-08  Tolerance :   1.0000e-06
  Last DIIS Error            ...    2.6645e-06  Tolerance :   1.0000e-07


----------------
ORBITAL ENERGIES
----------------

  NO   OCC          E(Eh)            E(eV) 
   0   2.0000     -19.212366      -522.7951 
   1   2.0000     -10.330292      -281.1015 
   2   2.0000     -10.294220      -280.1200 
   3   2.0000     -10.291976      -280.0589 
   4   2.0000     -10.287443      -279.9355 
   5   2.0000     -10.286613      -279.9130 
   6   2.0000     -10.285413      -279.8803 
   7   2.0000     -10.284113      -279.8450 
   8   2.0000     -10.283240      -279.8212 
   9   2.0000     -10.282921      -279.8125 
  10   2.0000     -10.281682      -279.7788 
  11   2.0000     -10.280149      -279.7371 
  12   2.0000     -10.279239      -279.7123 
  13   2.0000     -10.278056      -279.6801 
  14   2.0000     -10.277648      -279.6690 
  15   2.0000     -10.277442      -279.6634 
  16   2.0000     -10.277275      -279.6589 
  17   2.0000     -10.276983      -279.6509 
  18   2.0000     -10.274369      -279.5798 
  19   2.0000     -10.273047      -279.5438 
  20   2.0000     -10.272794      -279.5369 
  21   2.0000     -10.272235      -279.5217 
  22   2.0000     -10.271210      -279.4938 
  23   2.0000     -10.270838      -279.4837 
  24   2.0000     -10.270043      -279.4621 
  25   2.0000     -10.269981      -279.4604 
  26   2.0000     -10.268290      -279.4144 
  27   2.0000     -10.267271      -279.3867 
  28   2.0000     -10.266084      -279.3543 
  29   2.0000      -1.130906       -30.7735 
  30   2.0000      -0.998627       -27.1740 
  31   2.0000      -0.977195       -26.5908 
  32   2.0000      -0.958067       -26.0703 
  33   2.0000      -0.942991       -25.6601 
  34   2.0000      -0.917519       -24.9670 
  35   2.0000      -0.910837       -24.7851 
  36   2.0000      -0.889903       -24.2155 
  37   2.0000      -0.888077       -24.1658 
  38   2.0000      -0.873559       -23.7708 
  39   2.0000      -0.853647       -23.2289 
  40   2.0000      -0.836263       -22.7559 
  41   2.0000      -0.830901       -22.6100 
  42   2.0000      -0.809467       -22.0267 
  43   2.0000      -0.797387       -21.6980 
  44   2.0000      -0.796872       -21.6840 
  45   2.0000      -0.791373       -21.5344 
  46   2.0000      -0.760591       -20.6967 
  47   2.0000      -0.751483       -20.4489 
  48   2.0000      -0.721606       -19.6359 
  49   2.0000      -0.712955       -19.4005 
  50   2.0000      -0.704054       -19.1583 
  51   2.0000      -0.698589       -19.0096 
  52   2.0000      -0.690068       -18.7777 
  53   2.0000      -0.684847       -18.6356 
  54   2.0000      -0.650012       -17.6877 
  55   2.0000      -0.641551       -17.4575 
  56   2.0000      -0.630249       -17.1500 
  57   2.0000      -0.619799       -16.8656 
  58   2.0000      -0.607426       -16.5289 
  59   2.0000      -0.599444       -16.3117 
  60   2.0000      -0.589583       -16.0434 
  61   2.0000      -0.579795       -15.7770 
  62   2.0000      -0.579142       -15.7593 
  63   2.0000      -0.569478       -15.4963 
  64   2.0000      -0.562433       -15.3046 
  65   2.0000      -0.556151       -15.1336 
  66   2.0000      -0.554854       -15.0984 
  67   2.0000      -0.550110       -14.9693 
  68   2.0000      -0.548188       -14.9170 
  69   2.0000      -0.538421       -14.6512 
  70   2.0000      -0.535659       -14.5760 
  71   2.0000      -0.530891       -14.4463 
  72   2.0000      -0.525554       -14.3010 
  73   2.0000      -0.524083       -14.2610 
  74   2.0000      -0.519547       -14.1376 
  75   2.0000      -0.511979       -13.9317 
  76   2.0000      -0.508192       -13.8286 
  77   2.0000      -0.501410       -13.6441 
  78   2.0000      -0.499434       -13.5903 
  79   2.0000      -0.492047       -13.3893 
  80   2.0000      -0.488504       -13.2929 
  81   2.0000      -0.485779       -13.2187 
  82   2.0000      -0.483503       -13.1568 
  83   2.0000      -0.479448       -13.0465 
  84   2.0000      -0.477867       -13.0034 
  85   2.0000      -0.467519       -12.7218 
  86   2.0000      -0.462656       -12.5895 
  87   2.0000      -0.460766       -12.5381 
  88   2.0000      -0.457474       -12.4485 
  89   2.0000      -0.452942       -12.3252 
  90   2.0000      -0.449568       -12.2334 
  91   2.0000      -0.444807       -12.1038 
  92   2.0000      -0.440387       -11.9835 
  93   2.0000      -0.433945       -11.8082 
  94   2.0000      -0.427361       -11.6291 
  95   2.0000      -0.425115       -11.5680 
  96   2.0000      -0.423171       -11.5151 
  97   2.0000      -0.422646       -11.5008 
  98   2.0000      -0.416881       -11.3439 
  99   2.0000      -0.415162       -11.2971 
 100   2.0000      -0.410391       -11.1673 
 101   2.0000      -0.405777       -11.0418 
 102   2.0000      -0.403758       -10.9868 
 103   2.0000      -0.401357       -10.9215 
 104   2.0000      -0.392330       -10.6758 
 105   2.0000      -0.381177       -10.3724 
 106   2.0000      -0.372646       -10.1402 
 107   2.0000      -0.355772        -9.6810 
 108   2.0000      -0.336939        -9.1686 
 109   2.0000      -0.292431        -7.9575 
 110   0.0000       0.046520         1.2659 
 111   0.0000       0.099523         2.7082 
 112   0.0000       0.108608         2.9554 
 113   0.0000       0.132942         3.6175 
 114   0.0000       0.141491         3.8502 
 115   0.0000       0.145324         3.9545 
 116   0.0000       0.151356         4.1186 
 117   0.0000       0.158074         4.3014 
 118   0.0000       0.159753         4.3471 
 119   0.0000       0.165924         4.5150 
 120   0.0000       0.168742         4.5917 
*Only the first 10 virtual orbitals were printed.

                    ********************************
                    * MULLIKEN POPULATION ANALYSIS *
                    ********************************

-----------------------
MULLIKEN ATOMIC CHARGES
-----------------------
   0 C :   -0.174183
   1 C :    0.142284
   2 C :    0.068318
   3 H :    0.017190
   4 H :    0.030746
   5 C :   -0.169882
   6 C :    0.095030
   7 C :    0.023902
   8 H :    0.013744
   9 H :    0.027410
  10 H :    0.019931
  11 H :    0.022602
  12 O :   -0.359153
  13 H :    0.018183
  14 C :   -0.009041
  15 C :   -0.047013
  16 H :    0.035472
  17 H :    0.029388
  18 C :   -0.062111
  19 H :   -0.002054
  20 C :   -0.113806
  21 H :    0.003775
  22 C :    0.114201
  23 C :   -0.001618
  24 H :    0.014334
  25 H :    0.016576
  26 C :    0.106635
  27 H :    0.013090
  28 H :    0.015698
  29 C :   -0.412401
  30 H :    0.009065
  31 H :   -0.002480
  32 C :   -0.041986
  33 H :    0.010680
  34 C :    0.122564
  35 H :    0.179024
  36 C :    0.058601
  37 H :    0.006178
  38 H :    0.015166
  39 C :   -0.035801
  40 H :    0.022140
  41 H :    0.000508
  42 H :   -0.008911
  43 C :   -0.039213
  44 C :    0.091268
  45 H :    0.020158
  46 H :    0.024580
  47 H :    0.018358
  48 H :   -0.000173
  49 C :    0.053550
  50 C :   -0.042797
  51 C :   -0.081265
  52 H :    0.012442
  53 H :    0.007645
  54 C :   -0.050633
  55 C :    0.035101
  56 C :   -0.167608
  57 H :    0.008444
  58 H :    0.016961
  59 C :    0.035311
  60 C :    0.028221
  61 H :    0.016311
  62 H :    0.026948
  63 H :    0.015442
  64 H :    0.017120
  65 H :    0.009665
  66 H :    0.017509
  67 H :    0.024182
  68 H :    0.016506
  69 H :    0.014051
  70 H :    0.030851
  71 H :    0.012778
  72 H :    0.016298
Sum of atomic charges:    0.0000000

--------------------------------
MULLIKEN REDUCED ORBITAL CHARGES
--------------------------------
  0 C s       :     3.102482  s :     3.102482
      pz      :     1.015715  p :     3.028690
      px      :     1.004483
      py      :     1.008492
      dz2     :     0.004980  d :     0.043011
      dxz     :     0.006360
      dyz     :     0.005922
      dx2y2   :     0.014109
      dxy     :     0.011639

  1 C s       :     2.939395  s :     2.939395
      pz      :     0.989815  p :     2.883928
      px      :     0.929380
      py      :     0.964733
      dz2     :     0.008022  d :     0.034392
      dxz     :     0.006599
      dyz     :     0.003838
      dx2y2   :     0.009951
      dxy     :     0.005983

  2 C s       :     3.085236  s :     3.085236
      pz      :     0.737629  p :     2.775791
      px      :     1.047330
      py      :     0.990833
      dz2     :     0.022828  d :     0.070655
      dxz     :     0.011386
      dyz     :     0.017554
      dx2y2   :     0.011713
      dxy     :     0.007175

  3 H s       :     0.960153  s :     0.960153
      pz      :     0.004912  p :     0.022657
      px      :     0.003737
      py      :     0.014008

  4 H s       :     0.945943  s :     0.945943
      pz      :     0.014305  p :     0.023311
      px      :     0.004557
      py      :     0.004449

  5 C s       :     3.108729  s :     3.108729
      pz      :     0.975853  p :     3.016362
      px      :     0.986288
      py      :     1.054220
      dz2     :     0.009357  d :     0.044791
      dxz     :     0.005525
      dyz     :     0.008756
      dx2y2   :     0.011154
      dxy     :     0.009999

  6 C s       :     2.955536  s :     2.955536
      pz      :     1.003442  p :     2.913988
      px      :     0.946030
      py      :     0.964516
      dz2     :     0.009024  d :     0.035446
      dxz     :     0.006180
      dyz     :     0.004099
      dx2y2   :     0.008905
      dxy     :     0.007238

  7 C s       :     3.002695  s :     3.002695
      pz      :     0.985644  p :     2.938619
      px      :     0.981283
      py      :     0.971693
      dz2     :     0.007673  d :     0.034784
      dxz     :     0.006151
      dyz     :     0.004420
      dx2y2   :     0.008645
      dxy     :     0.007895

  8 H s       :     0.963424  s :     0.963424
      pz      :     0.005552  p :     0.022832
      px      :     0.003797
      py      :     0.013483

  9 H s       :     0.949189  s :     0.949189
      pz      :     0.014459  p :     0.023401
      px      :     0.004521
      py      :     0.004421

 10 H s       :     0.957246  s :     0.957246
      pz      :     0.014047  p :     0.022823
      px      :     0.004597
      py      :     0.004178

 11 H s       :     0.954771  s :     0.954771
      pz      :     0.008026  p :     0.022627
      px      :     0.007327
      py      :     0.007275

 12 O s       :     3.713465  s :     3.713465
      pz      :     1.405435  p :     4.633550
      px      :     1.346598
      py      :     1.881517
      dz2     :     0.005294  d :     0.012138
      dxz     :     0.001411
      dyz     :     0.001661
      dx2y2   :     0.003206
      dxy     :     0.000567

 13 H s       :     0.961468  s :     0.961468
      pz      :     0.001945  p :     0.020348
      px      :     0.014151
      py      :     0.004252

 14 C s       :     3.194406  s :     3.194406
      pz      :     0.992666  p :     2.778283
      px      :     0.871442
      py      :     0.914174
      dz2     :     0.004007  d :     0.036352
      dxz     :     0.007490
      dyz     :     0.003306
      dx2y2   :     0.011085
      dxy     :     0.010463

 15 C s       :     3.124575  s :     3.124575
      pz      :     1.007956  p :     2.896180
      px      :     0.981765
      py      :     0.906458
      dz2     :     0.005203  d :     0.026258
      dxz     :     0.004127
      dyz     :     0.004393
      dx2y2   :     0.006622
      dxy     :     0.005913

 16 H s       :     0.939989  s :     0.939989
      pz      :     0.006935  p :     0.024539
      px      :     0.008432
      py      :     0.009172

 17 H s       :     0.946001  s :     0.946001
      pz      :     0.004742  p :     0.024611
      px      :     0.004422
      py      :     0.015448

 18 C s       :     3.199795  s :     3.199795
      pz      :     1.028944  p :     2.827144
      px      :     0.881995
      py      :     0.916205
      dz2     :     0.003430  d :     0.035172
      dxz     :     0.006605
      dyz     :     0.003286
      dx2y2   :     0.012130
      dxy     :     0.009722

 19 H s       :     0.977740  s :     0.977740
      pz      :     0.004591  p :     0.024314
      px      :     0.004896
      py      :     0.014827

 20 C s       :     3.100191  s :     3.100191
      pz      :     0.958950  p :     2.969492
      px      :     0.986058
      py      :     1.024484
      dz2     :     0.004156  d :     0.044123
      dxz     :     0.007006
      dyz     :     0.007117
      dx2y2   :     0.014348
      dxy     :     0.011496

 21 H s       :     0.971660  s :     0.971660
      pz      :     0.004560  p :     0.024565
      px      :     0.004408
      py      :     0.015596

 22 C s       :     2.926520  s :     2.926520
      pz      :     0.999344  p :     2.923756
      px      :     0.976350
      py      :     0.948063
      dz2     :     0.009298  d :     0.035523
      dxz     :     0.004390
      dyz     :     0.005922
      dx2y2   :     0.009835
      dxy     :     0.006078

 23 C s       :     3.000415  s :     3.000415
      pz      :     1.013568  p :     2.964726
      px      :     0.964641
      py      :     0.986517
      dz2     :     0.010011  d :     0.036476
      dxz     :     0.007521
      dyz     :     0.002922
      dx2y2   :     0.010349
      dxy     :     0.005673

 24 H s       :     0.962468  s :     0.962468
      pz      :     0.005035  p :     0.023198
      px      :     0.013496
      py      :     0.004668

 25 H s       :     0.960163  s :     0.960163
      pz      :     0.013583  p :     0.023261
      px      :     0.004688
      py      :     0.004990

 26 C s       :     2.969360  s :     2.969360
      pz      :     0.968311  p :     2.888673
      px      :     0.974964
      py      :     0.945398
      dz2     :     0.006994  d :     0.035331
      dxz     :     0.006588
      dyz     :     0.005728
      dx2y2   :     0.008650
      dxy     :     0.007372

 27 H s       :     0.964060  s :     0.964060
      pz      :     0.013723  p :     0.022851
      px      :     0.004221
      py      :     0.004907

 28 H s       :     0.961663  s :     0.961663
      pz      :     0.004532  p :     0.022639
      px      :     0.003786
      py      :     0.014322

 29 C s       :     3.255708  s :     3.255708
      pz      :     1.046603  p :     3.105726
      px      :     0.999498
      py      :     1.059625
      dz2     :     0.011404  d :     0.050967
      dxz     :     0.010661
      dyz     :     0.009495
      dx2y2   :     0.010922
      dxy     :     0.008486

 30 H s       :     0.967888  s :     0.967888
      pz      :     0.009009  p :     0.023046
      px      :     0.007974
      py      :     0.006063

 31 H s       :     0.979945  s :     0.979945
      pz      :     0.013132  p :     0.022534
      px      :     0.004711
      py      :     0.004692

 32 C s       :     3.034004  s :     3.034004
      pz      :     0.989182  p :     2.964236
      px      :     0.944496
      py      :     1.030557
      dz2     :     0.008380  d :     0.043747
      dxz     :     0.007288
      dyz     :     0.008178
      dx2y2   :     0.011153
      dxy     :     0.008748

 33 H s       :     0.968053  s :     0.968053
      pz      :     0.012286  p :     0.021268
      px      :     0.003983
      py      :     0.004999

 34 C s       :     2.896343  s :     2.896343
      pz      :     0.987121  p :     2.946262
      px      :     0.978294
      py      :     0.980847
      dz2     :     0.005498  d :     0.034831
      dxz     :     0.005826
      dyz     :     0.008182
      dx2y2   :     0.008931
      dxy     :     0.006393

 35 H s       :     0.752185  s :     0.752185
[...]
 Total          139.485          174.217          192.027  iso=     168.576

 Orientation: 
  X           0.2154563   -0.5064854    0.8348958
  Y          -0.1919533   -0.8602622   -0.4723376
  Z           0.9574615   -0.0584929   -0.2825705

 --------------
 Nucleus  39C :
 --------------

Diamagnetic contribution to the shielding tensor (ppm) : 
           264.721          3.922        -7.230
             3.895        258.936         9.944
            -7.354          8.747       263.303

Paramagnetic contribution to the shielding tensor (ppm): 
           -99.828          0.154        11.391
             3.986       -124.173        -3.911
            16.155         -5.587      -132.949

Total shielding tensor (ppm): 
           164.892          4.076         4.162
             7.881        134.763         6.033
             8.801          3.160       130.354


 Diagonalized sT*s matrix:
 
 sDSO           255.577          267.399          263.983  iso=     262.320
 sPSO          -128.289         -132.131          -96.530  iso=    -118.983
        ---------------  ---------------  ---------------
 Total          127.288          135.268          167.453  iso=     143.336

 Orientation: 
  X          -0.0709631   -0.2607758   -0.9627877
  Y          -0.4833935    0.8532961   -0.1954905
  Z           0.8725222    0.4515327   -0.1866099

 --------------
 Nucleus  43C :
 --------------

Diamagnetic contribution to the shielding tensor (ppm) : 
           258.691         -1.034        -6.227
            -3.727        244.013        11.266
           -10.146         15.279       248.339

Paramagnetic contribution to the shielding tensor (ppm): 
           -94.636         -2.542         5.903
             7.532        -93.798        -9.208
            11.960        -13.572       -95.436

Total shielding tensor (ppm): 
           164.055         -3.576        -0.323
             3.805        150.215         2.058
             1.814          1.707       152.903


 Diagonalized sT*s matrix:
 
 sDSO           234.134          259.359          257.551  iso=     250.348
 sPSO           -84.891         -105.536          -93.443  iso=     -94.623
        ---------------  ---------------  ---------------
 Total          149.243          153.823          164.107  iso=     155.725

 Orientation: 
  X           0.0254347   -0.0611214   -0.9978062
  Y           0.8854772    0.4646456   -0.0058908
  Z          -0.4639863    0.8833848   -0.0659397

 --------------
 Nucleus  44C :
 --------------

Diamagnetic contribution to the shielding tensor (ppm) : 
           250.568          0.075         0.452
            -1.219        254.930         0.165
            -1.363          4.489       273.302

Paramagnetic contribution to the shielding tensor (ppm): 
           -71.377         -4.149        -1.653
            -1.133        -75.289        -3.967
             0.425         -8.697       -80.779

Total shielding tensor (ppm): 
           179.191         -4.074        -1.202
            -2.352        179.641        -3.802
            -0.938         -4.207       192.523


 Diagonalized sT*s matrix:
 
 sDSO           253.781          254.302          270.717  iso=     259.600
 sPSO           -78.338          -72.057          -77.049  iso=     -75.815
        ---------------  ---------------  ---------------
 Total          175.443          182.245          193.668  iso=     183.785

 Orientation: 
  X           0.6719298    0.7405340   -0.0109453
  Y           0.7104840   -0.6486953   -0.2727763
  Z           0.2091003   -0.1755101    0.9620152

 --------------
 Nucleus  49C :
 --------------

Diamagnetic contribution to the shielding tensor (ppm) : 
           242.867         -6.991        -3.429
           -18.837        255.279         7.039
           -11.073          8.692       245.385

Paramagnetic contribution to the shielding tensor (ppm): 
           -69.064          2.409        -2.472
            17.810        -68.603         2.182
             6.597         -2.259       -78.121

Total shielding tensor (ppm): 
           173.804         -4.583        -5.901
            -1.027        186.676         9.221
            -4.476          6.433       167.264


 Diagonalized sT*s matrix:
 
 sDSO           239.784          238.222          265.526  iso=     247.844
 sPSO           -76.829          -64.050          -74.910  iso=     -71.929
        ---------------  ---------------  ---------------
 Total          162.955          174.173          190.616  iso=     175.914

 Orientation: 
  X           0.3633302   -0.8961064    0.2549205
  Y          -0.2584312   -0.3598194   -0.8965173
  Z           0.8951002    0.2598525   -0.3623151

 --------------
 Nucleus  50C :
 --------------

Diamagnetic contribution to the shielding tensor (ppm) : 
           264.402         13.710         7.604
            14.286        257.526        -0.816
            12.757        -10.189       258.270

Paramagnetic contribution to the shielding tensor (ppm): 
          -193.385        -41.038       -89.838
           -40.136       -152.922        39.383
           -84.320         58.618      -246.578

Total shielding tensor (ppm): 
            71.016        -27.328       -82.234
           -25.850        104.604        38.567
           -71.563         48.429        11.691


 Diagonalized sT*s matrix:
 
 sDSO           271.086          268.960          240.151  iso=     260.066
 sPSO          -309.709         -205.538          -77.640  iso=    -197.629
        ---------------  ---------------  ---------------
 Total          -38.623           63.423          162.512  iso=      62.437

 Orientation: 
  X          -0.6547966    0.4855432   -0.5792143
  Y          -0.0111261    0.7600785    0.6497360
  Z          -0.7557232   -0.4318893    0.4922946

 --------------
 Nucleus  51C :
 --------------

Diamagnetic contribution to the shielding tensor (ppm) : 
           264.170         15.066         6.191
            18.243        256.788        -5.630
           -10.619         -0.621       272.297

Paramagnetic contribution to the shielding tensor (ppm): 
          -183.353        -30.554       -83.949
           -30.981       -156.756        37.309
           -63.134         40.768      -259.171

Total shielding tensor (ppm): 
            80.817        -15.489       -77.758
           -12.738        100.031        31.679
           -73.753         40.147        13.126


 Diagonalized sT*s matrix:
 
 sDSO           266.332          275.600          251.323  iso=     264.418
 sPSO          -305.434         -193.047         -100.800  iso=    -199.760
        ---------------  ---------------  ---------------
 Total          -39.102           82.553          150.523  iso=      64.658

 Orientation: 
  X          -0.5477022    0.5178129   -0.6571850
  Y           0.1032802    0.8213093    0.5610563
  Z          -0.8302744   -0.2394175    0.5033127

 --------------
 Nucleus  54C :
 --------------

Diamagnetic contribution to the shielding tensor (ppm) : 
           254.973          1.975         1.467
             7.108        240.177        -3.993
             1.587         -6.911       252.642

Paramagnetic contribution to the shielding tensor (ppm): 
          -104.481         -3.386         3.826
            -8.741        -87.387         9.085
             3.754         10.559       -83.644

Total shielding tensor (ppm): 
           150.492         -1.410         5.293
            -1.634        152.789         5.092
             5.341          3.649       168.998


 Diagonalized sT*s matrix:
 
 sDSO           255.679          240.903          251.209  iso=     249.264
 sPSO          -108.088          -87.442          -79.983  iso=     -91.838
        ---------------  ---------------  ---------------
 Total          147.591          153.461          171.226  iso=     157.426

 Orientation: 
  X           0.8149197    0.5325243    0.2287438
  Y           0.4945722   -0.8447169    0.2045767
  Z          -0.3021658    0.0535833    0.9517482

 --------------
 Nucleus  55C :
 --------------

Diamagnetic contribution to the shielding tensor (ppm) : 
           254.827         -0.358        -4.212
            -1.856        228.631        -5.501
           -21.348         -8.712       231.837

Paramagnetic contribution to the shielding tensor (ppm): 
           -69.703          0.541        -4.175
            -2.020        -58.778         9.842
             9.211          9.012       -57.711

Total shielding tensor (ppm): 
           185.123          0.183        -8.387
            -3.876        169.853         4.341
           -12.136          0.300       174.126


 Diagonalized sT*s matrix:
 
 sDSO           232.252          224.109          258.934  iso=     238.432
 sPSO           -64.793          -54.085          -67.314  iso=     -62.064
        ---------------  ---------------  ---------------
 Total          167.458          170.024          191.620  iso=     176.367

 Orientation: 
  X          -0.4115219    0.3252094   -0.8514039
  Y           0.4523720    0.8838604    0.1189550
  Z          -0.7912075    0.3361987    0.5108436

 --------------
 Nucleus  56C :
 --------------

Diamagnetic contribution to the shielding tensor (ppm) : 
           247.782         -0.294         2.055
            19.117        236.840         2.925
            17.007         -5.071       248.275

Paramagnetic contribution to the shielding tensor (ppm): 
           -80.690          0.740        -2.045
           -20.994        -73.062        -0.881
           -23.482          6.021       -70.600

Total shielding tensor (ppm): 
           167.091          0.447         0.010
            -1.877        163.778         2.044
            -6.475          0.951       177.676


 Diagonalized sT*s matrix:
 
 sDSO           239.393          251.286          242.218  iso=     244.299
 sPSO           -75.824          -85.072          -63.456  iso=     -74.784
        ---------------  ---------------  ---------------
 Total          163.570          166.213          178.762  iso=     169.515

 Orientation: 
  X           0.1256130   -0.9514596   -0.2809733
  Y           0.9893593    0.0991815    0.1064485
  Z          -0.0734141   -0.2913548    0.9537939

 --------------
 Nucleus  59C :
 --------------

Diamagnetic contribution to the shielding tensor (ppm) : 
           243.821         -5.694        -9.767
            11.917        250.839         8.054
            17.377          4.226       263.274

Paramagnetic contribution to the shielding tensor (ppm): 
           -60.737         -0.946        -1.009
           -23.670        -84.429        -1.896
           -29.274          0.698       -87.004

Total shielding tensor (ppm): 
           183.083         -6.639       -10.776
           -11.753        166.410         6.159
           -11.897          4.924       176.271


 Diagonalized sT*s matrix:
 
 sDSO           251.198          258.768          247.969  iso=     252.645
 sPSO           -88.891          -90.760          -52.519  iso=     -77.390
        ---------------  ---------------  ---------------
 Total          162.306          168.008          195.450  iso=     175.255

 Orientation: 
  X           0.3684299   -0.5296092   -0.7640507
  Y           0.9276715    0.1557756    0.3393516
  Z          -0.0607033   -0.8338154    0.5486958

 --------------
 Nucleus  60C :
 --------------

Diamagnetic contribution to the shielding tensor (ppm) : 
           249.192          7.575        10.516
            10.554        223.726        -0.614
            20.494         -5.610       222.385

Paramagnetic contribution to the shielding tensor (ppm): 
           -60.486         -3.007        -5.790
            -0.642        -55.852         4.317
           -11.388          7.993       -50.172

Total shielding tensor (ppm): 
           188.706          4.568         4.726
             9.913        167.874         3.703
             9.106          2.383       172.213


 Diagonalized sT*s matrix:
 
 sDSO           223.410          214.421          257.472  iso=     231.767
 sPSO           -57.957          -44.692          -63.861  iso=     -55.503
        ---------------  ---------------  ---------------
 Total          165.452          169.729          193.611  iso=     176.264

 Orientation: 
  X           0.2356396    0.3632738    0.9013912
  Y          -0.9549069   -0.0858422    0.2842252
  Z           0.1806290   -0.9277194    0.3266649



--------------------------------
CHEMICAL SHIELDING SUMMARY (ppm)
--------------------------------


  Nucleus  Element    Isotropic     Anisotropy
  -------  -------  ------------   ------------
      0       C           61.492        151.800 
      1       C          154.576         12.230 
      2       C          132.372         50.995 
      5       C           50.871        177.628 
      6       C          168.012         31.763 
      7       C          164.907         17.231 
     14       C           71.663        133.228 
     15       C           83.669        119.590 
     18       C           80.151        133.922 
     20       C           52.114        175.828 
     22       C          168.957          7.283 
     23       C          174.093         13.157 
     26       C          158.747         23.844 
     29       C          154.209         16.782 
     32       C          142.682         28.249 
     34       C          174.751         23.881 
     36       C          168.576         35.176 
     39       C          143.336         36.175 
     43       C          155.725         12.574 
     44       C          183.785         14.825 
     49       C          175.914         22.052 
     50       C           62.437        150.111 
     51       C           64.658        128.798 
     54       C          157.426         20.699 
     55       C          176.367         22.878 
     56       C          169.515         13.871 
     59       C          175.255         30.293 
     60       C          176.264         26.020 


NMR shielding tensor and spin rotation calculation done in   1.0 sec 

Maximum memory used throughout the entire PROP-calculation: 52.0 MB

--------------------------------
SUGGESTED CITATIONS FOR THIS RUN
--------------------------------

Below you find a list of papers that are relevant to this ORCA run
We neither can nor want to force you to cite these papers, but we appreciate if you do
You receive ORCA, which is the product of decades of hard work by many enthusiastic individuals, for free
The only thing we kindly ask in return is that you cite our papers,
We deeply appreciate it, if you show your appreciation for ORCA by not just citing the generic ORCA reference.

Please note that relegating all ORCA citations to the supporting information does *not* help us.
SI sections are not indexed - citations you put there will not count into any citation statistics
But we need these citations in order to attract the funding resources that allow us to do what we are doing

Therefore, if you are a happy ORCA user, please consider citing a few of the papers listed below in the main body of your paper

In addition to the list printed below, the program has created the file inpS.bibtex that contains the list in bibtex format
You can import this file easily into all common literature databanks and citation aid programs


List of essential papers. We consider these as the minimum necessary citations

  1. Neese,F.
     Software update: the ORCA program system, version 5.0
     WIRES Comput. Molec. Sci., 2022 12(1)e1606
     doi.org/10.1002/wcms.1606

List of papers to cite with high priority. The work reported in these papers was absolutely
necessary for this run to complete.
Our perspective: the developers of density functionals and basis sets usually get cited in chemistry papers
Good! But without the algorithms to do something with them, the functionals or basis sets would not do anything.
Hence, in our opinion, the algorithm design and method developments papers are equally worthy of getting cited

  1. Neese,F.
     An improvement of the resolution of the identity approximation for the formation of the Coulomb matrix
     J. Comp. Chem., 2003 24(14)1740-1747
     doi.org/10.1002/jcc.10318
  2. Neese,F.; Wennmohs,F.; Hansen,A.; Becker,U.
     Efficient, approximate and parallel Hartree-Fock and hybrid DFT calculations. A 'chain-of-spheres' algorithm for the Hartree-Fock exchange
     Chem. Phys., 2009 356(1-3)98-109
     doi.org/10.1016/j.chemphys.2008.10.036
  3. Stoychev,G.L.; Auer,A.A.; Izsak,R.; Neese,F.
     Self-Consistent Field Calculation of Nuclear Magnetic Resonance Chemical Shielding Constants Using Gauge-Including Atomic Orbitals and Approximate Two-Electron Integrals
     J. Chem. Theory Comput., 2018 14(2)619-637
     doi.org/10.1021/acs.jctc.7b01006
  4. Garcia-Rates,M.; Neese,F.
     Effect of the Solute Cavity on the Solvation Energy and its Derivatives within the Framework of the Gaussian Charge Scheme
     J. Comput. Chem., 2020 41 922-939
     doi.org/10.1002/jcc.26139
  5. Helmich-Paris,B.; de Souza,B.; Neese,F.; Izsák,R.
     An improved chain of spheres for exchange algorithm
     J. Chem. Phys., 2021 155 104109
     doi.org/doi: 10.1063/5.0058766.
  6. Neese,F.
     The SHARK Integral Generation and Digestion System
     J. Comp. Chem., 2022  1-16
     doi.org/10.1002/jcc.26942
  7. Caldeweyher,E.; Bannwarth,C.; Grimme,S.
     Extension of the D3 dispersion coefficient model
     J. Chem. Phys., 2017 147 034112-XXXX
     doi.org/10.1063/1.4993215
  8. Caldeweyher,E.; Ehlert,S.; Hansen,A.; Neugebauer,H.; Spicher,S.; Bannwarth,C.; Grimme,S.
     A generally applicable atomic-charge dependent London dispersion correction
     J. Chem. Phys., 2019 150 154122-XXXX
     doi.org/10.1063/1.5090222
  9. Caldeweyher,E.; Mewes,J.; Ehlert,S.; Grimme,S.
     Extension and evaluation of the D4 London-dispersion model for periodic systems
     Phys. Chem. Chem. Phys., 2020 22(16)8499-8512
     doi.org/10.1039/D0CP00502A

List of suggested additional citations. These are papers that are important in the 'surrounding' of 
of this run, or papers that preceded the highly important papers. If you like your results we are grateful for a citation.

  1. Izsak,R.; Neese,F.
     An overlap fitted chain of spheres exchange method
     J. Chem. Phys., 2011 135 144105
     doi.org/10.1063/1.3646921
  2. Izsak,R.; Hansen,A.; Neese,F.
     The resolution of identity and chain of spheres approximations for the LPNO-CCSD singles Fock term
     Molec. Phys., 2012 110 2413-2417
     doi.org/10.1080/00268976.2012.687466
  3. Neese,F.
     The ORCA program system
     WIRES Comput. Molec. Sci., 2012 2(1)73-78
     doi.org/10.1002/wcms.81
  4. Izsak,R.; Neese,F.; Klopper,W.
     Robust fitting techniques in the chain of spheres approximation to the Fock exchange: The role of the complementary space
     J. Chem. Phys., 2013 139 
     doi.org/10.1063/1.4819264
  5. Neese,F.
     Software update: the ORCA program system, version 4.0
     WIRES Comput. Molec. Sci., 2018 8(1)1-6
     doi.org/10.1002/wcms.1327
  6. Neese,F.; Wennmohs,F.; Becker,U.; Riplinger,C.
     The ORCA quantum chemistry program package
     J. Chem. Phys., 2020 152 Art. No. L224108
     doi.org/10.1063/5.0004608

Timings for individual modules:

Sum of individual times          ...      178.938 sec (=   2.982 min)
Startup calculation              ...        4.597 sec (=   0.077 min)   2.6 %
SCF iterations                   ...       72.501 sec (=   1.208 min)  40.5 %
Property integrals               ...       60.534 sec (=   1.009 min)  33.8 %
SCF Response                     ...       39.958 sec (=   0.666 min)  22.3 %
Property calculations            ...        1.348 sec (=   0.022 min)   0.8 %
                             ****ORCA TERMINATED NORMALLY****
TOTAL RUN TIME: 0 days 0 hours 2 minutes 59 seconds 218 msec
