
                                 *****************
                                 * O   R   C   A *
                                 *****************

                                            #,                                       
                                            ###                                      
                                            ####                                     
                                            #####                                    
                                            ######                                   
                                           ########,                                 
                                     ,,################,,,,,                         
                               ,,#################################,,                 
                          ,,##########################################,,             
                       ,#########################################, ''#####,          
                    ,#############################################,,   '####,        
                  ,##################################################,,,,####,       
                ,###########''''           ''''###############################       
              ,#####''   ,,,,##########,,,,          '''####'''          '####       
            ,##' ,,,,###########################,,,                        '##       
           ' ,,###''''                  '''############,,,                           
         ,,##''                                '''############,,,,        ,,,,,,###''
      ,#''                                            '''#######################'''  
     '                                                          ''''####''''         
             ,#######,   #######,   ,#######,      ##                                
            ,#'     '#,  ##    ##  ,#'     '#,    #''#        ######   ,####,        
            ##       ##  ##   ,#'  ##            #'  '#       #        #'  '#        
            ##       ##  #######   ##           ,######,      #####,   #    #        
            '#,     ,#'  ##    ##  '#,     ,#' ,#      #,         ##   #,  ,#        
             '#######'   ##     ##  '#######'  #'      '#     #####' # '####'        



                  #######################################################
                  #                        -***-                        #
                  #          Department of theory and spectroscopy      #
                  #    Directorship and core code : Frank Neese         #
                  #        Max Planck Institute fuer Kohlenforschung    #
                  #                Kaiser Wilhelm Platz 1               #
                  #                 D-45470 Muelheim/Ruhr               #
                  #                      Germany                        #
                  #                                                     #
                  #                  All rights reserved                #
                  #                        -***-                        #
                  #######################################################


                         Program Version 5.0.2 -  RELEASE  -


 With contributions from (in alphabetic order):
   Daniel Aravena         : Magnetic Suceptibility
   Michael Atanasov       : Ab Initio Ligand Field Theory (pilot matlab implementation)
   Alexander A. Auer      : GIAO ZORA, VPT2 properties, NMR spectrum
   Ute Becker             : Parallelization
   Giovanni Bistoni       : ED, misc. LED, open-shell LED, HFLD
   Martin Brehm           : Molecular dynamics
   Dmytro Bykov           : SCF Hessian
   Vijay G. Chilkuri      : MRCI spin determinant printing, contributions to CSF-ICE
   Dipayan Datta          : RHF DLPNO-CCSD density
   Achintya Kumar Dutta   : EOM-CC, STEOM-CC
   Dmitry Ganyushin       : Spin-Orbit,Spin-Spin,Magnetic field MRCI
   Miquel Garcia          : C-PCM and meta-GGA Hessian, CC/C-PCM, Gaussian charge scheme
   Yang Guo               : DLPNO-NEVPT2, F12-NEVPT2, CIM, IAO-localization
   Andreas Hansen         : Spin unrestricted coupled pair/coupled cluster methods
   Benjamin Helmich-Paris : MC-RPA, TRAH-SCF, COSX integrals
   Lee Huntington         : MR-EOM, pCC
   Robert Izsak           : Overlap fitted RIJCOSX, COSX-SCS-MP3, EOM
   Marcus Kettner         : VPT2
   Christian Kollmar      : KDIIS, OOCD, Brueckner-CCSD(T), CCSD density, CASPT2, CASPT2-K
   Simone Kossmann        : Meta GGA functionals, TD-DFT gradient, OOMP2, MP2 Hessian
   Martin Krupicka        : Initial AUTO-CI
   Lucas Lang             : DCDCAS
   Marvin Lechner         : AUTO-CI (C++ implementation), FIC-MRCC
   Dagmar Lenk            : GEPOL surface, SMD
   Dimitrios Liakos       : Extrapolation schemes; Compound Job, initial MDCI parallelization
   Dimitrios Manganas     : Further ROCIS development; embedding schemes
   Dimitrios Pantazis     : SARC Basis sets
   Anastasios Papadopoulos: AUTO-CI, single reference methods and gradients
   Taras Petrenko         : DFT Hessian,TD-DFT gradient, ASA, ECA, R-Raman, ABS, FL, XAS/XES, NRVS
   Peter Pinski           : DLPNO-MP2, DLPNO-MP2 Gradient
   Christoph Reimann      : Effective Core Potentials
   Marius Retegan         : Local ZFS, SOC
   Christoph Riplinger    : Optimizer, TS searches, QM/MM, DLPNO-CCSD(T), (RO)-DLPNO pert. Triples
   Tobias Risthaus        : Range-separated hybrids, TD-DFT gradient, RPA, STAB
   Michael Roemelt        : Original ROCIS implementation
   Masaaki Saitow         : Open-shell DLPNO-CCSD energy and density
   Barbara Sandhoefer     : DKH picture change effects
   Avijit Sen             : IP-ROCIS
   Kantharuban Sivalingam : CASSCF convergence, NEVPT2, FIC-MRCI
   Bernardo de Souza      : ESD, SOC TD-DFT
   Georgi Stoychev        : AutoAux, RI-MP2 NMR, DLPNO-MP2 response
   Willem Van den Heuvel  : Paramagnetic NMR
   Boris Wezisla          : Elementary symmetry handling
   Frank Wennmohs         : Technical directorship


 We gratefully acknowledge several colleagues who have allowed us to
 interface, adapt or use parts of their codes:
   Stefan Grimme, W. Hujo, H. Kruse, P. Pracht,  : VdW corrections, initial TS optimization,
                  C. Bannwarth, S. Ehlert          DFT functionals, gCP, sTDA/sTD-DF
   Ed Valeev, F. Pavosevic, A. Kumar             : LibInt (2-el integral package), F12 methods
   Garnet Chan, S. Sharma, J. Yang, R. Olivares  : DMRG
   Ulf Ekstrom                                   : XCFun DFT Library
   Mihaly Kallay                                 : mrcc  (arbitrary order and MRCC methods)
   Jiri Pittner, Ondrej Demel                    : Mk-CCSD
   Frank Weinhold                                : gennbo (NPA and NBO analysis)
   Christopher J. Cramer and Donald G. Truhlar   : smd solvation model
   Lars Goerigk                                  : TD-DFT with DH, B97 family of functionals
   V. Asgeirsson, H. Jonsson                     : NEB implementation
   FAccTs GmbH                                   : IRC, NEB, NEB-TS, DLPNO-Multilevel, CI-OPT
                                                   MM, QMMM, 2- and 3-layer-ONIOM, Crystal-QMMM,
                                                   LR-CPCM, SF, NACMEs, symmetry and pop. for TD-DFT,
                                                   nearIR, NL-DFT gradient (VV10), updates on ESD,
                                                   ML-optimized integration grids
   S Lehtola, MJT Oliveira, MAL Marques          : LibXC Library
   Liviu Ungur et al                             : ANISO software


 Your calculation uses the libint2 library for the computation of 2-el integrals
 For citations please refer to: http://libint.valeyev.net

 Your ORCA version has been built with support for libXC version: 5.1.0
 For citations please refer to: https://tddft.org/programs/libxc/

 This ORCA versions uses:
   CBLAS   interface :  Fast vector & matrix operations
   LAPACKE interface :  Fast linear algebra routines
   SCALAPACK package :  Parallel linear algebra routines
   Shared memory     :  Shared parallel matrices
   BLAS/LAPACK       :  OpenBLAS 0.3.15  USE64BITINT DYNAMIC_ARCH NO_AFFINITY Zen SINGLE_THREADED
        Core in use  :  Zen
   Copyright (c) 2011-2014, The OpenBLAS Project


Your calculation utilizes the atom-pairwise dispersion correction
based on tight binding partial charges (D4)
Cite in your paper:
E.Caldeweyher, C.Bannwarth, S.Grimme, J.Chem.Phys., (2017), 147, 034112.
E.Caldeweyher, S.Ehlert, A.Hansen, H.Neugebauer, S.Grimme, J.Chem.Phys., (2018), in progress.
   

================================================================================

----- Orbital basis set information -----
Your calculation utilizes the basis: pcJ-0
   F. Jensen, Theor. Chem. Acc. 126, 371 (2010).

----- AuxJ basis set information -----
Your calculation utilizes the auxiliary basis: def2/J
   F. Weigend, Phys. Chem. Chem. Phys. 8, 1057 (2006).

================================================================================
                                        WARNINGS
                       Please study these warnings very carefully!
================================================================================


INFO   : the flag for use of the SHARK integral package has been found!

================================================================================
                                       INPUT FILE
================================================================================
NAME = inpJ
|  1> ! pbe0
|  2> ! D4
|  3> ! pcJ-0
|  4> ! def2/J RIJCOSX
|  5> ! DEFGRID2
|  6> ! scfconv7
|  7> ! smallprint printgap noloewdin
|  8> ! NOSOSCF
|  9> %MaxCore 4000
| 10> %output
| 11>        print[P_BondOrder_M] 1
| 12>        print[P_Mayer] 1
| 13>        print[P_basis] 2
| 14> end
| 15> %pal
| 16>     nprocs 4
| 17> end
| 18> ! CPCM(chloroform)
| 19> *xyz 0 1
| 20> C   -5.1915844600   0.2298407900   0.2225527800
| 21> C   -6.5730762500  -0.2863069200  -0.1055172300
| 22> C   -7.1471397600   0.3807702700  -1.3613304300
| 23> H   -7.2570472200  -0.0541635500   0.7285171600
| 24> H   -6.5593425300  -1.3742596000  -0.2332672900
| 25> C   -5.0869710800   1.7043387300   0.2547252000
| 26> C   -5.7053877400   2.4023627000  -0.9353431400
| 27> C   -7.1281831100   1.8978215700  -1.2120714500
| 28> H   -5.0853416300   2.1955376000  -1.8208816000
| 29> H   -5.7034762800   3.4865448900  -0.7811601000
| 30> H   -7.5266195100   2.3636649100  -2.1210474400
| 31> H   -7.7878641500   2.1776020100  -0.3767644400
| 32> O   -8.4623810200  -0.1095960700  -1.6527470100
| 33> H   -6.5388919600   0.0924266100  -2.2301172000
| 34> C   -4.1590794200  -0.6236085900   0.4207510800
| 35> C   -4.5358683100   2.3806279000   1.2692160200
| 36> H   -4.1202855600   1.8678402200   2.1321297900
| 37> H   -4.4988942500   3.4674686300   1.2621903500
| 38> C   -2.7787802800  -0.2623981800   0.6467098200
| 39> H   -4.3948575100  -1.6853216400   0.3620144000
| 40> C   -1.7643060300  -1.1073975100   0.9306543900
| 41> H   -2.5449912000   0.7969553600   0.5680644000
| 42> C   -1.8891415100  -2.5966911600   1.1318065300
| 43> C   -0.8878277900  -3.3822415700   0.2635762800
| 44> H   -2.9049796100  -2.9559812700   0.9455021700
| 45> H   -1.6667121100  -2.8114748700   2.1894745900
| 46> C    0.5496769600  -2.8621519700   0.4006013100
| 47> H   -1.2028487700  -3.3285211000  -0.7861418300
| 48> H   -0.9228815700  -4.4418863300   0.5450094300
| 49> C    0.6383738600  -1.3541415300   0.1264091500
| 50> H    1.1998588500  -3.4293555100  -0.2735895600
| 51> H    0.9062746700  -3.0505514500   1.4245203500
| 52> C   -0.3504703400  -0.6438402200   1.1034818200
| 53> H   -0.0348430300  -0.9785981600   2.1094956800
| 54> C    0.0117513400   0.8323685300   0.9857923200
| 55> H   -9.0333328100   0.1300432600  -0.9105387700
| 56> C    1.5520068600   0.8121696900   0.8333560200
| 57> H   -0.3203682700   1.4111752800   1.8542836400
| 58> H   -0.4591554300   1.2772425100   0.1018806800
| 59> C    1.9687705200  -0.6647535100   0.5446891900
| 60> H    2.0453544900   1.1848142900   1.7351252200
| 61> H    1.8778796200   1.4623694700   0.0126025900
| 62> H    2.2674041300  -1.1404697400   1.4921674100
| 63> C    3.1600546600  -0.7448558300  -0.4206434800
| 64> C    0.2810728600  -1.0376176400  -1.3326749800
| 65> H   -0.7758026300  -1.2375108500  -1.5340664700
| 66> H    0.8760808800  -1.6473565200  -2.0209692100
| 67> H    0.4653494700   0.0134900200  -1.5768077300
| 68> H    2.8655365200  -0.2349286500  -1.3515577700
| 69> C    3.5746107400  -2.1801446400  -0.7947101000
| 70> C    4.3935286500  -0.0318829300   0.0892922300
| 71> C    4.7061154500   0.2481592600   1.3542257200
| 72> H    5.1241114900   0.2180367800  -0.6854507100
| 73> H    4.0112228200  -0.0134561900   2.1537030200
| 74> C    5.9817594700   0.9166695400   1.7874522600
| 75> C    6.7292282100   0.0245912000   2.7895334600
| 76> C    5.7110693200   2.3511138700   2.3216524200
| 77> H    6.6151021400   1.0339381200   0.8953155800
| 78> H    5.1232711900   2.8527063900   1.5378037900
| 79> C    7.0104428600   3.1403036900   2.5037132400
| 80> C    4.8866882200   2.3768900800   3.6110844900
| 81> H    6.9771676800  -0.9356124700   2.3252319400
| 82> H    6.1134855300  -0.1836699200   3.6715634700
| 83> H    7.6626422800   0.4865461500   3.1272283100
| 84> H    6.7923801500   4.1875378600   2.7412249100
| 85> H    7.6211360200   3.1183074200   1.5937359600
| 86> H    7.6115518300   2.7357872200   3.3259928600
| 87> H    5.4418717300   1.9323031400   4.4451153000
| 88> H    3.9402720600   1.8365100500   3.5046198300
| 89> H    4.6503097400   3.4103867500   3.8878135200
| 90> H    4.5121191400  -2.1693900400  -1.3619300800
| 91> H    2.8209505000  -2.6793042600  -1.4092989200
| 92> H    3.7369586500  -2.7766998900   0.1106702500
| 93> *
| 94> %eprnmr
| 95>  Nuclei = all H { ssfc }
| 96>  SpinSpinRThresh 8.0
| 97> end
| 98> 
| 99>                          ****END OF INPUT****
================================================================================

                       ****************************
                       * Single Point Calculation *
                       ****************************

---------------------------------
CARTESIAN COORDINATES (ANGSTROEM)
---------------------------------
  C     -5.191584    0.229841    0.222553
  C     -6.573076   -0.286307   -0.105517
  C     -7.147140    0.380770   -1.361330
  H     -7.257047   -0.054164    0.728517
  H     -6.559343   -1.374260   -0.233267
  C     -5.086971    1.704339    0.254725
  C     -5.705388    2.402363   -0.935343
  C     -7.128183    1.897822   -1.212071
  H     -5.085342    2.195538   -1.820882
  H     -5.703476    3.486545   -0.781160
  H     -7.526620    2.363665   -2.121047
  H     -7.787864    2.177602   -0.376764
  O     -8.462381   -0.109596   -1.652747
  H     -6.538892    0.092427   -2.230117
  C     -4.159079   -0.623609    0.420751
  C     -4.535868    2.380628    1.269216
  H     -4.120286    1.867840    2.132130
  H     -4.498894    3.467469    1.262190
  C     -2.778780   -0.262398    0.646710
  H     -4.394858   -1.685322    0.362014
  C     -1.764306   -1.107398    0.930654
  H     -2.544991    0.796955    0.568064
  C     -1.889142   -2.596691    1.131807
  C     -0.887828   -3.382242    0.263576
  H     -2.904980   -2.955981    0.945502
  H     -1.666712   -2.811475    2.189475
  C      0.549677   -2.862152    0.400601
  H     -1.202849   -3.328521   -0.786142
  H     -0.922882   -4.441886    0.545009
  C      0.638374   -1.354142    0.126409
  H      1.199859   -3.429356   -0.273590
  H      0.906275   -3.050551    1.424520
  C     -0.350470   -0.643840    1.103482
  H     -0.034843   -0.978598    2.109496
  C      0.011751    0.832369    0.985792
  H     -9.033333    0.130043   -0.910539
  C      1.552007    0.812170    0.833356
  H     -0.320368    1.411175    1.854284
  H     -0.459155    1.277243    0.101881
  C      1.968771   -0.664754    0.544689
  H      2.045354    1.184814    1.735125
  H      1.877880    1.462369    0.012603
  H      2.267404   -1.140470    1.492167
  C      3.160055   -0.744856   -0.420643
  C      0.281073   -1.037618   -1.332675
  H     -0.775803   -1.237511   -1.534066
  H      0.876081   -1.647357   -2.020969
  H      0.465349    0.013490   -1.576808
  H      2.865537   -0.234929   -1.351558
  C      3.574611   -2.180145   -0.794710
  C      4.393529   -0.031883    0.089292
  C      4.706115    0.248159    1.354226
  H      5.124111    0.218037   -0.685451
  H      4.011223   -0.013456    2.153703
  C      5.981759    0.916670    1.787452
  C      6.729228    0.024591    2.789533
  C      5.711069    2.351114    2.321652
  H      6.615102    1.033938    0.895316
  H      5.123271    2.852706    1.537804
  C      7.010443    3.140304    2.503713
  C      4.886688    2.376890    3.611084
  H      6.977168   -0.935612    2.325232
  H      6.113486   -0.183670    3.671563
  H      7.662642    0.486546    3.127228
  H      6.792380    4.187538    2.741225
  H      7.621136    3.118307    1.593736
  H      7.611552    2.735787    3.325993
  H      5.441872    1.932303    4.445115
  H      3.940272    1.836510    3.504620
  H      4.650310    3.410387    3.887814
  H      4.512119   -2.169390   -1.361930
  H      2.820950   -2.679304   -1.409299
  H      3.736959   -2.776700    0.110670

----------------------------
CARTESIAN COORDINATES (A.U.)
----------------------------
  NO LB      ZA    FRAG     MASS         X           Y           Z
   0 C     6.0000    0    12.011   -9.810673    0.434336    0.420564
   1 C     6.0000    0    12.011  -12.421314   -0.541042   -0.199399
   2 C     6.0000    0    12.011  -13.506137    0.719552   -2.572542
   3 H     1.0000    0     1.008  -13.713832   -0.102354    1.376698
   4 H     1.0000    0     1.008  -12.395361   -2.596974   -0.440811
   5 C     6.0000    0    12.011   -9.612982    3.220733    0.481361
   6 C     6.0000    0    12.011  -10.781620    4.539808   -1.767542
   7 C     6.0000    0    12.011  -13.470314    3.586363   -2.290483
   8 H     1.0000    0     1.008   -9.609903    4.148965   -3.440968
   9 H     1.0000    0     1.008  -10.778008    6.588615   -1.476179
  10 H     1.0000    0     1.008  -14.223250    4.466679   -4.008199
  11 H     1.0000    0     1.008  -14.716930    4.115071   -0.711982
  12 O     8.0000    0    15.999  -15.991583   -0.207107   -3.123239
  13 H     1.0000    0     1.008  -12.356715    0.174661   -4.214311
  14 C     6.0000    0    12.011   -7.859521   -1.178449    0.795104
  15 C     6.0000    0    12.011   -8.571549    4.498735    2.398471
  16 H     1.0000    0     1.008   -7.786211    3.529706    4.029141
  17 H     1.0000    0     1.008   -8.501678    6.552566    2.385194
  18 C     6.0000    0    12.011   -5.251134   -0.495861    1.222104
  19 H     1.0000    0     1.008   -8.305077   -3.184796    0.684108
  20 C     6.0000    0    12.011   -3.334055   -2.092678    1.758682
  21 H     1.0000    0     1.008   -4.809336    1.506027    1.073486
  22 C     6.0000    0    12.011   -3.569960   -4.907035    2.138804
  23 C     6.0000    0    12.011   -1.677751   -6.391510    0.498087
  24 H     1.0000    0     1.008   -5.489616   -5.585995    1.786740
  25 H     1.0000    0     1.008   -3.149629   -5.312918    4.137507
  26 C     6.0000    0    12.011    1.038739   -5.408683    0.757027
  27 H     1.0000    0     1.008   -2.273055   -6.289993   -1.485593
  28 H     1.0000    0     1.008   -1.743993   -8.393949    1.029919
  29 C     6.0000    0    12.011    1.206352   -2.558957    0.238879
  30 H     1.0000    0     1.008    2.267405   -6.480543   -0.517009
  31 H     1.0000    0     1.008    1.712611   -5.764707    2.691953
  32 C     6.0000    0    12.011   -0.662293   -1.216682    2.085278
  33 H     1.0000    0     1.008   -0.065844   -1.849283    3.986369
  34 C     6.0000    0    12.011    0.022207    1.572949    1.862878
  35 H     1.0000    0     1.008  -17.070525    0.245746   -1.720669
  36 C     6.0000    0    12.011    2.932868    1.534778    1.574815
  37 H     1.0000    0     1.008   -0.605408    2.666735    3.504088
  38 H     1.0000    0     1.008   -0.867678    2.413639    0.192527
  39 C     6.0000    0    12.011    3.720437   -1.256202    1.029313
  40 H     1.0000    0     1.008    3.865160    2.238975    3.278911
  41 H     1.0000    0     1.008    3.548678    2.763478    0.023815
  42 H     1.0000    0     1.008    4.284773   -2.155175    2.819788
  43 C     6.0000    0    12.011    5.971638   -1.407574   -0.794901
  44 C     6.0000    0    12.011    0.531151   -1.960813   -2.518391
  45 H     1.0000    0     1.008   -1.466055   -2.338557   -2.898965
  46 H     1.0000    0     1.008    1.655553   -3.113053   -3.819078
  47 H     1.0000    0     1.008    0.879383    0.025492   -2.979735
  48 H     1.0000    0     1.008    5.415079   -0.443951   -2.554074
  49 C     6.0000    0    12.011    6.755035   -4.119876   -1.501784
  50 C     6.0000    0    12.011    8.302566   -0.060250    0.168738
  51 C     6.0000    0    12.011    8.893269    0.468953    2.559116
  52 H     1.0000    0     1.008    9.683167    0.412030   -1.295314
  53 H     1.0000    0     1.008    7.580113   -0.025429    4.069909
  54 C     6.0000    0    12.011   11.303887    1.732254    3.377795
  55 C     6.0000    0    12.011   12.716398    0.046471    5.271454
  56 C     6.0000    0    12.011   10.792357    4.442961    4.387287
  57 H     1.0000    0     1.008   12.500731    1.953860    1.691901
  58 H     1.0000    0     1.008    9.681579    5.390834    2.906028
  59 C     6.0000    0    12.011   13.247817    5.934314    4.731332
  60 C     6.0000    0    12.011    9.234502    4.491671    6.823961
  61 H     1.0000    0     1.008   13.184936   -1.768051    4.394052
  62 H     1.0000    0     1.008   11.552813   -0.347086    6.938249
  63 H     1.0000    0     1.008   14.480295    0.919439    5.909605
  64 H     1.0000    0     1.008   12.835738    7.913300    5.180164
  65 H     1.0000    0     1.008   14.401860    5.892747    3.011724
  66 H     1.0000    0     1.008   14.383748    5.169889    6.285216
  67 H     1.0000    0     1.008   10.283647    3.651524    8.400051
  68 H     1.0000    0     1.008    7.446035    3.470501    6.622772
  69 H     1.0000    0     1.008    8.787812    6.444697    7.346903
  70 H     1.0000    0     1.008    8.526669   -4.099553   -2.573675
  71 H     1.0000    0     1.008    5.330824   -5.063151   -2.663189
  72 H     1.0000    0     1.008    7.061828   -5.247202    0.209136

--------------------------------
INTERNAL COORDINATES (ANGSTROEM)
--------------------------------
 C      0   0   0     0.000000000000     0.00000000     0.00000000
 C      1   0   0     1.510813673435     0.00000000     0.00000000
 C      2   1   0     1.533495250800   111.80942394     0.00000000
 H      2   1   3     1.103322344440   109.31890666   241.47753276
 H      2   1   3     1.095513453507   110.67928185   122.94642727
 C      1   2   3     1.478554428808   114.21242124    50.21242240
 C      6   1   2     1.511932300710   114.47794280   312.16008240
 C      3   2   1     1.524494094617   110.36792756   305.21545055
 H      7   6   1     1.100641705850   108.42777322   290.04977097
 H      7   6   1     1.095092272193   110.21484718   172.80507609
 H      8   3   2     1.096357119129   109.70235830   179.15941102
 H      8   3   2     1.100542579866   108.65306309   296.61330064
 O      3   2   1     1.433611642848   111.16858026   180.53936912
 H      3   2   1     1.099044086556   109.02904866    65.36093021
 C      1   2   3     1.354151050648   120.90899577   232.16489816
 C      6   1   2     1.338010810280   123.34625517   129.88023286
 H     16   6   1     1.086407106619   121.41393808     0.66523301
 H     16   6   1     1.087492167116   120.94709238   181.35170163
 C     15   1   2     1.444560842734   126.43119880   175.38086785
 H     15   1   2     1.089162938151   116.19401230   358.04537124
 C     19  15   1     1.350483761637   126.45622634   175.36656927
 H     19  15   1     1.087691297531   115.95104578   354.73902005
 C     21  19  15     1.507992591634   125.71845909   356.93685982
 C     23  21  19     1.540630513630   111.99896521   128.64337827
 H     23  21  19     1.093492452242   112.25158276     4.46507409
 H     23  21  19     1.101938566895   107.68714357   247.33851570
 C     24  23  21     1.534825383276   112.68304377    50.44898571
 H     24  23  21     1.097284018474   109.12142011   288.28825137
 H     24  23  21     1.096941385310   109.09869466   172.33447295
 C     27  24  23     1.535299308872   111.77733207   306.17246363
 H     27  24  23     1.094983869773   109.00393333   182.61538012
 H     27  24  23     1.100484662009   109.18046182    66.09322208
 C     21  19  15     1.497893868066   122.66048194   177.83848116
 H     33  21  19     1.106231152935   106.29506430   123.28418755
 C     33  21  19     1.524548338836   120.99831302     0.95979007
 H     13   3   2     0.966584722883   107.51935170    62.64969273
 C     35  33  21     1.547912105252   103.37859135   195.22626002
 H     35  33  21     1.095261549634   112.23764679    73.44421417
 H     35  33  21     1.095885866065   110.68606850   313.79071685
 C     30  27  24     1.555689334964   115.89036268   166.73120568
 H     37  35  33     1.093363421742   111.30416450   251.37398871
 H     37  35  33     1.096626190859   111.20202130   133.01964689
 H     40  30  27     1.101454920494   105.76876914   321.85043600
 C     40  30  27     1.535396185893   118.12232033    82.76285790
 C     30  27  24     1.535180079326   111.02708314   294.98284774
 H     45  30  27     1.094304175726   111.22510372    67.55137547
 H     45  30  27     1.095246544254   110.85863410   307.49785266
 H     45  30  27     1.094708171855   111.76172545   187.42017557
 H     44  40  30     1.101529881128   107.44181496    62.23045037
 C     44  40  30     1.540076799310   114.21613319   303.28625641
 C     44  40  30     1.513216068007   113.32805238   179.64268306
 C     51  44  40     1.332738109997   127.59184410    23.49387477
 H     51  44  40     1.093817978746   114.41932683   199.54874926
 H     52  51  44     1.091092280296   119.71549579   357.61579574
 C     52  51  44     1.503947770100   124.45410600   177.54477608
 C     55  52  51     1.535799470428   110.03388441   237.38266996
 C     55  52  51     1.554436716023   111.19114931   110.93709058
 H     55  52  51     1.100355721255   107.57939227   354.93332934
 H     57  55  52     1.100690861461   105.59221642   307.98318720
 C     57  55  52     1.531123218628   111.63700807   191.29683998
 C     57  55  52     1.530654655428   113.50512658    65.77402382
 H     56  55  52     1.095007292277   110.05282820    60.29447513
 H     56  55  52     1.095668143471   111.23240690   301.17598288
 H     56  55  52     1.094852507701   111.78349256   180.20573347
 H     60  57  55     1.095747482632   110.45668192   171.89879685
 H     60  57  55     1.096124364149   111.33089325    51.84141601
 H     60  57  55     1.095951340974   111.37261279   291.17328927
 H     61  57  55     1.096126666505   111.18362532    66.19504311
 H     61  57  55     1.095010889700   112.04158556   305.03581588
 H     61  57  55     1.095704845637   110.17137155   185.19149617
 H     50  44  40     1.095799327981   110.29630987   188.28419393
 H     50  44  40     1.093107268874   112.11980082    68.32274645
 H     50  44  40     1.096334159073   110.26668787   307.26321833

---------------------------
INTERNAL COORDINATES (A.U.)
---------------------------
 C      0   0   0     0.000000000000     0.00000000     0.00000000
 C      1   0   0     2.855024082175     0.00000000     0.00000000
 C      2   1   0     2.897886051681   111.80942394     0.00000000
 H      2   1   3     2.084977068427   109.31890666   241.47753276
 H      2   1   3     2.070220403154   110.67928185   122.94642727
 C      1   2   3     2.794062944544   114.21242124    50.21242240
 C      6   1   2     2.857137981372   114.47794280   312.16008240
 C      3   2   1     2.880876331606   110.36792756   305.21545055
 H      7   6   1     2.079911395627   108.42777322   290.04977097
 H      7   6   1     2.069424485818   110.21484718   172.80507609
 H      8   3   2     2.071814700128   109.70235830   179.15941102
 H      8   3   2     2.079724074665   108.65306309   296.61330064
 O      3   2   1     2.709133387384   111.16858026   180.53936912
 H      3   2   1     2.076892332697   109.02904866    65.36093021
 C      1   2   3     2.558974629686   120.90899577   232.16489816
 C      6   1   2     2.528473995655   123.34625517   129.88023286
 H     16   6   1     2.053011901456   121.41393808     0.66523301
 H     16   6   1     2.055062368634   120.94709238   181.35170163
 C     15   1   2     2.729824376553   126.43119880   175.38086785
 H     15   1   2     2.058219668322   116.19401230   358.04537124
 C     19  15   1     2.552044457802   126.45622634   175.36656927
 H     19  15   1     2.055438670583   115.95104578   354.73902005
 C     21  19  15     2.849693010171   125.71845909   356.93685982
 C     23  21  19     2.911369744322   111.99896521   128.64337827
 H     23  21  19     2.066401264248   112.25158276     4.46507409
 H     23  21  19     2.082362107837   107.68714357   247.33851570
 C     24  23  21     2.900399637782   112.68304377    50.44898571
 H     24  23  21     2.073566286045   109.12142011   288.28825137
 H     24  23  21     2.072918803201   109.09869466   172.33447295
 C     27  24  23     2.901295227367   111.77733207   306.17246363
 H     27  24  23     2.069219634933   109.00393333   182.61538012
 H     27  24  23     2.079614625777   109.18046182    66.09322208
 C     21  19  15     2.830609188325   122.66048194   177.83848116
 H     33  21  19     2.090473919858   106.29506430   123.28418755
 C     33  21  19     2.880978838325   120.99831302     0.95979007
 H     13   3   2     1.826580411481   107.51935170    62.64969273
 C     35  33  21     2.925129958308   103.37859135   195.22626002
 H     35  33  21     2.069744373823   112.23764679    73.44421417
 H     35  33  21     2.070924160897   110.68606850   313.79071685
 C     30  27  24     2.939826792544   115.89036268   166.73120568
 H     37  35  33     2.066157431940   111.30416450   251.37398871
 H     37  35  33     2.072323172010   111.20202130   133.01964689
 H     40  30  27     2.081448148594   105.76876914   321.85043600
 C     40  30  27     2.901478298405   118.12232033    82.76285790
 C     30  27  24     2.901069916178   111.02708314   294.98284774
 H     45  30  27     2.067935199328   111.22510372    67.55137547
 H     45  30  27     2.069716017763   110.85863410   307.49785266
 H     45  30  27     2.068698641372   111.76172545   187.42017557
 H     44  40  30     2.081589803663   107.44181496    62.23045037
 C     44  40  30     2.910323375903   114.21613319   303.28625641
 C     44  40  30     2.859563949982   113.32805238   179.64268306
 C     51  44  40     2.518510036134   127.59184410    23.49387477
 H     51  44  40     2.067016420190   114.41932683   199.54874926
 H     52  51  44     2.061865596596   119.71549579   357.61579574
 C     52  51  44     2.842049405210   124.45410600   177.54477608
 C     55  52  51     2.902240395731   110.03388441   237.38266996
 C     55  52  51     2.937459685795   111.19114931   110.93709058
 H     55  52  51     2.079370963066   107.57939227   354.93332934
 H     57  55  52     2.080004286272   105.59221642   307.98318720
 C     57  55  52     2.893403560496   111.63700807   191.29683998
 C     57  55  52     2.892518104371   113.50512658    65.77402382
 H     56  55  52     2.069263897050   110.05282820    60.29447513
 H     56  55  52     2.070512724823   111.23240690   301.17598288
 H     56  55  52     2.068971396593   111.78349256   180.20573347
 H     60  57  55     2.070662654108   110.45668192   171.89879685
 H     60  57  55     2.071374856960   111.33089325    51.84141601
 H     60  57  55     2.071047890545   111.37261279   291.17328927
 H     61  57  55     2.071379207783   111.18362532    66.19504311
 H     61  57  55     2.069270695194   112.04158556   305.03581588
 H     61  57  55     2.070582081865   110.17137155   185.19149617
 H     50  44  40     2.070760627618   110.29630987   188.28419393
 H     50  44  40     2.065673373170   112.11980082    68.32274645
 H     50  44  40     2.071771311911   110.26668787   307.26321833

---------------------
BASIS SET INFORMATION
---------------------
There are 3 groups of distinct atoms

 Group   1 Type C   : 7s4p contracted to 4s3p pattern {4111/211}
 Group   2 Type H   : 5s contracted to 3s pattern {311}
 Group   3 Type O   : 7s4p contracted to 4s3p pattern {4111/211}

Atom   0C    basis set group =>   1
Atom   1C    basis set group =>   1
Atom   2C    basis set group =>   1
Atom   3H    basis set group =>   2
Atom   4H    basis set group =>   2
Atom   5C    basis set group =>   1
Atom   6C    basis set group =>   1
Atom   7C    basis set group =>   1
Atom   8H    basis set group =>   2
Atom   9H    basis set group =>   2
Atom  10H    basis set group =>   2
Atom  11H    basis set group =>   2
Atom  12O    basis set group =>   3
Atom  13H    basis set group =>   2
Atom  14C    basis set group =>   1
Atom  15C    basis set group =>   1
Atom  16H    basis set group =>   2
Atom  17H    basis set group =>   2
Atom  18C    basis set group =>   1
Atom  19H    basis set group =>   2
Atom  20C    basis set group =>   1
Atom  21H    basis set group =>   2
Atom  22C    basis set group =>   1
Atom  23C    basis set group =>   1
Atom  24H    basis set group =>   2
Atom  25H    basis set group =>   2
Atom  26C    basis set group =>   1
Atom  27H    basis set group =>   2
Atom  28H    basis set group =>   2
Atom  29C    basis set group =>   1
Atom  30H    basis set group =>   2
Atom  31H    basis set group =>   2
Atom  32C    basis set group =>   1
Atom  33H    basis set group =>   2
Atom  34C    basis set group =>   1
Atom  35H    basis set group =>   2
Atom  36C    basis set group =>   1
Atom  37H    basis set group =>   2
Atom  38H    basis set group =>   2
Atom  39C    basis set group =>   1
Atom  40H    basis set group =>   2
Atom  41H    basis set group =>   2
Atom  42H    basis set group =>   2
Atom  43C    basis set group =>   1
Atom  44C    basis set group =>   1
Atom  45H    basis set group =>   2
Atom  46H    basis set group =>   2
Atom  47H    basis set group =>   2
Atom  48H    basis set group =>   2
Atom  49C    basis set group =>   1
Atom  50C    basis set group =>   1
Atom  51C    basis set group =>   1
Atom  52H    basis set group =>   2
Atom  53H    basis set group =>   2
Atom  54C    basis set group =>   1
Atom  55C    basis set group =>   1
Atom  56C    basis set group =>   1
Atom  57H    basis set group =>   2
Atom  58H    basis set group =>   2
Atom  59C    basis set group =>   1
Atom  60C    basis set group =>   1
Atom  61H    basis set group =>   2
Atom  62H    basis set group =>   2
Atom  63H    basis set group =>   2
Atom  64H    basis set group =>   2
Atom  65H    basis set group =>   2
Atom  66H    basis set group =>   2
Atom  67H    basis set group =>   2
Atom  68H    basis set group =>   2
Atom  69H    basis set group =>   2
Atom  70H    basis set group =>   2
Atom  71H    basis set group =>   2
Atom  72H    basis set group =>   2

-------------------------
BASIS SET IN INPUT FORMAT
-------------------------

 # Basis set for element : H 
 NewGTO H 
 S 3 
   1    1357.7500000000      0.0012928364
   2      54.3100000000      0.0588280685
   3       4.3448000000      0.9761499708
 S 1 
   1       0.6604910000      1.0000000000
 S 1 
   1       0.1366870000      1.0000000000
  end;

 # Basis set for element : C 
 NewGTO C 
 S 4 
   1  139534.0000000000      0.0001655246
   2    5581.3600000000      0.0074486101
   3     446.5090000000      0.1285821065
   4      67.4620000000      0.9218029311
 S 1 
   1      15.0674000000      1.0000000000
 S 1 
   1       3.9387600000      1.0000000000
 S 1 
   1       0.2999150000      1.0000000000
 P 2 
   1      28.3900000000      0.0816325586
   2       4.3676900000      0.9660360576
 P 1 
   1       0.8698170000      1.0000000000
 P 1 
   1       0.1889340000      1.0000000000
  end;

 # Basis set for element : O 
 NewGTO O 
 S 4 
   1  253789.0000000000      0.0001641076
   2   10151.6000000000      0.0074010921
   3     812.1250000000      0.1277711901
   4     122.6930000000      0.9223372164
 S 1 
   1      27.5608000000      1.0000000000
 S 1 
   1       7.3172600000      1.0000000000
 S 1 
   1       0.5792400000      1.0000000000
 P 2 
   1      53.4157000000      0.0793786106
   2       8.2177900000      0.9670506337
 P 1 
   1       1.6754400000      1.0000000000
 P 1 
   1       0.3506720000      1.0000000000
  end;

---------------------------------
AUXILIARY/J BASIS SET INFORMATION
---------------------------------
There are 3 groups of distinct atoms

 Group   1 Type C   : 12s5p4d2f1g contracted to 6s4p3d1f1g pattern {711111/2111/211/2/1}
 Group   2 Type H   : 5s2p1d contracted to 3s1p1d pattern {311/2/1}
 Group   3 Type O   : 12s5p4d2f1g contracted to 6s4p3d1f1g pattern {711111/2111/211/2/1}

Atom   0C    basis set group =>   1
Atom   1C    basis set group =>   1
Atom   2C    basis set group =>   1
Atom   3H    basis set group =>   2
Atom   4H    basis set group =>   2
Atom   5C    basis set group =>   1
Atom   6C    basis set group =>   1
Atom   7C    basis set group =>   1
Atom   8H    basis set group =>   2
Atom   9H    basis set group =>   2
Atom  10H    basis set group =>   2
Atom  11H    basis set group =>   2
Atom  12O    basis set group =>   3
Atom  13H    basis set group =>   2
Atom  14C    basis set group =>   1
Atom  15C    basis set group =>   1
Atom  16H    basis set group =>   2
Atom  17H    basis set group =>   2
Atom  18C    basis set group =>   1
Atom  19H    basis set group =>   2
Atom  20C    basis set group =>   1
Atom  21H    basis set group =>   2
Atom  22C    basis set group =>   1
Atom  23C    basis set group =>   1
Atom  24H    basis set group =>   2
Atom  25H    basis set group =>   2
Atom  26C    basis set group =>   1
Atom  27H    basis set group =>   2
Atom  28H    basis set group =>   2
Atom  29C    basis set group =>   1
Atom  30H    basis set group =>   2
Atom  31H    basis set group =>   2
Atom  32C    basis set group =>   1
Atom  33H    basis set group =>   2
Atom  34C    basis set group =>   1
Atom  35H    basis set group =>   2
Atom  36C    basis set group =>   1
Atom  37H    basis set group =>   2
Atom  38H    basis set group =>   2
Atom  39C    basis set group =>   1
Atom  40H    basis set group =>   2
Atom  41H    basis set group =>   2
Atom  42H    basis set group =>   2
Atom  43C    basis set group =>   1
Atom  44C    basis set group =>   1
Atom  45H    basis set group =>   2
Atom  46H    basis set group =>   2
Atom  47H    basis set group =>   2
Atom  48H    basis set group =>   2
Atom  49C    basis set group =>   1
Atom  50C    basis set group =>   1
Atom  51C    basis set group =>   1
Atom  52H    basis set group =>   2
Atom  53H    basis set group =>   2
Atom  54C    basis set group =>   1
Atom  55C    basis set group =>   1
Atom  56C    basis set group =>   1
Atom  57H    basis set group =>   2
Atom  58H    basis set group =>   2
Atom  59C    basis set group =>   1
Atom  60C    basis set group =>   1
Atom  61H    basis set group =>   2
Atom  62H    basis set group =>   2
Atom  63H    basis set group =>   2
Atom  64H    basis set group =>   2
Atom  65H    basis set group =>   2
Atom  66H    basis set group =>   2
Atom  67H    basis set group =>   2
Atom  68H    basis set group =>   2
Atom  69H    basis set group =>   2
Atom  70H    basis set group =>   2
Atom  71H    basis set group =>   2
Atom  72H    basis set group =>   2

-------------------------------------
AUXILIARY/J BASIS SET IN INPUT FORMAT
-------------------------------------

 # Auxiliary/J basis set for element : H 
 NewAuxJGTO H 
 S 3 
   1      15.6752927000      0.1007184237
   2       3.6063578000      0.3404257499
   3       1.2080016000      0.6491996172
 S 1 
   1       0.4726794000      1.0000000000
 S 1 
   1       0.2018100000      1.0000000000
 P 2 
   1       2.0281365000      0.5596620919
   2       0.5358730000      0.5596620919
 D 1 
   1       2.2165124000      1.0000000000
  end;

 # Auxiliary/J basis set for element : C 
 NewAuxJGTO C 
 S 7 
   1    1861.0916331000      0.0134602335
   2     642.9939764000      0.0299160374
   3     235.1105725000      0.1008649584
   4      90.7028894000      0.2370970548
   5      36.7794552000      0.3924037254
   6      15.6046273000      0.3195862154
   7       6.8907294000      0.0530104441
 S 1 
   1       3.1478850000     -1.0000000000
 S 1 
   1       1.4777287000      1.0000000000
 S 1 
   1       0.7076466000      1.0000000000
 S 1 
   1       0.3430122000      1.0000000000
 S 1 
   1       0.1669453000      1.0000000000
 P 2 
   1      13.5472892000     -0.6769313712
   2       5.4669419000     -0.3779500978
 P 1 
   1       2.1751721000      1.0000000000
 P 1 
   1       0.8582194000      1.0000000000
 P 1 
   1       0.3376720000      1.0000000000
 D 2 
   1       5.9287253000     -0.3533329857
   2       1.9809209000     -0.7456525731
 D 1 
   1       0.8055417000     -1.0000000000
 D 1 
   1       0.3531244000     -1.0000000000
 F 2 
   1       1.6755626000      0.6311076882
   2       0.5997536000      0.4968166032
 G 1 
   1       1.0024600000     -1.0000000000
  end;

 # Auxiliary/J basis set for element : O 
 NewAuxJGTO O 
 S 7 
   1    2876.8216605000      0.0168151159
   2    1004.7443032000      0.0340137548
   3     369.7579954000      0.1194951309
   4     142.9442404000      0.2664627624
   5      57.8366425000      0.4202764046
   6      24.3864983000      0.2765077335
   7      10.6622662000      0.0057008815
 S 1 
   1       4.8070437000     -1.0000000000
 S 1 
   1       2.2210770000      1.0000000000
 S 1 
   1       1.0447795000      1.0000000000
 S 1 
   1       0.4968425000      1.0000000000
 S 1 
   1       0.2371384000      1.0000000000
 P 2 
   1      64.2613382000     -0.2731534179
   2      16.3006076000     -0.8168011598
 P 1 
   1       4.3550542000      1.0000000000
 P 1 
   1       1.2019554000      1.0000000000
 P 1 
   1       0.3354196000      1.0000000000
 D 2 
   1       9.2146611000     -0.4661230638
   2       2.8435251000     -0.6600908911
 D 1 
   1       0.9955759000     -1.0000000000
 D 1 
   1       0.3649441000     -1.0000000000
 F 2 
   1       2.6420115000      0.5931563945
   2       0.7345613000      0.5931563945
 G 1 
   1       1.3931000000     -1.0000000000
  end;



           ************************************************************
           *        Program running with 4 parallel MPI-processes     *
           *              working on a common directory               *
           ************************************************************
------------------------------------------------------------------------------
                           ORCA GTO INTEGRAL CALCULATION
                           -- RI-GTO INTEGRALS CHOSEN --
------------------------------------------------------------------------------
------------------------------------------------------------------------------
                   ___                                                        
                  /   \      - P O W E R E D   B Y -                         
                 /     \                                                     
                 |  |  |   _    _      __       _____    __    __             
                 |  |  |  | |  | |    /  \     |  _  \  |  |  /  |          
                  \  \/   | |  | |   /    \    | | | |  |  | /  /          
                 / \  \   | |__| |  /  /\  \   | |_| |  |  |/  /          
                |  |  |   |  __  | /  /__\  \  |    /   |      \           
                |  |  |   | |  | | |   __   |  |    \   |  |\   \          
                \     /   | |  | | |  |  |  |  | |\  \  |  | \   \       
                 \___/    |_|  |_| |__|  |__|  |_| \__\ |__|  \__/        
                                                                              
                      - O R C A' S   B I G   F R I E N D -                    
                                      &                                       
                       - I N T E G R A L  F E E D E R -                       
                                                                              
 v1 FN, 2020, v2 2021                                                         
------------------------------------------------------------------------------


Reading SHARK input file inpJ.SHARKINP.tmp ... ok
----------------------
SHARK INTEGRAL PACKAGE
----------------------

Number of atoms                             ...     73
Number of basis functions                   ...    509
Number of shells                            ...    335
Maximum angular momentum                    ...      1
Integral batch strategy                     ... SHARK/LIBINT Hybrid
RI-J (if used) integral strategy            ... SPLIT-RIJ (Revised 2003 algorithm where possible)
Printlevel                                  ...      1
Contraction scheme used                     ... SEGMENTED contraction
Coulomb Range Separation                    ... NOT USED
Exchange Range Separation                   ... NOT USED
Finite Nucleus Model                        ... NOT USED
Auxiliary Coulomb fitting basis             ... AVAILABLE
   # of basis functions in Aux-J            ...   1905
   # of shells in Aux-J                     ...    655
   Maximum angular momentum in Aux-J        ...      4
Auxiliary J/K fitting basis                 ... NOT available
Auxiliary Correlation fitting basis         ... NOT available
Auxiliary 'external' fitting basis          ... NOT available
Integral threshold                          ...     3.000000e-11
Primitive cut-off                           ...     1.000000e-12
Primitive pair pre-selection threshold      ...     1.000000e-12

Calculating pre-screening integrals         ... done (  0.0 sec) Dimension = 335
Organizing shell pair data                  ... done (  0.1 sec)
Shell pair information
Total number of shell pairs                 ...     56280
Shell pairs after pre-screening             ...     21858
Total number of primitive shell pairs       ...    145865
Primitive shell pairs kept                  ...     37524
          la=0 lb=0:  11009 shell pairs
          la=1 lb=0:   8977 shell pairs
          la=1 lb=1:   1872 shell pairs

Calculating one electron integrals          ... done (  0.0 sec)
Calculating RI/J V-Matrix + Cholesky decomp.... done (  0.2 sec)
Calculating Nuclear repulsion               ... done (  0.0 sec) ENN=   2777.199298645997 Eh

SHARK setup successfully completed in   0.5 seconds

Maximum memory used throughout the entire GTOINT-calculation: 46.3 MB


           ************************************************************
           *        Program running with 4 parallel MPI-processes     *
           *              working on a common directory               *
           ************************************************************
-------------------------------------------------------------------------------
                                 ORCA SCF
-------------------------------------------------------------------------------

------------
SCF SETTINGS
------------
Hamiltonian:
 Density Functional     Method          .... DFT(GTOs)
 Exchange Functional    Exchange        .... PBE
   PBE kappa parameter   XKappa         ....  0.804000
   PBE mue parameter    XMuePBE         ....  0.219520
 Correlation Functional Correlation     .... PBE
   PBE beta parameter  CBetaPBE         ....  0.066725
 LDA part of GGA corr.  LDAOpt          .... PW91-LDA
 Gradients option       PostSCFGGA      .... off
 Hybrid DFT is turned on
   Fraction HF Exchange ScalHFX         ....  0.250000
   Scaling of DF-GGA-X  ScalDFX         ....  0.750000
   Scaling of DF-GGA-C  ScalDFC         ....  1.000000
   Scaling of DF-LDA-C  ScalLDAC        ....  1.000000
   Perturbative correction              ....  0.000000
   Density functional embedding theory  .... OFF
   NL short-range parameter             ....  6.900000
 RI-approximation to the Coulomb term is turned on
   Number of AuxJ basis functions       .... 1905
   RIJ-COSX (HFX calculated with COS-X)).... on


General Settings:
 Integral files         IntName         .... inpJ
 Hartree-Fock type      HFTyp           .... RHF
 Total Charge           Charge          ....    0
 Multiplicity           Mult            ....    1
 Number of Electrons    NEL             ....  220
 Basis Dimension        Dim             ....  509
 Nuclear Repulsion      ENuc            ....   2777.1992986460 Eh

Convergence Acceleration:
 DIIS                   CNVDIIS         .... on
   Start iteration      DIISMaxIt       ....    12
   Startup error        DIISStart       ....  0.200000
   # of expansion vecs  DIISMaxEq       ....     5
   Bias factor          DIISBfac        ....   1.050
   Max. coefficient     DIISMaxC        ....  10.000
 Trust-Rad. Augm. Hess. CNVTRAH         .... auto
   Auto Start mean grad. ratio tolernc. ....  1.125000
   Auto Start start iteration           ....    20
   Auto Start num. interpolation iter.  ....    10
   Max. Number of Micro iterations      ....    16
   Max. Number of Macro iterations      .... Maxiter - #DIIS iter
   Number of Davidson start vectors     ....     2
   Converg. threshold I  (grad. norm)   ....   1.000e-04
   Converg. threshold II (energy diff.) ....   1.000e-07
   Grad. Scal. Fac. for Micro threshold ....   0.100
   Minimum threshold for Micro iter.    ....   0.010
   NR start threshold (gradient norm)   ....   0.001
   Initial trust radius                 ....   0.400
   Minimum AH scaling param. (alpha)    ....   1.000
   Maximum AH scaling param. (alpha)    .... 1000.000
   Orbital update algorithm             .... Taylor
   White noise on init. David. guess    .... on
   Maximum white noise                  ....   0.010
   Quad. conv. algorithm                .... NR
 SOSCF                  CNVSOSCF        .... off
 Level Shifting         CNVShift        .... on
   Level shift para.    LevelShift      ....    0.2500
   Turn off err/grad.   ShiftErr        ....    0.0010
 Zerner damping         CNVZerner       .... off
 Static damping         CNVDamp         .... on
   Fraction old density DampFac         ....    0.7000
   Max. Damping (<1)    DampMax         ....    0.9800
   Min. Damping (>=0)   DampMin         ....    0.0000
   Turn off err/grad.   DampErr         ....    0.1000
 Fernandez-Rico         CNVRico         .... off

SCF Procedure:
 Maximum # iterations   MaxIter         ....   125
 SCF integral mode      SCFMode         .... Direct
   Integral package                     .... SHARK and LIBINT hybrid scheme
 Reset frequency        DirectResetFreq ....    20
 Integral Threshold     Thresh          ....  3.000e-11 Eh
 Primitive CutOff       TCut            ....  1.000e-12 Eh

Convergence Tolerance:
 Convergence Check Mode ConvCheckMode   .... Total+1el-Energy
 Convergence forced     ConvForced      .... 0
 Energy Change          TolE            ....  1.000e-07 Eh
 1-El. energy change                    ....  1.000e-04 Eh
 DIIS Error             TolErr          ....  1.000e-07


Diagonalization of the overlap matrix:
Smallest eigenvalue                        ... 7.558e-03
Time for diagonalization                   ...    0.033 sec
Threshold for overlap eigenvalues          ... 1.000e-08
Number of eigenvalues below threshold      ... 0
Time for construction of square roots      ...    0.027 sec
Total time needed                          ...    0.060 sec

Time for model grid setup =    0.812 sec

------------------------------
INITIAL GUESS: MODEL POTENTIAL
------------------------------
Loading Hartree-Fock densities                     ... done
Calculating cut-offs                               ... done
Initializing the effective Hamiltonian             ... done
Setting up the integral package (SHARK)            ... done
Starting the Coulomb interaction                   ... done (   0.4 sec)
Reading the grid                                   ... done
Mapping shells                                     ... done
Starting the XC term evaluation                    ... done (   0.2 sec)
  promolecular density results
     # of electrons  =    219.979008469
     EX              =   -164.429891692
     EC              =     -7.324861320
     EX+EC           =   -171.754753012
Transforming the Hamiltonian                       ... done (   0.0 sec)
Diagonalizing the Hamiltonian                      ... done (   0.0 sec)
Back transforming the eigenvectors                 ... done (   0.0 sec)
Now organizing SCF variables                       ... done
                      ------------------
                      INITIAL GUESS DONE (   1.4 sec)
                      ------------------
-------------------
DFT GRID GENERATION
-------------------

General Integration Accuracy     IntAcc      ... 4.388
Radial Grid Type                 RadialGrid  ... OptM3 with GC (2021)
Angular Grid (max. ang.)         AngularGrid ... 4 (Lebedev-302)
Angular grid pruning method      GridPruning ... 4 (adaptive)
Weight generation scheme         WeightScheme... Becke
Basis function cutoff            BFCut       ... 1.0000e-11
Integration weight cutoff        WCut        ... 1.0000e-14
Angular grids for H and He will be reduced by one unit
Partially contracted basis set               ... off
Rotationally invariant grid construction     ... off

Total number of grid points                  ...   309922
Total number of batches                      ...     4878
Average number of points per batch           ...       63
Average number of grid points per atom       ...     4246
Time for grid setup =    2.932 sec

--------------------
COSX GRID GENERATION
--------------------

GRIDX 1
-------
General Integration Accuracy     IntAcc      ... 3.816
Radial Grid Type                 RadialGrid  ... OptM3 with GC (2021)
Angular Grid (max. ang.)         AngularGrid ... 1 (Lebedev-50)
Angular grid pruning method      GridPruning ... 4 (adaptive)
Weight generation scheme         WeightScheme... Becke
Basis function cutoff            BFCut       ... 1.0000e-11
Integration weight cutoff        WCut        ... 1.0000e-14
Angular grids for H and He will be reduced by one unit
Partially contracted basis set               ... on
Rotationally invariant grid construction     ... off

Total number of grid points                  ...    39412
Total number of batches                      ...      655
Average number of points per batch           ...       60
Average number of grid points per atom       ...      540
UseSFitting                                  ... on

GRIDX 2
-------
General Integration Accuracy     IntAcc      ... 4.020
Radial Grid Type                 RadialGrid  ... OptM3 with GC (2021)
Angular Grid (max. ang.)         AngularGrid ... 2 (Lebedev-110)
Angular grid pruning method      GridPruning ... 4 (adaptive)
Weight generation scheme         WeightScheme... Becke
Basis function cutoff            BFCut       ... 1.0000e-11
Integration weight cutoff        WCut        ... 1.0000e-14
Angular grids for H and He will be reduced by one unit
Partially contracted basis set               ... on
Rotationally invariant grid construction     ... off

Total number of grid points                  ...    81404
Total number of batches                      ...     1308
Average number of points per batch           ...       62
Average number of grid points per atom       ...     1115
UseSFitting                                  ... on

GRIDX 3
-------
General Integration Accuracy     IntAcc      ... 4.338
Radial Grid Type                 RadialGrid  ... OptM3 with GC (2021)
Angular Grid (max. ang.)         AngularGrid ... 3 (Lebedev-194)
Angular grid pruning method      GridPruning ... 4 (adaptive)
Weight generation scheme         WeightScheme... Becke
Basis function cutoff            BFCut       ... 1.0000e-11
Integration weight cutoff        WCut        ... 1.0000e-14
Angular grids for H and He will be reduced by one unit
Partially contracted basis set               ... on
Rotationally invariant grid construction     ... off

Total number of grid points                  ...   176333
Total number of batches                      ...     2794
Average number of points per batch           ...       63
Average number of grid points per atom       ...     2416
UseSFitting                                  ... on

Time for X-Grid setup             =    2.968 sec


--------------------
CPCM SOLVATION MODEL
--------------------
CPCM parameters:
  Epsilon                                         ...       4.9000
  Refrac                                          ...       1.4500
  Rsolv                                           ...       1.3000
  Surface type                                    ... GAUSSIAN VDW
  Epsilon function type                           ...         CPCM
Radii:
 Radius for C  used is    3.8550 Bohr (=   2.0400 Ang.)
 Radius for H  used is    2.4944 Bohr (=   1.3200 Ang.)
 Radius for O  used is    3.4469 Bohr (=   1.8240 Ang.)
Calculating surface                               ...        done! (  0.0s)
GEPOL surface points                              ...         3650
GEPOL Volume                                      ...    3620.0364
GEPOL Surface-area                                ...    1797.1385
Calculating surface distance matrix               ...        done! (  0.1s)
Performing Cholesky decomposition & store         ...        done! (  0.7s)
Overall time for CPCM initialization              ...                 0.8s
--------------
SCF ITERATIONS
--------------
ITER       Energy         Delta-E        Max-DP      RMS-DP      [F,P]     Damp
               ***  Starting incremental Fock matrix formation  ***

  HOMO= 109 E= -3.896 eV LUMO=  7.786 eV gap=  11.682 eV
  0  -1165.0070429749   0.000000000000 0.09753987  0.00106058  0.1929052 0.7000

  HOMO= 109 E= -4.739 eV LUMO=  7.092 eV gap=  11.831 eV
  1  -1165.2255523616  -0.218509386654 0.06544368  0.00078115  0.0936930 0.7000
                               ***Turning on DIIS***

  HOMO= 109 E= -5.336 eV LUMO=  6.535 eV gap=  11.871 eV
  2  -1165.3263890829  -0.100836721307 0.10366465  0.00138496  0.0376780 0.0000

  HOMO= 109 E= -5.902 eV LUMO=  5.993 eV gap=  11.895 eV
  3  -1165.4707104195  -0.144321336604 0.05149844  0.00056971  0.0453083 0.0000

  HOMO= 109 E= -5.982 eV LUMO=  5.913 eV gap=  11.895 eV
  4  -1165.5061778085  -0.035467388970 0.01182913  0.00013519  0.0063015 0.0000

  HOMO= 109 E= -5.929 eV LUMO=  5.974 eV gap=  11.902 eV
  5  -1165.5070397934  -0.000861984893 0.00277661  0.00003818  0.0043115 0.0000

  HOMO= 109 E= -5.915 eV LUMO=  5.987 eV gap=  11.903 eV
  6  -1165.5071175081  -0.000077714740 0.00115547  0.00001163  0.0010334 0.0000

  HOMO= 109 E= -5.917 eV LUMO= -0.817 eV gap=   5.100 eV
  7  -1165.5071223168  -0.000004808643 0.00049374  0.00000593  0.0002251 0.0000
               *** Restarting incremental Fock matrix formation ***
                                   *** Resetting DIIS ***

  HOMO= 109 E= -5.916 eV LUMO= -0.816 eV gap=   5.101 eV
  8  -1165.5071934574  -0.000071140614 0.00039955  0.00000277  0.0001201 0.0000

  HOMO= 109 E= -5.917 eV LUMO= -0.816 eV gap=   5.101 eV
  9  -1165.5071935071  -0.000000049772 0.00013593  0.00000122  0.0001510 0.0000

  HOMO= 109 E= -5.917 eV LUMO= -0.816 eV gap=   5.101 eV
 10  -1165.5071936179  -0.000000110744 0.00006425  0.00000040  0.0000393 0.0000

  HOMO= 109 E= -5.917 eV LUMO= -0.816 eV gap=   5.101 eV
 11  -1165.5071936606  -0.000000042764 0.00002462  0.00000017  0.0000215 0.0000

  HOMO= 109 E= -5.917 eV LUMO= -0.816 eV gap=   5.101 eV
 12  -1165.5071936443   0.000000016362 0.00000731  0.00000005  0.0000037 0.0000
                 **** Energy Check signals convergence ****

               *****************************************************
               *                     SUCCESS                       *
               *           SCF CONVERGED AFTER  13 CYCLES          *
               *****************************************************

Old exchange energy                            =    -42.067119265 Eh
New exchange energy                            =    -42.067147229 Eh
Exchange energy change after final integration =     -0.000027964 Eh
Total energy after final integration           =  -1165.507221626 Eh
Final COS-X integration done in                =    13.546 sec

----------------
TOTAL SCF ENERGY
----------------

Total Energy       :        -1165.50722163 Eh          -31715.06386 eV

Components:
Nuclear Repulsion  :         2777.19929865 Eh           75571.43489 eV
Electronic Energy  :        -3942.70652027 Eh         -107286.49876 eV
One Electron Energy:        -7096.44849251 Eh         -193104.18071 eV
Two Electron Energy:         3153.74197224 Eh           85817.68195 eV
Max COSX asymmetry :            0.00000291 Eh               0.00008 eV
CPCM Dielectric    :           -0.01568926 Eh              -0.42693 eV

Virial components:
Potential Energy   :        -2322.40438854 Eh          -63195.83623 eV
Kinetic Energy     :         1156.89716692 Eh           31480.77236 eV
Virial Ratio       :            2.00744237


DFT components:
N(Alpha)           :      110.000194318515 electrons
N(Beta)            :      110.000194318515 electrons
N(Total)           :      220.000388637031 electrons
E(X)               :     -125.744806210700 Eh       
E(C)               :       -7.326231133728 Eh       
E(XC)              :     -133.071037344428 Eh       
DFET-embed. en.    :        0.000000000000 Eh       
CPCM Solvation Model Properties:
Surface-charge          :           -0.03426420
Charge-correction       :           -0.00005334 Eh              -0.00145 eV
Free-energy (cav+disp)  :  This term is not implemented in the current solvation scheme

---------------
SCF CONVERGENCE
---------------

  Last Energy change         ...   -1.7214e-08  Tolerance :   1.0000e-07
  Last MAX-Density change    ...    0.0000e+00  Tolerance :   1.0000e-05
  Last RMS-Density change    ...    0.0000e+00  Tolerance :   1.0000e-06
  Last DIIS Error            ...    2.4695e-06  Tolerance :   1.0000e-07

             **** THE GBW FILE WAS UPDATED (inpJ.gbw) ****
             **** DENSITY inpJ.scfp WAS UPDATED ****
             **** ENERGY FILE WAS UPDATED (inpJ.en.tmp) ****
             **** THE GBW FILE WAS UPDATED (inpJ.gbw) ****
             **** DENSITY inpJ.scfp WAS UPDATED ****
----------------
ORBITAL ENERGIES
----------------

  NO   OCC          E(Eh)            E(eV) 
   0   2.0000     -19.214892      -522.8638 
   1   2.0000     -10.301246      -280.3111 
   2   2.0000     -10.269397      -279.4445 
   3   2.0000     -10.266668      -279.3702 
   4   2.0000     -10.261557      -279.2312 
   5   2.0000     -10.256037      -279.0810 
   6   2.0000     -10.253272      -279.0057 
   7   2.0000     -10.251499      -278.9575 
   8   2.0000     -10.249135      -278.8932 
   9   2.0000     -10.249108      -278.8924 
  10   2.0000     -10.248220      -278.8682 
  11   2.0000     -10.245994      -278.8077 
  12   2.0000     -10.244992      -278.7804 
  13   2.0000     -10.244895      -278.7778 
  14   2.0000     -10.243973      -278.7527 
  15   2.0000     -10.243753      -278.7467 
  16   2.0000     -10.242901      -278.7235 
  17   2.0000     -10.241897      -278.6962 
  18   2.0000     -10.241615      -278.6885 
  19   2.0000     -10.241001      -278.6718 
  20   2.0000     -10.238958      -278.6162 
  21   2.0000     -10.233386      -278.4646 
  22   2.0000     -10.233256      -278.4610 
  23   2.0000     -10.232304      -278.4351 
  24   2.0000     -10.226782      -278.2849 
  25   2.0000     -10.225387      -278.2469 
  26   2.0000     -10.224592      -278.2253 
  27   2.0000     -10.223978      -278.2086 
  28   2.0000     -10.219933      -278.0985 
  29   2.0000      -1.045699       -28.4549 
  30   2.0000      -0.900444       -24.5023 
  31   2.0000      -0.883479       -24.0407 
  32   2.0000      -0.859201       -23.3801 
  33   2.0000      -0.844915       -22.9913 
  34   2.0000      -0.821934       -22.3660 
  35   2.0000      -0.813569       -22.1383 
  36   2.0000      -0.794841       -21.6287 
  37   2.0000      -0.794605       -21.6223 
  38   2.0000      -0.776939       -21.1416 
  39   2.0000      -0.757186       -20.6041 
  40   2.0000      -0.738962       -20.1082 
  41   2.0000      -0.733517       -19.9600 
  42   2.0000      -0.713591       -19.4178 
  43   2.0000      -0.703277       -19.1371 
  44   2.0000      -0.699251       -19.0276 
  45   2.0000      -0.693416       -18.8688 
  46   2.0000      -0.668698       -18.1962 
  47   2.0000      -0.662318       -18.0226 
  48   2.0000      -0.631914       -17.1952 
  49   2.0000      -0.621710       -16.9176 
  50   2.0000      -0.619258       -16.8509 
  51   2.0000      -0.608802       -16.5663 
  52   2.0000      -0.596589       -16.2340 
  53   2.0000      -0.579809       -15.7774 
  54   2.0000      -0.561996       -15.2927 
  55   2.0000      -0.543938       -14.8013 
  56   2.0000      -0.538918       -14.6647 
  57   2.0000      -0.529517       -14.4089 
  58   2.0000      -0.514889       -14.0108 
  59   2.0000      -0.508583       -13.8392 
  60   2.0000      -0.499974       -13.6050 
  61   2.0000      -0.491443       -13.3729 
  62   2.0000      -0.480757       -13.0821 
  63   2.0000      -0.479205       -13.0398 
  64   2.0000      -0.475968       -12.9518 
  65   2.0000      -0.472899       -12.8682 
  66   2.0000      -0.463897       -12.6233 
  67   2.0000      -0.456839       -12.4312 
  68   2.0000      -0.455856       -12.4045 
  69   2.0000      -0.450654       -12.2629 
  70   2.0000      -0.449074       -12.2199 
  71   2.0000      -0.441303       -12.0085 
  72   2.0000      -0.435128       -11.8404 
  73   2.0000      -0.430503       -11.7146 
  74   2.0000      -0.425984       -11.5916 
  75   2.0000      -0.416377       -11.3302 
  76   2.0000      -0.415402       -11.3037 
  77   2.0000      -0.413841       -11.2612 
  78   2.0000      -0.407023       -11.0757 
  79   2.0000      -0.403532       -10.9807 
  80   2.0000      -0.402418       -10.9504 
  81   2.0000      -0.398255       -10.8371 
  82   2.0000      -0.396958       -10.8018 
  83   2.0000      -0.391425       -10.6512 
  84   2.0000      -0.387145       -10.5348 
  85   2.0000      -0.384818       -10.4714 
  86   2.0000      -0.378154       -10.2901 
  87   2.0000      -0.377059       -10.2603 
  88   2.0000      -0.368014       -10.0142 
  89   2.0000      -0.367102        -9.9894 
  90   2.0000      -0.362494        -9.8640 
  91   2.0000      -0.358882        -9.7657 
  92   2.0000      -0.355425        -9.6716 
  93   2.0000      -0.343960        -9.3596 
  94   2.0000      -0.340466        -9.2646 
  95   2.0000      -0.337196        -9.1756 
  96   2.0000      -0.333095        -9.0640 
  97   2.0000      -0.331314        -9.0155 
  98   2.0000      -0.329733        -8.9725 
  99   2.0000      -0.327521        -8.9123 
 100   2.0000      -0.325849        -8.8668 
 101   2.0000      -0.324446        -8.8286 
 102   2.0000      -0.316648        -8.6164 
 103   2.0000      -0.315109        -8.5746 
 104   2.0000      -0.310785        -8.4569 
 105   2.0000      -0.299228        -8.1424 
 106   2.0000      -0.279805        -7.6139 
 107   2.0000      -0.274667        -7.4741 
 108   2.0000      -0.256443        -6.9782 
 109   2.0000      -0.217435        -5.9167 
 110   0.0000      -0.029978        -0.8157 
 111   0.0000       0.021562         0.5867 
 112   0.0000       0.026470         0.7203 
 113   0.0000       0.079650         2.1674 
 114   0.0000       0.089862         2.4453 
 115   0.0000       0.102177         2.7804 
 116   0.0000       0.103462         2.8153 
 117   0.0000       0.108141         2.9427 
 118   0.0000       0.111498         3.0340 
 119   0.0000       0.112544         3.0625 
 120   0.0000       0.118725         3.2307 
 121   0.0000       0.121793         3.3141 
 122   0.0000       0.128554         3.4981 
 123   0.0000       0.130525         3.5518 
 124   0.0000       0.135274         3.6810 
 125   0.0000       0.139076         3.7844 
 126   0.0000       0.139960         3.8085 
 127   0.0000       0.142330         3.8730 
 128   0.0000       0.144590         3.9345 
 129   0.0000       0.152293         4.1441 
 130   0.0000       0.153923         4.1884 
 131   0.0000       0.158107         4.3023 
 132   0.0000       0.163344         4.4448 
 133   0.0000       0.164079         4.4648 
 134   0.0000       0.165478         4.5029 
 135   0.0000       0.169265         4.6059 
 136   0.0000       0.170065         4.6277 
 137   0.0000       0.174315         4.7433 
 138   0.0000       0.176114         4.7923 
 139   0.0000       0.182383         4.9629 
 140   0.0000       0.183619         4.9965 
 141   0.0000       0.185264         5.0413 
 142   0.0000       0.186942         5.0870 
 143   0.0000       0.190252         5.1770 
 144   0.0000       0.193037         5.2528 
 145   0.0000       0.195444         5.3183 
 146   0.0000       0.197767         5.3815 
 147   0.0000       0.200325         5.4511 
 148   0.0000       0.202839         5.5195 
 149   0.0000       0.211021         5.7422 
 150   0.0000       0.214003         5.8233 
 151   0.0000       0.220403         5.9975 
 152   0.0000       0.222467         6.0536 
 153   0.0000       0.229034         6.2323 
 154   0.0000       0.233241         6.3468 
 155   0.0000       0.235264         6.4019 
 156   0.0000       0.242141         6.5890 
 157   0.0000       0.246407         6.7051 
 158   0.0000       0.247981         6.7479 
 159   0.0000       0.254752         6.9321 
 160   0.0000       0.256228         6.9723 
 161   0.0000       0.259469         7.0605 
 162   0.0000       0.262236         7.1358 
 163   0.0000       0.264238         7.1903 
 164   0.0000       0.269196         7.3252 
 165   0.0000       0.276873         7.5341 
 166   0.0000       0.278672         7.5831 
 167   0.0000       0.287420         7.8211 
 168   0.0000       0.291486         7.9317 
 169   0.0000       0.295282         8.0350 
 170   0.0000       0.299300         8.1444 
 171   0.0000       0.305287         8.3073 
 172   0.0000       0.306680         8.3452 
 173   0.0000       0.316707         8.6180 
 174   0.0000       0.320320         8.7164 
 175   0.0000       0.324225         8.8226 
 176   0.0000       0.328186         8.9304 
 177   0.0000       0.333992         9.0884 
 178   0.0000       0.353016         9.6060 
 179   0.0000       0.358197         9.7470 
 180   0.0000       0.366812         9.9815 
 181   0.0000       0.378935        10.3113 
 182   0.0000       0.382755        10.4153 
 183   0.0000       0.410961        11.1828 
 184   0.0000       0.418637        11.3917 
 185   0.0000       0.463773        12.6199 
 186   0.0000       0.474785        12.9195 
 187   0.0000       0.493769        13.4361 
 188   0.0000       0.507796        13.8178 
 189   0.0000       0.520812        14.1720 
 190   0.0000       0.522723        14.2240 
 191   0.0000       0.525293        14.2940 
 192   0.0000       0.542163        14.7530 
 193   0.0000       0.542726        14.7683 
 194   0.0000       0.567729        15.4487 
 195   0.0000       0.576338        15.6830 
 196   0.0000       0.581522        15.8240 
 197   0.0000       0.583468        15.8770 
 198   0.0000       0.594864        16.1871 
 199   0.0000       0.606393        16.5008 
 200   0.0000       0.611084        16.6285 
 201   0.0000       0.621663        16.9163 
 202   0.0000       0.625819        17.0294 
 203   0.0000       0.632034        17.1985 
 204   0.0000       0.637879        17.3576 
 205   0.0000       0.642436        17.4816 
 206   0.0000       0.648256        17.6399 
 207   0.0000       0.655433        17.8352 
 208   0.0000       0.661854        18.0100 
 209   0.0000       0.665949        18.1214 
 210   0.0000       0.672863        18.3095 
 211   0.0000       0.679278        18.4841 
 212   0.0000       0.690772        18.7969 
 213   0.0000       0.695861        18.9353 
 214   0.0000       0.701133        19.0788 
 215   0.0000       0.709211        19.2986 
 216   0.0000       0.710980        19.3468 
 217   0.0000       0.714900        19.4534 
 218   0.0000       0.717378        19.5209 
 219   0.0000       0.725582        19.7441 
 220   0.0000       0.727698        19.8017 
 221   0.0000       0.731546        19.9064 
 222   0.0000       0.738098        20.0847 
 223   0.0000       0.739596        20.1254 
 224   0.0000       0.741489        20.1769 
 225   0.0000       0.748335        20.3632 
 226   0.0000       0.750173        20.4132 
 227   0.0000       0.757315        20.6076 
 228   0.0000       0.757546        20.6139 
 229   0.0000       0.765681        20.8352 
 230   0.0000       0.773428        21.0460 
 231   0.0000       0.776187        21.1211 
 232   0.0000       0.778500        21.1841 
 233   0.0000       0.782927        21.3045 
 234   0.0000       0.786112        21.3912 
 235   0.0000       0.794513        21.6198 
 236   0.0000       0.801277        21.8039 
 237   0.0000       0.807170        21.9642 
 238   0.0000       0.808516        22.0008 
 239   0.0000       0.820693        22.3322 
 240   0.0000       0.821475        22.3535 
 241   0.0000       0.828009        22.5313 
 242   0.0000       0.836871        22.7724 
 243   0.0000       0.840574        22.8732 
 244   0.0000       0.855766        23.2866 
 245   0.0000       0.856397        23.3037 
 246   0.0000       0.863738        23.5035 
 247   0.0000       0.867112        23.5953 
 248   0.0000       0.869433        23.6585 
 249   0.0000       0.872862        23.7518 
 250   0.0000       0.875446        23.8221 
 251   0.0000       0.876431        23.8489 
 252   0.0000       0.878024        23.8922 
 253   0.0000       0.879494        23.9322 
 254   0.0000       0.880735        23.9660 
 255   0.0000       0.885901        24.1066 
 256   0.0000       0.888101        24.1665 
 257   0.0000       0.890017        24.2186 
 258   0.0000       0.893917        24.3247 
 259   0.0000       0.899913        24.4879 
 260   0.0000       0.901384        24.5279 
 261   0.0000       0.902764        24.5655 
 262   0.0000       0.908390        24.7185 
 263   0.0000       0.911669        24.8078 
 264   0.0000       0.915712        24.9178 
 265   0.0000       0.924913        25.1682 
 266   0.0000       0.928799        25.2739 
 267   0.0000       0.931483        25.3469 
 268   0.0000       0.935080        25.4448 
 269   0.0000       0.937341        25.5063 
 270   0.0000       0.940142        25.5826 
 271   0.0000       0.945631        25.7319 
 272   0.0000       0.946656        25.7598 
 273   0.0000       0.948637        25.8137 
 274   0.0000       0.955204        25.9924 
 275   0.0000       0.959295        26.1038 
 276   0.0000       0.966684        26.3048 
 277   0.0000       0.970464        26.4077 
 278   0.0000       0.975181        26.5360 
 279   0.0000       0.982519        26.7357 
 280   0.0000       0.995683        27.0939 
 281   0.0000       1.002589        27.2818 
 282   0.0000       1.005146        27.3514 
 283   0.0000       1.011794        27.5323 
 284   0.0000       1.015112        27.6226 
 285   0.0000       1.021635        27.8001 
 286   0.0000       1.038337        28.2546 
 287   0.0000       1.038844        28.2684 
 288   0.0000       1.061726        28.8910 
 289   0.0000       1.068128        29.0652 
 290   0.0000       1.070175        29.1209 
 291   0.0000       1.078801        29.3557 
 292   0.0000       1.090911        29.6852 
 293   0.0000       1.094207        29.7749 
 294   0.0000       1.101169        29.9643 
 295   0.0000       1.119235        30.4559 
 296   0.0000       1.123718        30.5779 
 297   0.0000       1.130720        30.7685 
 298   0.0000       1.143727        31.1224 
 299   0.0000       1.153853        31.3979 
 300   0.0000       1.160398        31.5760 
 301   0.0000       1.179858        32.1056 
 302   0.0000       1.180383        32.1199 
 303   0.0000       1.217073        33.1182 
 304   0.0000       1.231112        33.5003 
 305   0.0000       1.243955        33.8497 
 306   0.0000       1.255410        34.1614 
 307   0.0000       1.279810        34.8254 
 308   0.0000       1.284416        34.9507 
 309   0.0000       1.304773        35.5047 
 310   0.0000       1.326297        36.0904 
 311   0.0000       1.336212        36.3602 
 312   0.0000       1.371289        37.3147 
 313   0.0000       1.374646        37.4060 
 314   0.0000       1.405968        38.2583 
 315   0.0000       1.491436        40.5840 
 316   0.0000       1.525879        41.5213 
 317   0.0000       1.563562        42.5467 
 318   0.0000       1.606107        43.7044 
 319   0.0000       1.657332        45.0983 
 320   0.0000       6.207872       168.9248 
 321   0.0000       6.239937       169.7973 
 322   0.0000       6.261004       170.3706 
 323   0.0000       6.269176       170.5930 
 324   0.0000       6.276321       170.7874 
 325   0.0000       6.289395       171.1431 
 326   0.0000       6.296425       171.3344 
 327   0.0000       6.303493       171.5268 
 328   0.0000       6.313914       171.8103 
 329   0.0000       6.337293       172.4465 
 330   0.0000       6.344247       172.6357 
 331   0.0000       6.350546       172.8071 
 332   0.0000       6.361474       173.1045 
 333   0.0000       6.371473       173.3766 
 334   0.0000       6.384071       173.7194 
 335   0.0000       6.391794       173.9296 
 336   0.0000       6.397353       174.0808 
 337   0.0000       6.417128       174.6189 
 338   0.0000       6.421564       174.7396 
 339   0.0000       6.430149       174.9732 
 340   0.0000       6.438698       175.2059 
 341   0.0000       6.444652       175.3679 
 342   0.0000       6.453784       175.6164 
 343   0.0000       6.456572       175.6922 
 344   0.0000       6.467909       176.0007 
 345   0.0000       6.477316       176.2567 
 346   0.0000       6.481836       176.3797 
 347   0.0000       6.491417       176.6404 
 348   0.0000       6.509358       177.1286 
 349   0.0000       6.512130       177.2041 
 350   0.0000       6.517804       177.3585 
 351   0.0000       6.525569       177.5698 
 352   0.0000       6.536416       177.8649 
 353   0.0000       6.542528       178.0312 
 354   0.0000       6.549266       178.2146 
 355   0.0000       6.553489       178.3295 
 356   0.0000       6.557188       178.4302 
 357   0.0000       6.558524       178.4665 
 358   0.0000       6.562685       178.5797 
 359   0.0000       6.580646       179.0685 
 360   0.0000       6.585367       179.1969 
 361   0.0000       6.590575       179.3387 
 362   0.0000       6.591789       179.3717 
 363   0.0000       6.597772       179.5345 
 364   0.0000       6.606231       179.7647 
 365   0.0000       6.607219       179.7916 
 366   0.0000       6.611970       179.9209 
 367   0.0000       6.612652       179.9394 
 368   0.0000       6.619393       180.1229 
 369   0.0000       6.620991       180.1663 
 370   0.0000       6.622582       180.2096 
 371   0.0000       6.624484       180.2614 
 372   0.0000       6.630451       180.4237 
 373   0.0000       6.636151       180.5789 
 374   0.0000       6.642607       180.7545 
[...]
     69 H        0.000      0.000      0.000      0.000      0.000      0.000
     70 H        0.000      0.000      0.000      0.000      0.003      0.036
     71 H        0.000      0.000      0.000     -0.000      0.001      0.019
     72 H        0.000      0.000      0.000      0.000      0.001      0.015
                 25 H       27 H       28 H       30 H       31 H       33 H  
      3 H        2.542     -0.103      0.060      0.000      0.000      2.445
      4 H        0.118     -0.004      0.004      0.000      0.000      0.104
      8 H       -0.347      0.011      0.000      0.000      0.000     -0.315
      9 H        0.000      0.000      0.000      0.000      0.000      0.134
     10 H        0.000      0.000      0.000      0.000      0.000      0.000
     11 H        0.000      0.000      0.000      0.000      0.000      0.000
     13 H       -0.102      0.004     -0.003      0.000      0.000     -0.105
     16 H       -0.378      0.012     -0.005     -0.021     -0.001     -0.347
     17 H       -0.373      0.011      0.000      0.000      0.000     -0.325
     19 H        0.965     -0.048      0.018      0.086      0.007      1.172
     21 H       -2.888      0.192      0.646     -0.213     -0.027     -2.642
     24 H      -14.142      4.403      2.234      0.729     -0.503     -0.159
     25 H        0.000     12.981      5.359     -0.638     -0.349     -2.432
     27 H       12.981      0.000    -13.635      3.998     12.999      0.070
     28 H        5.359    -13.635      0.000      2.656      4.125      0.281
     30 H       -0.638      3.998      2.656      0.000    -12.962      0.015
     31 H       -0.349     12.999      4.125    -12.962      0.000     -0.326
     33 H       -2.432      0.070      0.281      0.015     -0.326      0.000
     35 H        0.000      0.000      0.000      0.000      0.000      0.000
     37 H        0.267      0.007     -0.035      0.535     -0.040      6.274
     38 H        0.203      0.002     -0.029     -0.020      0.120     12.239
     40 H       -0.014      0.022      0.138     -0.001     -0.037     -0.239
     41 H        0.013      0.019     -0.029      0.012      0.088     -0.388
     42 H       -0.019      0.007     -0.003     -0.265     -0.388     -0.202
     45 H       -0.017     -0.206      0.037     -0.202     -0.475     -0.146
     46 H        0.013      0.036      0.064     -0.325      0.044      0.943
     47 H       -0.060     -0.116     -0.144     -0.162      1.822     -0.466
     48 H       -0.015      0.031      0.021      0.035      0.017     -0.004
     52 H       -0.002     -0.001      0.009     -0.009      0.003      0.017
     53 H       -0.000      0.000     -0.001      0.001     -0.000     -0.002
     57 H        0.000      0.000      0.000      0.001      0.001     -0.000
     58 H        0.000      0.000      0.000      0.000      0.000     -0.000
     61 H        0.000      0.000      0.000      0.000      0.000      0.000
     62 H        0.000      0.000      0.000      0.000      0.000      0.000
     63 H        0.000      0.000      0.000      0.000     -0.000     -0.000
     64 H        0.000      0.000      0.000      0.000      0.000      0.000
     65 H        0.000      0.000      0.000      0.000      0.000      0.000
     66 H        0.000      0.000      0.000      0.000      0.000      0.000
     67 H        0.000      0.000      0.000      0.000     -0.000     -0.000
     68 H       -0.000      0.000      0.000      0.000      0.000     -0.000
     69 H        0.000      0.000      0.000      0.000     -0.000      0.000
     70 H        0.000     -0.008     -0.011      0.052     -0.060      0.007
     71 H        0.003     -0.003     -0.007     -0.450     -0.097      0.005
     72 H        0.000     -0.004     -0.005      0.040      0.000      0.002
                 35 H       37 H       38 H       40 H       41 H       42 H  
      3 H       -0.078     -0.044     -0.041      0.000      0.000      0.000
      4 H       -0.164     -0.002     -0.002      0.000      0.000      0.000
      8 H        0.020      0.006      0.004      0.000      0.001      0.000
      9 H       -0.091     -0.002     -0.001      0.000     -0.000      0.000
     10 H       -0.181      0.000     -0.002      0.000      0.000      0.000
     11 H       -0.102     -0.000     -0.000      0.000      0.000      0.000
     13 H       13.747      0.002      0.002      0.000      0.000      0.000
     16 H        0.005      0.007      0.002     -0.001      0.001     -0.001
     17 H        0.007      0.005      0.005     -0.000      0.002      0.000
     19 H       -0.005     -0.007      0.115      0.004     -0.010      0.007
     21 H       -0.004      0.030     -0.509     -0.010      0.059     -0.026
     24 H       -0.001     -0.049     -0.079     -0.021      0.073     -0.025
     25 H        0.000      0.267      0.203     -0.014      0.013     -0.019
     27 H        0.000      0.007      0.002      0.022      0.019      0.007
     28 H        0.000     -0.035     -0.029      0.138     -0.029     -0.003
     30 H        0.000      0.535     -0.020     -0.001      0.012     -0.265
     31 H        0.000     -0.040      0.120     -0.037      0.088     -0.388
     33 H        0.000      6.274     12.239     -0.239     -0.388     -0.202
     35 H        0.000      0.000      0.000      0.000      0.000      0.000
     37 H        0.000      0.000    -12.071      9.438      2.269     -0.249
     38 H        0.000    -12.071      0.000      7.197     11.271     -0.462
     40 H        0.000      9.438      7.197      0.000    -14.033      9.629
     41 H        0.000      2.269     11.271    -14.033      0.000      8.120
     42 H        0.000     -0.249     -0.462      9.629      8.120      0.000
     45 H        0.000      0.059      0.038     -0.072      0.015      0.960
     46 H        0.000     -0.160      0.009      0.042      0.036     -0.402
     47 H        0.000      0.090     -0.072     -0.111     -0.037     -0.113
     48 H        0.000      0.135      0.006     -0.153     -0.442     10.677
     52 H        0.000     -0.008     -0.004     -0.023      0.078     -0.559
     53 H        0.000      0.011      0.021     -0.173     -0.038     -0.419
     57 H        0.000      0.001      0.005     -0.011     -0.003      0.057
     58 H        0.000      0.000      0.000     -0.002     -0.002     -0.001
     61 H        0.000      0.000      0.000     -0.000     -0.000      0.000
     62 H        0.000      0.000      0.000     -0.001     -0.001     -0.000
     63 H        0.000      0.000      0.000      0.003      0.005     -0.005
     64 H        0.000     -0.000      0.000     -0.000      0.001     -0.003
     65 H        0.000      0.000      0.000     -0.001     -0.001     -0.001
     66 H        0.000      0.000      0.000      0.001     -0.000      0.000
     67 H        0.000      0.001      0.002     -0.017     -0.003      0.003
     68 H        0.000      0.000      0.000     -0.090     -0.014     -0.001
     69 H        0.000     -0.001     -0.001     -0.006     -0.001     -0.003
     70 H        0.000      0.060      0.011     -0.042     -0.014     -0.435
     71 H        0.000     -0.017     -0.002      0.032     -0.003     -0.164
     72 H        0.000     -0.024      0.031     -0.003     -0.071     -0.348
                 45 H       46 H       47 H       48 H       52 H       53 H  
      3 H       -0.022      0.000      0.000      0.000      0.000      0.000
      4 H       -0.001     -0.001      0.001      0.000      0.000      0.000
      8 H        0.002      0.002     -0.003      0.000      0.000      0.000
      9 H       -0.001      0.000      0.001      0.000      0.000      0.000
     10 H       -0.001      0.000      0.000      0.000      0.000      0.000
     11 H       -0.000      0.000      0.000      0.000      0.000      0.000
     13 H        0.001      0.001     -0.001      0.000      0.000      0.000
     16 H        0.002      0.002     -0.004      0.000      0.000      0.000
     17 H        0.003      0.000     -0.004      0.000      0.000      0.000
     19 H       -0.010     -0.007      0.011      0.006      0.000      0.000
     21 H        0.033      0.014     -0.017     -0.017      0.003     -0.000
     24 H       -0.023     -0.016     -0.023      0.003      0.000     -0.000
     25 H       -0.017      0.013     -0.060     -0.015     -0.002     -0.000
     27 H       -0.206      0.036     -0.116      0.031     -0.001      0.000
     28 H        0.037      0.064     -0.144      0.021      0.009     -0.001
     30 H       -0.202     -0.325     -0.162      0.035     -0.009      0.001
     31 H       -0.475      0.044      1.822      0.017      0.003     -0.000
     33 H       -0.146      0.943     -0.466     -0.004      0.017     -0.002
     35 H        0.000      0.000      0.000      0.000      0.000      0.000
     37 H        0.059     -0.160      0.090      0.135     -0.008      0.011
     38 H        0.038      0.009     -0.072      0.006     -0.004      0.021
     40 H       -0.072      0.042     -0.111     -0.153     -0.023     -0.173
     41 H        0.015      0.036     -0.037     -0.442      0.078     -0.038
     42 H        0.960     -0.402     -0.113     10.677     -0.559     -0.419
     45 H        0.000    -12.939    -13.620     -0.151      0.017      0.005
     46 H      -12.939      0.000    -12.971     -0.053      0.010     -0.004
     47 H      -13.620    -12.971      0.000     -0.234      0.017      0.000
     48 H       -0.151     -0.053     -0.234      0.000      6.068     -1.955
     52 H        0.017      0.010      0.017      6.068      0.000     16.751
     53 H        0.005     -0.004      0.000     -1.955     16.751      0.000
     57 H        0.000     -0.001     -0.001      0.179     -0.718     10.148
     58 H        0.000     -0.000      0.000     -0.060      0.145     -0.175
     61 H        0.000     -0.000     -0.000     -0.055      0.128     -0.166
     62 H        0.000      0.000      0.000     -0.047      0.052     -0.323
     63 H        0.000      0.000      0.000      0.099     -0.332     -0.069
     64 H        0.000      0.000      0.000      0.153     -0.077      0.044
     65 H        0.000      0.000      0.000      0.006     -0.011      0.052
     66 H        0.000      0.000      0.000     -0.015      0.002      0.018
     67 H        0.000      0.000      0.000      0.015     -0.026      0.012
     68 H       -0.000      0.000     -0.000     -0.012      0.050     -0.195
     69 H        0.000      0.000     -0.000      0.006      0.097     -0.046
     70 H       -0.029     -0.018     -0.011      1.858     -0.207     -0.044
     71 H       -0.075     -0.294     -0.022      5.625     -0.049     -0.412
     72 H       -0.036     -0.054      0.025     12.320     -0.238      0.138
                 57 H       58 H       61 H       62 H       63 H       64 H  
      3 H        0.000      0.000      0.000      0.000      0.000      0.000
      4 H        0.000      0.000      0.000      0.000      0.000      0.000
      8 H        0.000      0.000      0.000      0.000      0.000      0.000
      9 H        0.000      0.000      0.000      0.000      0.000      0.000
     10 H        0.000      0.000      0.000      0.000      0.000      0.000
     11 H        0.000      0.000      0.000      0.000      0.000      0.000
     13 H        0.000      0.000      0.000      0.000      0.000      0.000
     16 H        0.000      0.000      0.000      0.000      0.000      0.000
     17 H        0.000      0.000      0.000      0.000      0.000      0.000
     19 H        0.000      0.000      0.000      0.000      0.000      0.000
     21 H        0.000     -0.000      0.000      0.000      0.000      0.000
     24 H        0.000      0.000      0.000      0.000      0.000      0.000
     25 H        0.000      0.000      0.000      0.000      0.000      0.000
     27 H        0.000      0.000      0.000      0.000      0.000      0.000
     28 H        0.000      0.000      0.000      0.000      0.000      0.000
     30 H        0.001      0.000      0.000      0.000      0.000      0.000
     31 H        0.001      0.000      0.000      0.000     -0.000      0.000
     33 H       -0.000     -0.000      0.000      0.000     -0.000      0.000
     35 H        0.000      0.000      0.000      0.000      0.000      0.000
     37 H        0.001      0.000      0.000      0.000      0.000     -0.000
     38 H        0.005      0.000      0.000      0.000      0.000      0.000
     40 H       -0.011     -0.002     -0.000     -0.001      0.003     -0.000
     41 H       -0.003     -0.002     -0.000     -0.001      0.005      0.001
     42 H        0.057     -0.001      0.000     -0.000     -0.005     -0.003
     45 H        0.000      0.000      0.000      0.000      0.000      0.000
     46 H       -0.001     -0.000     -0.000      0.000      0.000      0.000
     47 H       -0.001      0.000     -0.000      0.000      0.000      0.000
     48 H        0.179     -0.060     -0.055     -0.047      0.099      0.153
     52 H       -0.718      0.145      0.128      0.052     -0.332     -0.077
     53 H       10.148     -0.175     -0.166     -0.323     -0.069      0.044
     57 H        0.000      2.780      4.215     13.112      2.754     -0.138
     58 H        2.780      0.000      0.332     -0.551     -0.443      4.390
     61 H        4.215      0.332      0.000    -12.959    -13.038     -0.055
     62 H       13.112     -0.551    -12.959      0.000    -12.333      0.066
     63 H        2.754     -0.443    -13.038    -12.333      0.000     -0.148
     64 H       -0.138      4.390     -0.055      0.066     -0.148      0.000
     65 H       -0.327      2.736      0.039      0.023      0.012    -12.668
     66 H       -0.266     13.241     -0.108      0.039     -0.304    -13.022
     67 H       -0.533     13.209     -0.105     -0.145     -0.016     -0.215
     68 H       -0.409      3.055      0.020     -0.020      0.060     -0.138
     69 H        0.496      3.947     -0.147     -0.096      0.038     -0.215
     70 H        0.001     -0.001     -0.002     -0.003      0.020     -0.000
     71 H        0.023     -0.019     -0.012     -0.021      0.184      0.000
     72 H       -0.009      0.004      0.001      0.002     -0.026      0.000
                 65 H       66 H       67 H       68 H       69 H       70 H  
      3 H        0.000      0.000      0.000      0.000      0.000      0.000
      4 H        0.000      0.000      0.000      0.000      0.000      0.000
      8 H        0.000      0.000      0.000      0.000      0.000      0.000
      9 H        0.000      0.000      0.000      0.000      0.000      0.000
     10 H        0.000      0.000      0.000      0.000      0.000      0.000
     11 H        0.000      0.000      0.000      0.000      0.000      0.000
     13 H        0.000      0.000      0.000      0.000      0.000      0.000
     16 H        0.000      0.000      0.000      0.000      0.000      0.000
     17 H        0.000      0.000      0.000      0.000      0.000      0.000
     19 H        0.000      0.000      0.000      0.000      0.000      0.000
     21 H        0.000      0.000      0.000     -0.000      0.000      0.003
     24 H        0.000      0.000      0.000      0.000      0.000      0.036
     25 H        0.000      0.000      0.000     -0.000      0.000      0.000
     27 H        0.000      0.000      0.000      0.000      0.000     -0.008
     28 H        0.000      0.000      0.000      0.000      0.000     -0.011
     30 H        0.000      0.000      0.000      0.000      0.000      0.052
     31 H        0.000      0.000     -0.000      0.000     -0.000     -0.060
     33 H        0.000      0.000     -0.000     -0.000      0.000      0.007
     35 H        0.000      0.000      0.000      0.000      0.000      0.000
     37 H        0.000      0.000      0.001      0.000     -0.001      0.060
     38 H        0.000      0.000      0.002      0.000     -0.001      0.011
     40 H       -0.001      0.001     -0.017     -0.090     -0.006     -0.042
     41 H       -0.001     -0.000     -0.003     -0.014     -0.001     -0.014
     42 H       -0.001      0.000      0.003     -0.001     -0.003     -0.435
     45 H        0.000      0.000      0.000     -0.000      0.000     -0.029
     46 H        0.000      0.000      0.000      0.000      0.000     -0.018
     47 H        0.000      0.000      0.000     -0.000     -0.000     -0.011
     48 H        0.006     -0.015      0.015     -0.012      0.006      1.858
     52 H       -0.011      0.002     -0.026      0.050      0.097     -0.207
     53 H        0.052      0.018      0.012     -0.195     -0.046     -0.044
     57 H       -0.327     -0.266     -0.533     -0.409      0.496      0.001
     58 H        2.736     13.241     13.209      3.055      3.947     -0.001
     61 H        0.039     -0.108     -0.105      0.020     -0.147     -0.002
     62 H        0.023      0.039     -0.145     -0.020     -0.096     -0.003
     63 H        0.012     -0.304     -0.016      0.060      0.038      0.020
     64 H      -12.668    -13.022     -0.215     -0.138     -0.215     -0.000
     65 H        0.000    -12.063     -0.258      2.828     -0.017      0.000
     66 H      -12.063      0.000     -0.337     -0.272     -0.220      0.000
     67 H       -0.258     -0.337      0.000    -12.179    -13.012      0.000
     68 H        2.828     -0.272    -12.179      0.000    -13.124     -0.000
     69 H       -0.017     -0.220    -13.012    -13.124      0.000     -0.001
     70 H        0.000      0.000      0.000     -0.000     -0.001      0.000
     71 H        0.000      0.000      0.001     -0.002      0.000    -13.388
     72 H       -0.000      0.000     -0.000      0.001      0.000    -12.980
                 71 H       72 H  
      3 H        0.000      0.000
      4 H        0.000      0.000
      8 H        0.000      0.000
      9 H        0.000      0.000
     10 H        0.000      0.000
     11 H        0.000      0.000
     13 H        0.000      0.000
     16 H        0.000      0.000
     17 H        0.000      0.000
     19 H       -0.000      0.000
     21 H        0.001      0.001
     24 H        0.019      0.015
     25 H        0.003      0.000
     27 H       -0.003     -0.004
     28 H       -0.007     -0.005
     30 H       -0.450      0.040
     31 H       -0.097      0.000
     33 H        0.005      0.002
     35 H        0.000      0.000
     37 H       -0.017     -0.024
     38 H       -0.002      0.031
     40 H        0.032     -0.003
     41 H       -0.003     -0.071
     42 H       -0.164     -0.348
     45 H       -0.075     -0.036
     46 H       -0.294     -0.054
     47 H       -0.022      0.025
     48 H        5.625     12.320
     52 H       -0.049     -0.238
     53 H       -0.412      0.138
     57 H        0.023     -0.009
     58 H       -0.019      0.004
     61 H       -0.012      0.001
     62 H       -0.021      0.002
     63 H        0.184     -0.026
     64 H        0.000      0.000
     65 H        0.000     -0.000
     66 H        0.000      0.000
     67 H        0.001     -0.000
     68 H       -0.002      0.001
     69 H        0.000      0.000
     70 H      -13.388    -12.980
     71 H        0.000    -11.536
     72 H      -11.536      0.000

Maximum memory used throughout the entire EPRNMR-calculation: 972.8 MB

Timings for individual modules:

Sum of individual times         ...      398.198 sec (=   6.637 min)
GTO integral calculation        ...        0.708 sec (=   0.012 min)   0.2 %
SCF iterations                  ...      103.603 sec (=   1.727 min)  26.0 %
EPR/NMR calculation             ...      293.887 sec (=   4.898 min)  73.8 %
                             ****ORCA TERMINATED NORMALLY****
TOTAL RUN TIME: 0 days 0 hours 6 minutes 38 seconds 613 msec
