
                                 *****************
                                 * O   R   C   A *
                                 *****************

                                            #,                                       
                                            ###                                      
                                            ####                                     
                                            #####                                    
                                            ######                                   
                                           ########,                                 
                                     ,,################,,,,,                         
                               ,,#################################,,                 
                          ,,##########################################,,             
                       ,#########################################, ''#####,          
                    ,#############################################,,   '####,        
                  ,##################################################,,,,####,       
                ,###########''''           ''''###############################       
              ,#####''   ,,,,##########,,,,          '''####'''          '####       
            ,##' ,,,,###########################,,,                        '##       
           ' ,,###''''                  '''############,,,                           
         ,,##''                                '''############,,,,        ,,,,,,###''
      ,#''                                            '''#######################'''  
     '                                                          ''''####''''         
             ,#######,   #######,   ,#######,      ##                                
            ,#'     '#,  ##    ##  ,#'     '#,    #''#        ######   ,####,        
            ##       ##  ##   ,#'  ##            #'  '#       #        #'  '#        
            ##       ##  #######   ##           ,######,      #####,   #    #        
            '#,     ,#'  ##    ##  '#,     ,#' ,#      #,         ##   #,  ,#        
             '#######'   ##     ##  '#######'  #'      '#     #####' # '####'        



                  #######################################################
                  #                        -***-                        #
                  #          Department of theory and spectroscopy      #
                  #    Directorship and core code : Frank Neese         #
                  #        Max Planck Institute fuer Kohlenforschung    #
                  #                Kaiser Wilhelm Platz 1               #
                  #                 D-45470 Muelheim/Ruhr               #
                  #                      Germany                        #
                  #                                                     #
                  #                  All rights reserved                #
                  #                        -***-                        #
                  #######################################################


                         Program Version 5.0.2 -  RELEASE  -


 With contributions from (in alphabetic order):
   Daniel Aravena         : Magnetic Suceptibility
   Michael Atanasov       : Ab Initio Ligand Field Theory (pilot matlab implementation)
   Alexander A. Auer      : GIAO ZORA, VPT2 properties, NMR spectrum
   Ute Becker             : Parallelization
   Giovanni Bistoni       : ED, misc. LED, open-shell LED, HFLD
   Martin Brehm           : Molecular dynamics
   Dmytro Bykov           : SCF Hessian
   Vijay G. Chilkuri      : MRCI spin determinant printing, contributions to CSF-ICE
   Dipayan Datta          : RHF DLPNO-CCSD density
   Achintya Kumar Dutta   : EOM-CC, STEOM-CC
   Dmitry Ganyushin       : Spin-Orbit,Spin-Spin,Magnetic field MRCI
   Miquel Garcia          : C-PCM and meta-GGA Hessian, CC/C-PCM, Gaussian charge scheme
   Yang Guo               : DLPNO-NEVPT2, F12-NEVPT2, CIM, IAO-localization
   Andreas Hansen         : Spin unrestricted coupled pair/coupled cluster methods
   Benjamin Helmich-Paris : MC-RPA, TRAH-SCF, COSX integrals
   Lee Huntington         : MR-EOM, pCC
   Robert Izsak           : Overlap fitted RIJCOSX, COSX-SCS-MP3, EOM
   Marcus Kettner         : VPT2
   Christian Kollmar      : KDIIS, OOCD, Brueckner-CCSD(T), CCSD density, CASPT2, CASPT2-K
   Simone Kossmann        : Meta GGA functionals, TD-DFT gradient, OOMP2, MP2 Hessian
   Martin Krupicka        : Initial AUTO-CI
   Lucas Lang             : DCDCAS
   Marvin Lechner         : AUTO-CI (C++ implementation), FIC-MRCC
   Dagmar Lenk            : GEPOL surface, SMD
   Dimitrios Liakos       : Extrapolation schemes; Compound Job, initial MDCI parallelization
   Dimitrios Manganas     : Further ROCIS development; embedding schemes
   Dimitrios Pantazis     : SARC Basis sets
   Anastasios Papadopoulos: AUTO-CI, single reference methods and gradients
   Taras Petrenko         : DFT Hessian,TD-DFT gradient, ASA, ECA, R-Raman, ABS, FL, XAS/XES, NRVS
   Peter Pinski           : DLPNO-MP2, DLPNO-MP2 Gradient
   Christoph Reimann      : Effective Core Potentials
   Marius Retegan         : Local ZFS, SOC
   Christoph Riplinger    : Optimizer, TS searches, QM/MM, DLPNO-CCSD(T), (RO)-DLPNO pert. Triples
   Tobias Risthaus        : Range-separated hybrids, TD-DFT gradient, RPA, STAB
   Michael Roemelt        : Original ROCIS implementation
   Masaaki Saitow         : Open-shell DLPNO-CCSD energy and density
   Barbara Sandhoefer     : DKH picture change effects
   Avijit Sen             : IP-ROCIS
   Kantharuban Sivalingam : CASSCF convergence, NEVPT2, FIC-MRCI
   Bernardo de Souza      : ESD, SOC TD-DFT
   Georgi Stoychev        : AutoAux, RI-MP2 NMR, DLPNO-MP2 response
   Willem Van den Heuvel  : Paramagnetic NMR
   Boris Wezisla          : Elementary symmetry handling
   Frank Wennmohs         : Technical directorship


 We gratefully acknowledge several colleagues who have allowed us to
 interface, adapt or use parts of their codes:
   Stefan Grimme, W. Hujo, H. Kruse, P. Pracht,  : VdW corrections, initial TS optimization,
                  C. Bannwarth, S. Ehlert          DFT functionals, gCP, sTDA/sTD-DF
   Ed Valeev, F. Pavosevic, A. Kumar             : LibInt (2-el integral package), F12 methods
   Garnet Chan, S. Sharma, J. Yang, R. Olivares  : DMRG
   Ulf Ekstrom                                   : XCFun DFT Library
   Mihaly Kallay                                 : mrcc  (arbitrary order and MRCC methods)
   Jiri Pittner, Ondrej Demel                    : Mk-CCSD
   Frank Weinhold                                : gennbo (NPA and NBO analysis)
   Christopher J. Cramer and Donald G. Truhlar   : smd solvation model
   Lars Goerigk                                  : TD-DFT with DH, B97 family of functionals
   V. Asgeirsson, H. Jonsson                     : NEB implementation
   FAccTs GmbH                                   : IRC, NEB, NEB-TS, DLPNO-Multilevel, CI-OPT
                                                   MM, QMMM, 2- and 3-layer-ONIOM, Crystal-QMMM,
                                                   LR-CPCM, SF, NACMEs, symmetry and pop. for TD-DFT,
                                                   nearIR, NL-DFT gradient (VV10), updates on ESD,
                                                   ML-optimized integration grids
   S Lehtola, MJT Oliveira, MAL Marques          : LibXC Library
   Liviu Ungur et al                             : ANISO software


 Your calculation uses the libint2 library for the computation of 2-el integrals
 For citations please refer to: http://libint.valeyev.net

 Your ORCA version has been built with support for libXC version: 5.1.0
 For citations please refer to: https://tddft.org/programs/libxc/

 This ORCA versions uses:
   CBLAS   interface :  Fast vector & matrix operations
   LAPACKE interface :  Fast linear algebra routines
   SCALAPACK package :  Parallel linear algebra routines
   Shared memory     :  Shared parallel matrices
   BLAS/LAPACK       :  OpenBLAS 0.3.15  USE64BITINT DYNAMIC_ARCH NO_AFFINITY Zen SINGLE_THREADED
        Core in use  :  Zen
   Copyright (c) 2011-2014, The OpenBLAS Project


Your calculation utilizes the atom-pairwise dispersion correction
based on tight binding partial charges (D4)
Cite in your paper:
E.Caldeweyher, C.Bannwarth, S.Grimme, J.Chem.Phys., (2017), 147, 034112.
E.Caldeweyher, S.Ehlert, A.Hansen, H.Neugebauer, S.Grimme, J.Chem.Phys., (2018), in progress.
   

================================================================================

----- Orbital basis set information -----
Your calculation utilizes the basis: pcSseg-1
   F. Jensen, J. Chem. Theory Comput. 11, 132 (2015).

----- AuxJ basis set information -----
Your calculation utilizes the auxiliary basis: def2/J
   F. Weigend, Phys. Chem. Chem. Phys. 8, 1057 (2006).

================================================================================
                                        WARNINGS
                       Please study these warnings very carefully!
================================================================================



WARNING: Found flag for RIJCOSX approximation but no HF exchange needed!
  ===> : RIJCOSX  will be disabled and Split-RI-J is turned on

INFO   : the flag for use of the SHARK integral package has been found!

================================================================================
                                       INPUT FILE
================================================================================
NAME = inpS
|  1> ! revTPSS
|  2> ! D4
|  3> ! pcSseg-1
|  4> ! def2/J RIJCOSX
|  5> ! DEFGRID2
|  6> ! scfconv7
|  7> ! smallprint printgap noloewdin
|  8> ! NOSOSCF
|  9> %MaxCore 4000
| 10> %output
| 11>        print[P_BondOrder_M] 1
| 12>        print[P_Mayer] 1
| 13>        print[P_basis] 2
| 14> end
| 15> %pal
| 16>     nprocs 4
| 17> end
| 18> ! CPCM(chloroform)
| 19> *xyz 0 1
| 20> C   -5.1915844600   0.2298407900   0.2225527800
| 21> C   -6.5730762500  -0.2863069200  -0.1055172300
| 22> C   -7.1471397600   0.3807702700  -1.3613304300
| 23> H   -7.2570472200  -0.0541635500   0.7285171600
| 24> H   -6.5593425300  -1.3742596000  -0.2332672900
| 25> C   -5.0869710800   1.7043387300   0.2547252000
| 26> C   -5.7053877400   2.4023627000  -0.9353431400
| 27> C   -7.1281831100   1.8978215700  -1.2120714500
| 28> H   -5.0853416300   2.1955376000  -1.8208816000
| 29> H   -5.7034762800   3.4865448900  -0.7811601000
| 30> H   -7.5266195100   2.3636649100  -2.1210474400
| 31> H   -7.7878641500   2.1776020100  -0.3767644400
| 32> O   -8.4623810200  -0.1095960700  -1.6527470100
| 33> H   -6.5388919600   0.0924266100  -2.2301172000
| 34> C   -4.1590794200  -0.6236085900   0.4207510800
| 35> C   -4.5358683100   2.3806279000   1.2692160200
| 36> H   -4.1202855600   1.8678402200   2.1321297900
| 37> H   -4.4988942500   3.4674686300   1.2621903500
| 38> C   -2.7787802800  -0.2623981800   0.6467098200
| 39> H   -4.3948575100  -1.6853216400   0.3620144000
| 40> C   -1.7643060300  -1.1073975100   0.9306543900
| 41> H   -2.5449912000   0.7969553600   0.5680644000
| 42> C   -1.8891415100  -2.5966911600   1.1318065300
| 43> C   -0.8878277900  -3.3822415700   0.2635762800
| 44> H   -2.9049796100  -2.9559812700   0.9455021700
| 45> H   -1.6667121100  -2.8114748700   2.1894745900
| 46> C    0.5496769600  -2.8621519700   0.4006013100
| 47> H   -1.2028487700  -3.3285211000  -0.7861418300
| 48> H   -0.9228815700  -4.4418863300   0.5450094300
| 49> C    0.6383738600  -1.3541415300   0.1264091500
| 50> H    1.1998588500  -3.4293555100  -0.2735895600
| 51> H    0.9062746700  -3.0505514500   1.4245203500
| 52> C   -0.3504703400  -0.6438402200   1.1034818200
| 53> H   -0.0348430300  -0.9785981600   2.1094956800
| 54> C    0.0117513400   0.8323685300   0.9857923200
| 55> H   -9.0333328100   0.1300432600  -0.9105387700
| 56> C    1.5520068600   0.8121696900   0.8333560200
| 57> H   -0.3203682700   1.4111752800   1.8542836400
| 58> H   -0.4591554300   1.2772425100   0.1018806800
| 59> C    1.9687705200  -0.6647535100   0.5446891900
| 60> H    2.0453544900   1.1848142900   1.7351252200
| 61> H    1.8778796200   1.4623694700   0.0126025900
| 62> H    2.2674041300  -1.1404697400   1.4921674100
| 63> C    3.1600546600  -0.7448558300  -0.4206434800
| 64> C    0.2810728600  -1.0376176400  -1.3326749800
| 65> H   -0.7758026300  -1.2375108500  -1.5340664700
| 66> H    0.8760808800  -1.6473565200  -2.0209692100
| 67> H    0.4653494700   0.0134900200  -1.5768077300
| 68> H    2.8655365200  -0.2349286500  -1.3515577700
| 69> C    3.5746107400  -2.1801446400  -0.7947101000
| 70> C    4.3935286500  -0.0318829300   0.0892922300
| 71> C    4.7061154500   0.2481592600   1.3542257200
| 72> H    5.1241114900   0.2180367800  -0.6854507100
| 73> H    4.0112228200  -0.0134561900   2.1537030200
| 74> C    5.9817594700   0.9166695400   1.7874522600
| 75> C    6.7292282100   0.0245912000   2.7895334600
| 76> C    5.7110693200   2.3511138700   2.3216524200
| 77> H    6.6151021400   1.0339381200   0.8953155800
| 78> H    5.1232711900   2.8527063900   1.5378037900
| 79> C    7.0104428600   3.1403036900   2.5037132400
| 80> C    4.8866882200   2.3768900800   3.6110844900
| 81> H    6.9771676800  -0.9356124700   2.3252319400
| 82> H    6.1134855300  -0.1836699200   3.6715634700
| 83> H    7.6626422800   0.4865461500   3.1272283100
| 84> H    6.7923801500   4.1875378600   2.7412249100
| 85> H    7.6211360200   3.1183074200   1.5937359600
| 86> H    7.6115518300   2.7357872200   3.3259928600
| 87> H    5.4418717300   1.9323031400   4.4451153000
| 88> H    3.9402720600   1.8365100500   3.5046198300
| 89> H    4.6503097400   3.4103867500   3.8878135200
| 90> H    4.5121191400  -2.1693900400  -1.3619300800
| 91> H    2.8209505000  -2.6793042600  -1.4092989200
| 92> H    3.7369586500  -2.7766998900   0.1106702500
| 93> *
| 94> %eprnmr
| 95>  Nuclei = all H { shift }
| 96>  origin giao
| 97>  giao_2el giao_2el_same_as_scf
| 98>  giao_1el giao_1el_analytic
| 99> end
|100> 
|101>                          ****END OF INPUT****
================================================================================

                       ****************************
                       * Single Point Calculation *
                       ****************************

---------------------------------
CARTESIAN COORDINATES (ANGSTROEM)
---------------------------------
  C     -5.191584    0.229841    0.222553
  C     -6.573076   -0.286307   -0.105517
  C     -7.147140    0.380770   -1.361330
  H     -7.257047   -0.054164    0.728517
  H     -6.559343   -1.374260   -0.233267
  C     -5.086971    1.704339    0.254725
  C     -5.705388    2.402363   -0.935343
  C     -7.128183    1.897822   -1.212071
  H     -5.085342    2.195538   -1.820882
  H     -5.703476    3.486545   -0.781160
  H     -7.526620    2.363665   -2.121047
  H     -7.787864    2.177602   -0.376764
  O     -8.462381   -0.109596   -1.652747
  H     -6.538892    0.092427   -2.230117
  C     -4.159079   -0.623609    0.420751
  C     -4.535868    2.380628    1.269216
  H     -4.120286    1.867840    2.132130
  H     -4.498894    3.467469    1.262190
  C     -2.778780   -0.262398    0.646710
  H     -4.394858   -1.685322    0.362014
  C     -1.764306   -1.107398    0.930654
  H     -2.544991    0.796955    0.568064
  C     -1.889142   -2.596691    1.131807
  C     -0.887828   -3.382242    0.263576
  H     -2.904980   -2.955981    0.945502
  H     -1.666712   -2.811475    2.189475
  C      0.549677   -2.862152    0.400601
  H     -1.202849   -3.328521   -0.786142
  H     -0.922882   -4.441886    0.545009
  C      0.638374   -1.354142    0.126409
  H      1.199859   -3.429356   -0.273590
  H      0.906275   -3.050551    1.424520
  C     -0.350470   -0.643840    1.103482
  H     -0.034843   -0.978598    2.109496
  C      0.011751    0.832369    0.985792
  H     -9.033333    0.130043   -0.910539
  C      1.552007    0.812170    0.833356
  H     -0.320368    1.411175    1.854284
  H     -0.459155    1.277243    0.101881
  C      1.968771   -0.664754    0.544689
  H      2.045354    1.184814    1.735125
  H      1.877880    1.462369    0.012603
  H      2.267404   -1.140470    1.492167
  C      3.160055   -0.744856   -0.420643
  C      0.281073   -1.037618   -1.332675
  H     -0.775803   -1.237511   -1.534066
  H      0.876081   -1.647357   -2.020969
  H      0.465349    0.013490   -1.576808
  H      2.865537   -0.234929   -1.351558
  C      3.574611   -2.180145   -0.794710
  C      4.393529   -0.031883    0.089292
  C      4.706115    0.248159    1.354226
  H      5.124111    0.218037   -0.685451
  H      4.011223   -0.013456    2.153703
  C      5.981759    0.916670    1.787452
  C      6.729228    0.024591    2.789533
  C      5.711069    2.351114    2.321652
  H      6.615102    1.033938    0.895316
  H      5.123271    2.852706    1.537804
  C      7.010443    3.140304    2.503713
  C      4.886688    2.376890    3.611084
  H      6.977168   -0.935612    2.325232
  H      6.113486   -0.183670    3.671563
  H      7.662642    0.486546    3.127228
  H      6.792380    4.187538    2.741225
  H      7.621136    3.118307    1.593736
  H      7.611552    2.735787    3.325993
  H      5.441872    1.932303    4.445115
  H      3.940272    1.836510    3.504620
  H      4.650310    3.410387    3.887814
  H      4.512119   -2.169390   -1.361930
  H      2.820950   -2.679304   -1.409299
  H      3.736959   -2.776700    0.110670

----------------------------
CARTESIAN COORDINATES (A.U.)
----------------------------
  NO LB      ZA    FRAG     MASS         X           Y           Z
   0 C     6.0000    0    12.011   -9.810673    0.434336    0.420564
   1 C     6.0000    0    12.011  -12.421314   -0.541042   -0.199399
   2 C     6.0000    0    12.011  -13.506137    0.719552   -2.572542
   3 H     1.0000    0     1.008  -13.713832   -0.102354    1.376698
   4 H     1.0000    0     1.008  -12.395361   -2.596974   -0.440811
   5 C     6.0000    0    12.011   -9.612982    3.220733    0.481361
   6 C     6.0000    0    12.011  -10.781620    4.539808   -1.767542
   7 C     6.0000    0    12.011  -13.470314    3.586363   -2.290483
   8 H     1.0000    0     1.008   -9.609903    4.148965   -3.440968
   9 H     1.0000    0     1.008  -10.778008    6.588615   -1.476179
  10 H     1.0000    0     1.008  -14.223250    4.466679   -4.008199
  11 H     1.0000    0     1.008  -14.716930    4.115071   -0.711982
  12 O     8.0000    0    15.999  -15.991583   -0.207107   -3.123239
  13 H     1.0000    0     1.008  -12.356715    0.174661   -4.214311
  14 C     6.0000    0    12.011   -7.859521   -1.178449    0.795104
  15 C     6.0000    0    12.011   -8.571549    4.498735    2.398471
  16 H     1.0000    0     1.008   -7.786211    3.529706    4.029141
  17 H     1.0000    0     1.008   -8.501678    6.552566    2.385194
  18 C     6.0000    0    12.011   -5.251134   -0.495861    1.222104
  19 H     1.0000    0     1.008   -8.305077   -3.184796    0.684108
  20 C     6.0000    0    12.011   -3.334055   -2.092678    1.758682
  21 H     1.0000    0     1.008   -4.809336    1.506027    1.073486
  22 C     6.0000    0    12.011   -3.569960   -4.907035    2.138804
  23 C     6.0000    0    12.011   -1.677751   -6.391510    0.498087
  24 H     1.0000    0     1.008   -5.489616   -5.585995    1.786740
  25 H     1.0000    0     1.008   -3.149629   -5.312918    4.137507
  26 C     6.0000    0    12.011    1.038739   -5.408683    0.757027
  27 H     1.0000    0     1.008   -2.273055   -6.289993   -1.485593
  28 H     1.0000    0     1.008   -1.743993   -8.393949    1.029919
  29 C     6.0000    0    12.011    1.206352   -2.558957    0.238879
  30 H     1.0000    0     1.008    2.267405   -6.480543   -0.517009
  31 H     1.0000    0     1.008    1.712611   -5.764707    2.691953
  32 C     6.0000    0    12.011   -0.662293   -1.216682    2.085278
  33 H     1.0000    0     1.008   -0.065844   -1.849283    3.986369
  34 C     6.0000    0    12.011    0.022207    1.572949    1.862878
  35 H     1.0000    0     1.008  -17.070525    0.245746   -1.720669
  36 C     6.0000    0    12.011    2.932868    1.534778    1.574815
  37 H     1.0000    0     1.008   -0.605408    2.666735    3.504088
  38 H     1.0000    0     1.008   -0.867678    2.413639    0.192527
  39 C     6.0000    0    12.011    3.720437   -1.256202    1.029313
  40 H     1.0000    0     1.008    3.865160    2.238975    3.278911
  41 H     1.0000    0     1.008    3.548678    2.763478    0.023815
  42 H     1.0000    0     1.008    4.284773   -2.155175    2.819788
  43 C     6.0000    0    12.011    5.971638   -1.407574   -0.794901
  44 C     6.0000    0    12.011    0.531151   -1.960813   -2.518391
  45 H     1.0000    0     1.008   -1.466055   -2.338557   -2.898965
  46 H     1.0000    0     1.008    1.655553   -3.113053   -3.819078
  47 H     1.0000    0     1.008    0.879383    0.025492   -2.979735
  48 H     1.0000    0     1.008    5.415079   -0.443951   -2.554074
  49 C     6.0000    0    12.011    6.755035   -4.119876   -1.501784
  50 C     6.0000    0    12.011    8.302566   -0.060250    0.168738
  51 C     6.0000    0    12.011    8.893269    0.468953    2.559116
  52 H     1.0000    0     1.008    9.683167    0.412030   -1.295314
  53 H     1.0000    0     1.008    7.580113   -0.025429    4.069909
  54 C     6.0000    0    12.011   11.303887    1.732254    3.377795
  55 C     6.0000    0    12.011   12.716398    0.046471    5.271454
  56 C     6.0000    0    12.011   10.792357    4.442961    4.387287
  57 H     1.0000    0     1.008   12.500731    1.953860    1.691901
  58 H     1.0000    0     1.008    9.681579    5.390834    2.906028
  59 C     6.0000    0    12.011   13.247817    5.934314    4.731332
  60 C     6.0000    0    12.011    9.234502    4.491671    6.823961
  61 H     1.0000    0     1.008   13.184936   -1.768051    4.394052
  62 H     1.0000    0     1.008   11.552813   -0.347086    6.938249
  63 H     1.0000    0     1.008   14.480295    0.919439    5.909605
  64 H     1.0000    0     1.008   12.835738    7.913300    5.180164
  65 H     1.0000    0     1.008   14.401860    5.892747    3.011724
  66 H     1.0000    0     1.008   14.383748    5.169889    6.285216
  67 H     1.0000    0     1.008   10.283647    3.651524    8.400051
  68 H     1.0000    0     1.008    7.446035    3.470501    6.622772
  69 H     1.0000    0     1.008    8.787812    6.444697    7.346903
  70 H     1.0000    0     1.008    8.526669   -4.099553   -2.573675
  71 H     1.0000    0     1.008    5.330824   -5.063151   -2.663189
  72 H     1.0000    0     1.008    7.061828   -5.247202    0.209136

--------------------------------
INTERNAL COORDINATES (ANGSTROEM)
--------------------------------
 C      0   0   0     0.000000000000     0.00000000     0.00000000
 C      1   0   0     1.510813673435     0.00000000     0.00000000
 C      2   1   0     1.533495250800   111.80942394     0.00000000
 H      2   1   3     1.103322344440   109.31890666   241.47753276
 H      2   1   3     1.095513453507   110.67928185   122.94642727
 C      1   2   3     1.478554428808   114.21242124    50.21242240
 C      6   1   2     1.511932300710   114.47794280   312.16008240
 C      3   2   1     1.524494094617   110.36792756   305.21545055
 H      7   6   1     1.100641705850   108.42777322   290.04977097
 H      7   6   1     1.095092272193   110.21484718   172.80507609
 H      8   3   2     1.096357119129   109.70235830   179.15941102
 H      8   3   2     1.100542579866   108.65306309   296.61330064
 O      3   2   1     1.433611642848   111.16858026   180.53936912
 H      3   2   1     1.099044086556   109.02904866    65.36093021
 C      1   2   3     1.354151050648   120.90899577   232.16489816
 C      6   1   2     1.338010810280   123.34625517   129.88023286
 H     16   6   1     1.086407106619   121.41393808     0.66523301
 H     16   6   1     1.087492167116   120.94709238   181.35170163
 C     15   1   2     1.444560842734   126.43119880   175.38086785
 H     15   1   2     1.089162938151   116.19401230   358.04537124
 C     19  15   1     1.350483761637   126.45622634   175.36656927
 H     19  15   1     1.087691297531   115.95104578   354.73902005
 C     21  19  15     1.507992591634   125.71845909   356.93685982
 C     23  21  19     1.540630513630   111.99896521   128.64337827
 H     23  21  19     1.093492452242   112.25158276     4.46507409
 H     23  21  19     1.101938566895   107.68714357   247.33851570
 C     24  23  21     1.534825383276   112.68304377    50.44898571
 H     24  23  21     1.097284018474   109.12142011   288.28825137
 H     24  23  21     1.096941385310   109.09869466   172.33447295
 C     27  24  23     1.535299308872   111.77733207   306.17246363
 H     27  24  23     1.094983869773   109.00393333   182.61538012
 H     27  24  23     1.100484662009   109.18046182    66.09322208
 C     21  19  15     1.497893868066   122.66048194   177.83848116
 H     33  21  19     1.106231152935   106.29506430   123.28418755
 C     33  21  19     1.524548338836   120.99831302     0.95979007
 H     13   3   2     0.966584722883   107.51935170    62.64969273
 C     35  33  21     1.547912105252   103.37859135   195.22626002
 H     35  33  21     1.095261549634   112.23764679    73.44421417
 H     35  33  21     1.095885866065   110.68606850   313.79071685
 C     30  27  24     1.555689334964   115.89036268   166.73120568
 H     37  35  33     1.093363421742   111.30416450   251.37398871
 H     37  35  33     1.096626190859   111.20202130   133.01964689
 H     40  30  27     1.101454920494   105.76876914   321.85043600
 C     40  30  27     1.535396185893   118.12232033    82.76285790
 C     30  27  24     1.535180079326   111.02708314   294.98284774
 H     45  30  27     1.094304175726   111.22510372    67.55137547
 H     45  30  27     1.095246544254   110.85863410   307.49785266
 H     45  30  27     1.094708171855   111.76172545   187.42017557
 H     44  40  30     1.101529881128   107.44181496    62.23045037
 C     44  40  30     1.540076799310   114.21613319   303.28625641
 C     44  40  30     1.513216068007   113.32805238   179.64268306
 C     51  44  40     1.332738109997   127.59184410    23.49387477
 H     51  44  40     1.093817978746   114.41932683   199.54874926
 H     52  51  44     1.091092280296   119.71549579   357.61579574
 C     52  51  44     1.503947770100   124.45410600   177.54477608
 C     55  52  51     1.535799470428   110.03388441   237.38266996
 C     55  52  51     1.554436716023   111.19114931   110.93709058
 H     55  52  51     1.100355721255   107.57939227   354.93332934
 H     57  55  52     1.100690861461   105.59221642   307.98318720
 C     57  55  52     1.531123218628   111.63700807   191.29683998
 C     57  55  52     1.530654655428   113.50512658    65.77402382
 H     56  55  52     1.095007292277   110.05282820    60.29447513
 H     56  55  52     1.095668143471   111.23240690   301.17598288
 H     56  55  52     1.094852507701   111.78349256   180.20573347
 H     60  57  55     1.095747482632   110.45668192   171.89879685
 H     60  57  55     1.096124364149   111.33089325    51.84141601
 H     60  57  55     1.095951340974   111.37261279   291.17328927
 H     61  57  55     1.096126666505   111.18362532    66.19504311
 H     61  57  55     1.095010889700   112.04158556   305.03581588
 H     61  57  55     1.095704845637   110.17137155   185.19149617
 H     50  44  40     1.095799327981   110.29630987   188.28419393
 H     50  44  40     1.093107268874   112.11980082    68.32274645
 H     50  44  40     1.096334159073   110.26668787   307.26321833

---------------------------
INTERNAL COORDINATES (A.U.)
---------------------------
 C      0   0   0     0.000000000000     0.00000000     0.00000000
 C      1   0   0     2.855024082175     0.00000000     0.00000000
 C      2   1   0     2.897886051681   111.80942394     0.00000000
 H      2   1   3     2.084977068427   109.31890666   241.47753276
 H      2   1   3     2.070220403154   110.67928185   122.94642727
 C      1   2   3     2.794062944544   114.21242124    50.21242240
 C      6   1   2     2.857137981372   114.47794280   312.16008240
 C      3   2   1     2.880876331606   110.36792756   305.21545055
 H      7   6   1     2.079911395627   108.42777322   290.04977097
 H      7   6   1     2.069424485818   110.21484718   172.80507609
 H      8   3   2     2.071814700128   109.70235830   179.15941102
 H      8   3   2     2.079724074665   108.65306309   296.61330064
 O      3   2   1     2.709133387384   111.16858026   180.53936912
 H      3   2   1     2.076892332697   109.02904866    65.36093021
 C      1   2   3     2.558974629686   120.90899577   232.16489816
 C      6   1   2     2.528473995655   123.34625517   129.88023286
 H     16   6   1     2.053011901456   121.41393808     0.66523301
 H     16   6   1     2.055062368634   120.94709238   181.35170163
 C     15   1   2     2.729824376553   126.43119880   175.38086785
 H     15   1   2     2.058219668322   116.19401230   358.04537124
 C     19  15   1     2.552044457802   126.45622634   175.36656927
 H     19  15   1     2.055438670583   115.95104578   354.73902005
 C     21  19  15     2.849693010171   125.71845909   356.93685982
 C     23  21  19     2.911369744322   111.99896521   128.64337827
 H     23  21  19     2.066401264248   112.25158276     4.46507409
 H     23  21  19     2.082362107837   107.68714357   247.33851570
 C     24  23  21     2.900399637782   112.68304377    50.44898571
 H     24  23  21     2.073566286045   109.12142011   288.28825137
 H     24  23  21     2.072918803201   109.09869466   172.33447295
 C     27  24  23     2.901295227367   111.77733207   306.17246363
 H     27  24  23     2.069219634933   109.00393333   182.61538012
 H     27  24  23     2.079614625777   109.18046182    66.09322208
 C     21  19  15     2.830609188325   122.66048194   177.83848116
 H     33  21  19     2.090473919858   106.29506430   123.28418755
 C     33  21  19     2.880978838325   120.99831302     0.95979007
 H     13   3   2     1.826580411481   107.51935170    62.64969273
 C     35  33  21     2.925129958308   103.37859135   195.22626002
 H     35  33  21     2.069744373823   112.23764679    73.44421417
 H     35  33  21     2.070924160897   110.68606850   313.79071685
 C     30  27  24     2.939826792544   115.89036268   166.73120568
 H     37  35  33     2.066157431940   111.30416450   251.37398871
 H     37  35  33     2.072323172010   111.20202130   133.01964689
 H     40  30  27     2.081448148594   105.76876914   321.85043600
 C     40  30  27     2.901478298405   118.12232033    82.76285790
 C     30  27  24     2.901069916178   111.02708314   294.98284774
 H     45  30  27     2.067935199328   111.22510372    67.55137547
 H     45  30  27     2.069716017763   110.85863410   307.49785266
 H     45  30  27     2.068698641372   111.76172545   187.42017557
 H     44  40  30     2.081589803663   107.44181496    62.23045037
 C     44  40  30     2.910323375903   114.21613319   303.28625641
 C     44  40  30     2.859563949982   113.32805238   179.64268306
 C     51  44  40     2.518510036134   127.59184410    23.49387477
 H     51  44  40     2.067016420190   114.41932683   199.54874926
 H     52  51  44     2.061865596596   119.71549579   357.61579574
 C     52  51  44     2.842049405210   124.45410600   177.54477608
 C     55  52  51     2.902240395731   110.03388441   237.38266996
 C     55  52  51     2.937459685795   111.19114931   110.93709058
 H     55  52  51     2.079370963066   107.57939227   354.93332934
 H     57  55  52     2.080004286272   105.59221642   307.98318720
 C     57  55  52     2.893403560496   111.63700807   191.29683998
 C     57  55  52     2.892518104371   113.50512658    65.77402382
 H     56  55  52     2.069263897050   110.05282820    60.29447513
 H     56  55  52     2.070512724823   111.23240690   301.17598288
 H     56  55  52     2.068971396593   111.78349256   180.20573347
 H     60  57  55     2.070662654108   110.45668192   171.89879685
 H     60  57  55     2.071374856960   111.33089325    51.84141601
 H     60  57  55     2.071047890545   111.37261279   291.17328927
 H     61  57  55     2.071379207783   111.18362532    66.19504311
 H     61  57  55     2.069270695194   112.04158556   305.03581588
 H     61  57  55     2.070582081865   110.17137155   185.19149617
 H     50  44  40     2.070760627618   110.29630987   188.28419393
 H     50  44  40     2.065673373170   112.11980082    68.32274645
 H     50  44  40     2.071771311911   110.26668787   307.26321833

---------------------
BASIS SET INFORMATION
---------------------
There are 3 groups of distinct atoms

 Group   1 Type C   : 8s5p1d contracted to 3s3p1d pattern {521/311/1}
 Group   2 Type H   : 4s2p contracted to 2s1p pattern {31/2}
 Group   3 Type O   : 8s5p1d contracted to 3s3p1d pattern {521/311/1}

Atom   0C    basis set group =>   1
Atom   1C    basis set group =>   1
Atom   2C    basis set group =>   1
Atom   3H    basis set group =>   2
Atom   4H    basis set group =>   2
Atom   5C    basis set group =>   1
Atom   6C    basis set group =>   1
Atom   7C    basis set group =>   1
Atom   8H    basis set group =>   2
Atom   9H    basis set group =>   2
Atom  10H    basis set group =>   2
Atom  11H    basis set group =>   2
Atom  12O    basis set group =>   3
Atom  13H    basis set group =>   2
Atom  14C    basis set group =>   1
Atom  15C    basis set group =>   1
Atom  16H    basis set group =>   2
Atom  17H    basis set group =>   2
Atom  18C    basis set group =>   1
Atom  19H    basis set group =>   2
Atom  20C    basis set group =>   1
Atom  21H    basis set group =>   2
Atom  22C    basis set group =>   1
Atom  23C    basis set group =>   1
Atom  24H    basis set group =>   2
Atom  25H    basis set group =>   2
Atom  26C    basis set group =>   1
Atom  27H    basis set group =>   2
Atom  28H    basis set group =>   2
Atom  29C    basis set group =>   1
Atom  30H    basis set group =>   2
Atom  31H    basis set group =>   2
Atom  32C    basis set group =>   1
Atom  33H    basis set group =>   2
Atom  34C    basis set group =>   1
Atom  35H    basis set group =>   2
Atom  36C    basis set group =>   1
Atom  37H    basis set group =>   2
Atom  38H    basis set group =>   2
Atom  39C    basis set group =>   1
Atom  40H    basis set group =>   2
Atom  41H    basis set group =>   2
Atom  42H    basis set group =>   2
Atom  43C    basis set group =>   1
Atom  44C    basis set group =>   1
Atom  45H    basis set group =>   2
Atom  46H    basis set group =>   2
Atom  47H    basis set group =>   2
Atom  48H    basis set group =>   2
Atom  49C    basis set group =>   1
Atom  50C    basis set group =>   1
Atom  51C    basis set group =>   1
Atom  52H    basis set group =>   2
Atom  53H    basis set group =>   2
Atom  54C    basis set group =>   1
Atom  55C    basis set group =>   1
Atom  56C    basis set group =>   1
Atom  57H    basis set group =>   2
Atom  58H    basis set group =>   2
Atom  59C    basis set group =>   1
Atom  60C    basis set group =>   1
Atom  61H    basis set group =>   2
Atom  62H    basis set group =>   2
Atom  63H    basis set group =>   2
Atom  64H    basis set group =>   2
Atom  65H    basis set group =>   2
Atom  66H    basis set group =>   2
Atom  67H    basis set group =>   2
Atom  68H    basis set group =>   2
Atom  69H    basis set group =>   2
Atom  70H    basis set group =>   2
Atom  71H    basis set group =>   2
Atom  72H    basis set group =>   2

-------------------------
BASIS SET IN INPUT FORMAT
-------------------------

 # Basis set for element : H 
 NewGTO H 
 S 3 
   1      12.2518000000      0.0372173893
   2       1.8687100000      0.2538082070
   3       0.4182080000      0.7973867639
 S 1 
   1       0.1061000000      1.0000000000
 P 2 
   1       9.0000000000      0.0402678705
   2       1.0000000000      0.9880231245
  end;

 # Basis set for element : C 
 NewGTO C 
 S 5 
   1    1243.2000000000      0.0056300977
   2     187.1450000000      0.0419506039
   3      42.5126000000      0.1846643605
   4      11.7393000000      0.4665574214
   5       3.5054800000      0.4482347783
 S 2 
   1       5.3908900000     -0.1481148174
   2       0.4933410000      1.0519817143
 S 1 
   1       0.1497410000      1.0000000000
 P 3 
   1      59.6736000000      0.0113906672
   2       9.1805600000      0.1672414929
   3       1.9365800000      0.9041087436
 P 1 
   1       0.5262960000      1.0000000000
 P 1 
   1       0.1363190000      1.0000000000
 D 1 
   1       0.8000000000      1.0000000000
  end;

 # Basis set for element : O 
 NewGTO O 
 S 5 
   1    2288.6400000000      0.0054511382
   2     344.4160000000      0.0407189228
   3      78.2538000000      0.1813694209
   4      21.7195000000      0.4655368202
   5       6.5590700000      0.4512113212
 S 2 
   1      10.4656000000     -0.1502112012
   2       0.9643510000      1.0528679834
 S 1 
   1       0.2851270000      1.0000000000
 P 3 
   1     110.8840000000      0.0113058003
   2      17.0590000000      0.1699226452
   3       3.6899900000      0.9008060328
 P 1 
   1       0.9929960000      1.0000000000
 P 1 
   1       0.2449240000      1.0000000000
 D 1 
   1       1.0000000000      1.0000000000
  end;

---------------------------------
AUXILIARY/J BASIS SET INFORMATION
---------------------------------
There are 3 groups of distinct atoms

 Group   1 Type C   : 12s5p4d2f1g contracted to 6s4p3d1f1g pattern {711111/2111/211/2/1}
 Group   2 Type H   : 5s2p1d contracted to 3s1p1d pattern {311/2/1}
 Group   3 Type O   : 12s5p4d2f1g contracted to 6s4p3d1f1g pattern {711111/2111/211/2/1}

Atom   0C    basis set group =>   1
Atom   1C    basis set group =>   1
Atom   2C    basis set group =>   1
Atom   3H    basis set group =>   2
Atom   4H    basis set group =>   2
Atom   5C    basis set group =>   1
Atom   6C    basis set group =>   1
Atom   7C    basis set group =>   1
Atom   8H    basis set group =>   2
Atom   9H    basis set group =>   2
Atom  10H    basis set group =>   2
Atom  11H    basis set group =>   2
Atom  12O    basis set group =>   3
Atom  13H    basis set group =>   2
Atom  14C    basis set group =>   1
Atom  15C    basis set group =>   1
Atom  16H    basis set group =>   2
Atom  17H    basis set group =>   2
Atom  18C    basis set group =>   1
Atom  19H    basis set group =>   2
Atom  20C    basis set group =>   1
Atom  21H    basis set group =>   2
Atom  22C    basis set group =>   1
Atom  23C    basis set group =>   1
Atom  24H    basis set group =>   2
Atom  25H    basis set group =>   2
Atom  26C    basis set group =>   1
Atom  27H    basis set group =>   2
Atom  28H    basis set group =>   2
Atom  29C    basis set group =>   1
Atom  30H    basis set group =>   2
Atom  31H    basis set group =>   2
Atom  32C    basis set group =>   1
Atom  33H    basis set group =>   2
Atom  34C    basis set group =>   1
Atom  35H    basis set group =>   2
Atom  36C    basis set group =>   1
Atom  37H    basis set group =>   2
Atom  38H    basis set group =>   2
Atom  39C    basis set group =>   1
Atom  40H    basis set group =>   2
Atom  41H    basis set group =>   2
Atom  42H    basis set group =>   2
Atom  43C    basis set group =>   1
Atom  44C    basis set group =>   1
Atom  45H    basis set group =>   2
Atom  46H    basis set group =>   2
Atom  47H    basis set group =>   2
Atom  48H    basis set group =>   2
Atom  49C    basis set group =>   1
Atom  50C    basis set group =>   1
Atom  51C    basis set group =>   1
Atom  52H    basis set group =>   2
Atom  53H    basis set group =>   2
Atom  54C    basis set group =>   1
Atom  55C    basis set group =>   1
Atom  56C    basis set group =>   1
Atom  57H    basis set group =>   2
Atom  58H    basis set group =>   2
Atom  59C    basis set group =>   1
Atom  60C    basis set group =>   1
Atom  61H    basis set group =>   2
Atom  62H    basis set group =>   2
Atom  63H    basis set group =>   2
Atom  64H    basis set group =>   2
Atom  65H    basis set group =>   2
Atom  66H    basis set group =>   2
Atom  67H    basis set group =>   2
Atom  68H    basis set group =>   2
Atom  69H    basis set group =>   2
Atom  70H    basis set group =>   2
Atom  71H    basis set group =>   2
Atom  72H    basis set group =>   2

-------------------------------------
AUXILIARY/J BASIS SET IN INPUT FORMAT
-------------------------------------

 # Auxiliary/J basis set for element : H 
 NewAuxJGTO H 
 S 3 
   1      15.6752927000      0.1007184237
   2       3.6063578000      0.3404257499
   3       1.2080016000      0.6491996172
 S 1 
   1       0.4726794000      1.0000000000
 S 1 
   1       0.2018100000      1.0000000000
 P 2 
   1       2.0281365000      0.5596620919
   2       0.5358730000      0.5596620919
 D 1 
   1       2.2165124000      1.0000000000
  end;

 # Auxiliary/J basis set for element : C 
 NewAuxJGTO C 
 S 7 
   1    1861.0916331000      0.0134602335
   2     642.9939764000      0.0299160374
   3     235.1105725000      0.1008649584
   4      90.7028894000      0.2370970548
   5      36.7794552000      0.3924037254
   6      15.6046273000      0.3195862154
   7       6.8907294000      0.0530104441
 S 1 
   1       3.1478850000     -1.0000000000
 S 1 
   1       1.4777287000      1.0000000000
 S 1 
   1       0.7076466000      1.0000000000
 S 1 
   1       0.3430122000      1.0000000000
 S 1 
   1       0.1669453000      1.0000000000
 P 2 
   1      13.5472892000     -0.6769313712
   2       5.4669419000     -0.3779500978
 P 1 
   1       2.1751721000      1.0000000000
 P 1 
   1       0.8582194000      1.0000000000
 P 1 
   1       0.3376720000      1.0000000000
 D 2 
   1       5.9287253000     -0.3533329857
   2       1.9809209000     -0.7456525731
 D 1 
   1       0.8055417000     -1.0000000000
 D 1 
   1       0.3531244000     -1.0000000000
 F 2 
   1       1.6755626000      0.6311076882
   2       0.5997536000      0.4968166032
 G 1 
   1       1.0024600000     -1.0000000000
  end;

 # Auxiliary/J basis set for element : O 
 NewAuxJGTO O 
 S 7 
   1    2876.8216605000      0.0168151159
   2    1004.7443032000      0.0340137548
   3     369.7579954000      0.1194951309
   4     142.9442404000      0.2664627624
   5      57.8366425000      0.4202764046
   6      24.3864983000      0.2765077335
   7      10.6622662000      0.0057008815
 S 1 
   1       4.8070437000     -1.0000000000
 S 1 
   1       2.2210770000      1.0000000000
 S 1 
   1       1.0447795000      1.0000000000
 S 1 
   1       0.4968425000      1.0000000000
 S 1 
   1       0.2371384000      1.0000000000
 P 2 
   1      64.2613382000     -0.2731534179
   2      16.3006076000     -0.8168011598
 P 1 
   1       4.3550542000      1.0000000000
 P 1 
   1       1.2019554000      1.0000000000
 P 1 
   1       0.3354196000      1.0000000000
 D 2 
   1       9.2146611000     -0.4661230638
   2       2.8435251000     -0.6600908911
 D 1 
   1       0.9955759000     -1.0000000000
 D 1 
   1       0.3649441000     -1.0000000000
 F 2 
   1       2.6420115000      0.5931563945
   2       0.7345613000      0.5931563945
 G 1 
   1       1.3931000000     -1.0000000000
  end;



           ************************************************************
           *        Program running with 4 parallel MPI-processes     *
           *              working on a common directory               *
           ************************************************************
------------------------------------------------------------------------------
                           ORCA GTO INTEGRAL CALCULATION
                           -- RI-GTO INTEGRALS CHOSEN --
------------------------------------------------------------------------------
------------------------------------------------------------------------------
                   ___                                                        
                  /   \      - P O W E R E D   B Y -                         
                 /     \                                                     
                 |  |  |   _    _      __       _____    __    __             
                 |  |  |  | |  | |    /  \     |  _  \  |  |  /  |          
                  \  \/   | |  | |   /    \    | | | |  |  | /  /          
                 / \  \   | |__| |  /  /\  \   | |_| |  |  |/  /          
                |  |  |   |  __  | /  /__\  \  |    /   |      \           
                |  |  |   | |  | | |   __   |  |    \   |  |\   \          
                \     /   | |  | | |  |  |  |  | |\  \  |  | \   \       
                 \___/    |_|  |_| |__|  |__|  |_| \__\ |__|  \__/        
                                                                              
                      - O R C A' S   B I G   F R I E N D -                    
                                      &                                       
                       - I N T E G R A L  F E E D E R -                       
                                                                              
 v1 FN, 2020, v2 2021                                                         
------------------------------------------------------------------------------


Reading SHARK input file inpS.SHARKINP.tmp ... ok
----------------------
SHARK INTEGRAL PACKAGE
----------------------

Number of atoms                             ...     73
Number of basis functions                   ...    713
Number of shells                            ...    335
Maximum angular momentum                    ...      2
Integral batch strategy                     ... SHARK/LIBINT Hybrid
RI-J (if used) integral strategy            ... SPLIT-RIJ (Revised 2003 algorithm where possible)
Printlevel                                  ...      1
Contraction scheme used                     ... SEGMENTED contraction
Coulomb Range Separation                    ... NOT USED
Exchange Range Separation                   ... NOT USED
Finite Nucleus Model                        ... NOT USED
Auxiliary Coulomb fitting basis             ... AVAILABLE
   # of basis functions in Aux-J            ...   1905
   # of shells in Aux-J                     ...    655
   Maximum angular momentum in Aux-J        ...      4
Auxiliary J/K fitting basis                 ... NOT available
Auxiliary Correlation fitting basis         ... NOT available
Auxiliary 'external' fitting basis          ... NOT available
Integral threshold                          ...     3.000000e-11
Primitive cut-off                           ...     1.000000e-12
Primitive pair pre-selection threshold      ...     1.000000e-12

Calculating pre-screening integrals         ... done (  0.0 sec) Dimension = 335
Organizing shell pair data                  ... done (  0.1 sec)
Shell pair information
Total number of shell pairs                 ...     56280
Shell pairs after pre-screening             ...     31675
Total number of primitive shell pairs       ...    225367
Primitive shell pairs kept                  ...     74490
          la=0 lb=0:   9697 shell pairs
          la=1 lb=0:  13011 shell pairs
          la=1 lb=1:   4256 shell pairs
          la=2 lb=0:   2766 shell pairs
          la=2 lb=1:   1748 shell pairs
          la=2 lb=2:    197 shell pairs

Calculating one electron integrals          ... done (  0.1 sec)
Calculating RI/J V-Matrix + Cholesky decomp.... done (  0.1 sec)
Calculating Nuclear repulsion               ... done (  0.0 sec) ENN=   2777.199298645997 Eh

SHARK setup successfully completed in   0.6 seconds

Maximum memory used throughout the entire GTOINT-calculation: 61.2 MB


           ************************************************************
           *        Program running with 4 parallel MPI-processes     *
           *              working on a common directory               *
           ************************************************************
-------------------------------------------------------------------------------
                                 ORCA SCF
-------------------------------------------------------------------------------

------------
SCF SETTINGS
------------
Hamiltonian:
 Density Functional     Method          .... DFT(GTOs)
 Exchange Functional    Exchange        .... revTPSS
 Correlation Functional Correlation     .... revTPSS
 LDA part of GGA corr.  LDAOpt          .... PW91-LDA
 Gradients option       PostSCFGGA      .... off
   Density functional embedding theory  .... OFF
 RI-approximation to the Coulomb term is turned on
   Number of AuxJ basis functions       .... 1905


General Settings:
 Integral files         IntName         .... inpS
 Hartree-Fock type      HFTyp           .... RHF
 Total Charge           Charge          ....    0
 Multiplicity           Mult            ....    1
 Number of Electrons    NEL             ....  220
 Basis Dimension        Dim             ....  713
 Nuclear Repulsion      ENuc            ....   2777.1992986460 Eh

Convergence Acceleration:
 DIIS                   CNVDIIS         .... on
   Start iteration      DIISMaxIt       ....    12
   Startup error        DIISStart       ....  0.200000
   # of expansion vecs  DIISMaxEq       ....     5
   Bias factor          DIISBfac        ....   1.050
   Max. coefficient     DIISMaxC        ....  10.000
 Trust-Rad. Augm. Hess. CNVTRAH         .... auto
   Auto Start mean grad. ratio tolernc. ....  1.125000
   Auto Start start iteration           ....    20
   Auto Start num. interpolation iter.  ....    10
   Max. Number of Micro iterations      ....    16
   Max. Number of Macro iterations      .... Maxiter - #DIIS iter
   Number of Davidson start vectors     ....     2
   Converg. threshold I  (grad. norm)   ....   1.000e-04
   Converg. threshold II (energy diff.) ....   1.000e-07
   Grad. Scal. Fac. for Micro threshold ....   0.100
   Minimum threshold for Micro iter.    ....   0.010
   NR start threshold (gradient norm)   ....   0.001
   Initial trust radius                 ....   0.400
   Minimum AH scaling param. (alpha)    ....   1.000
   Maximum AH scaling param. (alpha)    .... 1000.000
   Orbital update algorithm             .... Taylor
   White noise on init. David. guess    .... on
   Maximum white noise                  ....   0.010
   Quad. conv. algorithm                .... NR
 SOSCF                  CNVSOSCF        .... off
 Level Shifting         CNVShift        .... on
   Level shift para.    LevelShift      ....    0.2500
   Turn off err/grad.   ShiftErr        ....    0.0010
 Zerner damping         CNVZerner       .... off
 Static damping         CNVDamp         .... on
   Fraction old density DampFac         ....    0.7000
   Max. Damping (<1)    DampMax         ....    0.9800
   Min. Damping (>=0)   DampMin         ....    0.0000
   Turn off err/grad.   DampErr         ....    0.1000
 Fernandez-Rico         CNVRico         .... off

SCF Procedure:
 Maximum # iterations   MaxIter         ....   125
 SCF integral mode      SCFMode         .... Direct
   Integral package                     .... SHARK and LIBINT hybrid scheme
 Reset frequency        DirectResetFreq ....    20
 Integral Threshold     Thresh          ....  3.000e-11 Eh
 Primitive CutOff       TCut            ....  1.000e-12 Eh

Convergence Tolerance:
 Convergence Check Mode ConvCheckMode   .... Total+1el-Energy
 Convergence forced     ConvForced      .... 0
 Energy Change          TolE            ....  1.000e-07 Eh
 1-El. energy change                    ....  1.000e-04 Eh
 DIIS Error             TolErr          ....  1.000e-07


Diagonalization of the overlap matrix:
Smallest eigenvalue                        ... 4.975e-04
Time for diagonalization                   ...    0.063 sec
Threshold for overlap eigenvalues          ... 1.000e-08
Number of eigenvalues below threshold      ... 0
Time for construction of square roots      ...    0.062 sec
Total time needed                          ...    0.127 sec

Time for model grid setup =    0.787 sec

------------------------------
INITIAL GUESS: MODEL POTENTIAL
------------------------------
Loading Hartree-Fock densities                     ... done
Calculating cut-offs                               ... done
Initializing the effective Hamiltonian             ... done
Setting up the integral package (SHARK)            ... done
Starting the Coulomb interaction                   ... done (   0.7 sec)
Reading the grid                                   ... done
Mapping shells                                     ... done
Starting the XC term evaluation                    ... done (   0.3 sec)
  promolecular density results
     # of electrons  =    219.979008469
     EX              =   -164.429891692
     EC              =     -7.324861320
     EX+EC           =   -171.754753012
Transforming the Hamiltonian                       ... done (   0.0 sec)
Diagonalizing the Hamiltonian                      ... done (   0.1 sec)
Back transforming the eigenvectors                 ... done (   0.0 sec)
Now organizing SCF variables                       ... done
                      ------------------
                      INITIAL GUESS DONE (   1.9 sec)
                      ------------------
-------------------
DFT GRID GENERATION
-------------------

General Integration Accuracy     IntAcc      ... 4.388
Radial Grid Type                 RadialGrid  ... OptM3 with GC (2021)
Angular Grid (max. ang.)         AngularGrid ... 4 (Lebedev-302)
Angular grid pruning method      GridPruning ... 4 (adaptive)
Weight generation scheme         WeightScheme... Becke
Basis function cutoff            BFCut       ... 1.0000e-11
Integration weight cutoff        WCut        ... 1.0000e-14
Angular grids for H and He will be reduced by one unit
Partially contracted basis set               ... off
Rotationally invariant grid construction     ... off

Total number of grid points                  ...   309922
Total number of batches                      ...     4878
Average number of points per batch           ...       63
Average number of grid points per atom       ...     4246
Time for grid setup =    2.979 sec


--------------------
CPCM SOLVATION MODEL
--------------------
CPCM parameters:
  Epsilon                                         ...       4.9000
  Refrac                                          ...       1.4500
  Rsolv                                           ...       1.3000
  Surface type                                    ... GAUSSIAN VDW
  Epsilon function type                           ...         CPCM
Radii:
 Radius for C  used is    3.8550 Bohr (=   2.0400 Ang.)
 Radius for H  used is    2.4944 Bohr (=   1.3200 Ang.)
 Radius for O  used is    3.4469 Bohr (=   1.8240 Ang.)
Calculating surface                               ...        done! (  0.0s)
GEPOL surface points                              ...         3650
GEPOL Volume                                      ...    3620.0364
GEPOL Surface-area                                ...    1797.1385
Calculating surface distance matrix               ...        done! (  0.1s)
Performing Cholesky decomposition & store         ...        done! (  0.5s)
Overall time for CPCM initialization              ...                 0.6s
--------------
SCF ITERATIONS
--------------
ITER       Energy         Delta-E        Max-DP      RMS-DP      [F,P]     Damp
               ***  Starting incremental Fock matrix formation  ***

  HOMO= 109 E= -1.879 eV LUMO=  7.827 eV gap=   9.706 eV
  0  -1167.5230477235   0.000000000000 0.05232827  0.00083247  0.2613368 0.7000

  HOMO= 109 E= -3.349 eV LUMO=  6.716 eV gap=  10.066 eV
  1  -1167.8958806640  -0.372832940483 0.02890846  0.00061522  0.1017037 0.7000
                               ***Turning on DIIS***

  HOMO= 109 E= -4.322 eV LUMO=  5.827 eV gap=  10.149 eV
  2  -1168.0422415515  -0.146360887485 0.05207537  0.00101519  0.0298908 0.0000

  HOMO= 109 E= -4.950 eV LUMO=  5.234 eV gap=  10.185 eV
  3  -1168.2392770141  -0.197035462641 0.02319035  0.00047502  0.0546347 0.0000

  HOMO= 109 E= -4.988 eV LUMO=  5.198 eV gap=  10.185 eV
  4  -1168.3063070196  -0.067030005453 0.00758192  0.00015341  0.0101432 0.0000

  HOMO= 109 E= -4.938 eV LUMO=  5.254 eV gap=  10.192 eV
  5  -1168.3093969334  -0.003089913778 0.00304831  0.00005681  0.0090679 0.0000

  HOMO= 109 E= -4.919 eV LUMO=  5.270 eV gap=  10.190 eV
  6  -1168.3096657964  -0.000268862992 0.00122099  0.00001931  0.0027902 0.0000

  HOMO= 109 E= -4.921 eV LUMO= -1.534 eV gap=   3.387 eV
  7  -1168.3096857840  -0.000019987637 0.00070518  0.00001175  0.0005918 0.0000

  HOMO= 109 E= -4.919 eV LUMO= -1.532 eV gap=   3.387 eV
  8  -1168.3096888466  -0.000003062617 0.00026197  0.00000287  0.0003969 0.0000

  HOMO= 109 E= -4.917 eV LUMO= -1.530 eV gap=   3.387 eV
  9  -1168.3096894547  -0.000000608101 0.00016123  0.00000158  0.0002589 0.0000

  HOMO= 109 E= -4.918 eV LUMO= -1.531 eV gap=   3.387 eV
 10  -1168.3096897166  -0.000000261853 0.00006439  0.00000070  0.0000991 0.0000

  HOMO= 109 E= -4.918 eV LUMO= -1.531 eV gap=   3.387 eV
 11  -1168.3096897516  -0.000000034976 0.00002520  0.00000027  0.0000352 0.0000

  HOMO= 109 E= -4.918 eV LUMO= -1.531 eV gap=   3.387 eV
 12  -1168.3096897405   0.000000011043 0.00001288  0.00000012  0.0000186 0.0000

  HOMO= 109 E= -4.918 eV LUMO= -1.531 eV gap=   3.387 eV
 13  -1168.3096897629  -0.000000022433 0.00000626  0.00000005  0.0000079 0.0000
                 **** Energy Check signals convergence ****

               *****************************************************
               *                     SUCCESS                       *
               *           SCF CONVERGED AFTER  14 CYCLES          *
               *****************************************************


----------------
TOTAL SCF ENERGY
----------------

Total Energy       :        -1168.30968978 Eh          -31791.32290 eV

Components:
Nuclear Repulsion  :         2777.19929865 Eh           75571.43489 eV
Electronic Energy  :        -3945.50898843 Eh         -107362.75779 eV
One Electron Energy:        -7100.78768571 Eh         -193222.25616 eV
Two Electron Energy:         3155.27869729 Eh           85859.49837 eV
CPCM Dielectric    :           -0.01056660 Eh              -0.28753 eV

Virial components:
Potential Energy   :        -2330.40923008 Eh          -63413.65904 eV
Kinetic Energy     :         1162.09954030 Eh           31622.33614 eV
Virial Ratio       :            2.00534390


DFT components:
N(Alpha)           :      110.000144692762 electrons
N(Beta)            :      110.000144692762 electrons
N(Total)           :      220.000289385525 electrons
E(X)               :     -169.582782696724 Eh       
E(C)               :       -7.441935382563 Eh       
E(XC)              :     -177.024718079287 Eh       
DFET-embed. en.    :        0.000000000000 Eh       
CPCM Solvation Model Properties:
Surface-charge          :           -0.04525457
Charge-correction       :           -0.00002225 Eh              -0.00061 eV
Free-energy (cav+disp)  :  This term is not implemented in the current solvation scheme

---------------
SCF CONVERGENCE
---------------

  Last Energy change         ...   -1.6436e-08  Tolerance :   1.0000e-07
  Last MAX-Density change    ...    2.9781e-06  Tolerance :   1.0000e-05
  Last RMS-Density change    ...    2.8143e-08  Tolerance :   1.0000e-06
  Last DIIS Error            ...    3.5547e-06  Tolerance :   1.0000e-07

             **** THE GBW FILE WAS UPDATED (inpS.gbw) ****
             **** DENSITY inpS.scfp WAS UPDATED ****
             **** ENERGY FILE WAS UPDATED (inpS.en.tmp) ****
             **** THE GBW FILE WAS UPDATED (inpS.gbw) ****
             **** DENSITY inpS.scfp WAS UPDATED ****
----------------
ORBITAL ENERGIES
----------------

  NO   OCC          E(Eh)            E(eV) 
   0   2.0000     -18.905509      -514.4450 
   1   2.0000     -10.057017      -273.6653 
   2   2.0000     -10.015879      -272.5459 
   3   2.0000     -10.013402      -272.4785 
   4   2.0000     -10.013389      -272.4782 
   5   2.0000     -10.011404      -272.4242 
   6   2.0000     -10.011317      -272.4218 
   7   2.0000     -10.010219      -272.3919 
   8   2.0000     -10.008729      -272.3514 
   9   2.0000     -10.008235      -272.3379 
  10   2.0000     -10.007763      -272.3251 
  11   2.0000     -10.007254      -272.3112 
  12   2.0000     -10.006808      -272.2991 
  13   2.0000     -10.006568      -272.2926 
  14   2.0000     -10.005289      -272.2578 
  15   2.0000     -10.004780      -272.2439 
  16   2.0000     -10.004068      -272.2245 
  17   2.0000     -10.001016      -272.1415 
  18   2.0000     -10.000009      -272.1141 
  19   2.0000      -9.998658      -272.0773 
  20   2.0000      -9.998580      -272.0752 
  21   2.0000      -9.998382      -272.0698 
  22   2.0000      -9.998364      -272.0693 
  23   2.0000      -9.998241      -272.0660 
  24   2.0000      -9.997047      -272.0335 
  25   2.0000      -9.995850      -272.0009 
  26   2.0000      -9.995678      -271.9962 
  27   2.0000      -9.995381      -271.9881 
  28   2.0000      -9.994623      -271.9675 
  29   2.0000      -0.955806       -26.0088 
  30   2.0000      -0.806972       -21.9588 
  31   2.0000      -0.790947       -21.5227 
  32   2.0000      -0.769729       -20.9454 
  33   2.0000      -0.756038       -20.5728 
  34   2.0000      -0.734199       -19.9786 
  35   2.0000      -0.727425       -19.7942 
  36   2.0000      -0.708482       -19.2788 
  37   2.0000      -0.707964       -19.2647 
  38   2.0000      -0.693618       -18.8743 
  39   2.0000      -0.675236       -18.3741 
  40   2.0000      -0.656789       -17.8721 
  41   2.0000      -0.653907       -17.7937 
  42   2.0000      -0.634779       -17.2732 
  43   2.0000      -0.629604       -17.1324 
  44   2.0000      -0.623294       -16.9607 
  45   2.0000      -0.616046       -16.7635 
  46   2.0000      -0.590103       -16.0575 
  47   2.0000      -0.588296       -16.0084 
  48   2.0000      -0.558637       -15.2013 
  49   2.0000      -0.548891       -14.9361 
  50   2.0000      -0.547412       -14.8958 
  51   2.0000      -0.537935       -14.6380 
  52   2.0000      -0.526257       -14.3202 
  53   2.0000      -0.509317       -13.8592 
  54   2.0000      -0.494045       -13.4437 
  55   2.0000      -0.475575       -12.9410 
  56   2.0000      -0.472881       -12.8677 
  57   2.0000      -0.463908       -12.6236 
  58   2.0000      -0.451160       -12.2767 
  59   2.0000      -0.444393       -12.0925 
  60   2.0000      -0.433618       -11.7994 
  61   2.0000      -0.429823       -11.6961 
  62   2.0000      -0.418265       -11.3816 
  63   2.0000      -0.415369       -11.3028 
  64   2.0000      -0.413652       -11.2560 
  65   2.0000      -0.409844       -11.1524 
  66   2.0000      -0.402030       -10.9398 
  67   2.0000      -0.396253       -10.7826 
  68   2.0000      -0.395458       -10.7610 
  69   2.0000      -0.389639       -10.6026 
  70   2.0000      -0.387855       -10.5541 
  71   2.0000      -0.382273       -10.4022 
  72   2.0000      -0.377499       -10.2723 
  73   2.0000      -0.371804       -10.1173 
  74   2.0000      -0.368616       -10.0306 
  75   2.0000      -0.360756        -9.8167 
  76   2.0000      -0.358490        -9.7550 
  77   2.0000      -0.356992        -9.7142 
  78   2.0000      -0.352921        -9.6035 
  79   2.0000      -0.348942        -9.4952 
  80   2.0000      -0.346898        -9.4396 
  81   2.0000      -0.344541        -9.3754 
  82   2.0000      -0.341773        -9.3001 
  83   2.0000      -0.338471        -9.2103 
  84   2.0000      -0.332434        -9.0460 
  85   2.0000      -0.331417        -9.0183 
  86   2.0000      -0.325823        -8.8661 
  87   2.0000      -0.322447        -8.7742 
  88   2.0000      -0.319824        -8.7029 
  89   2.0000      -0.313159        -8.5215 
  90   2.0000      -0.309893        -8.4326 
  91   2.0000      -0.307991        -8.3809 
  92   2.0000      -0.304756        -8.2928 
  93   2.0000      -0.294664        -8.0182 
  94   2.0000      -0.289523        -7.8783 
  95   2.0000      -0.284360        -7.7378 
  96   2.0000      -0.283126        -7.7042 
  97   2.0000      -0.281551        -7.6614 
  98   2.0000      -0.280567        -7.6346 
  99   2.0000      -0.278655        -7.5826 
 100   2.0000      -0.276354        -7.5200 
 101   2.0000      -0.272723        -7.4212 
 102   2.0000      -0.269547        -7.3348 
 103   2.0000      -0.266424        -7.2498 
 104   2.0000      -0.260408        -7.0861 
 105   2.0000      -0.248224        -6.7545 
 106   2.0000      -0.233318        -6.3489 
 107   2.0000      -0.227228        -6.1832 
 108   2.0000      -0.212969        -5.7952 
 109   2.0000      -0.180724        -4.9178 
 110   0.0000      -0.056263        -1.5310 
 111   0.0000      -0.012983        -0.3533 
 112   0.0000      -0.007051        -0.1919 
 113   0.0000       0.031005         0.8437 
 114   0.0000       0.039934         1.0867 
 115   0.0000       0.042291         1.1508 
 116   0.0000       0.046659         1.2696 
 117   0.0000       0.048479         1.3192 
 118   0.0000       0.052194         1.4203 
 119   0.0000       0.057631         1.5682 
 120   0.0000       0.059745         1.6257 
 121   0.0000       0.067132         1.8268 
 122   0.0000       0.072505         1.9730 
 123   0.0000       0.072692         1.9781 
 124   0.0000       0.074982         2.0404 
 125   0.0000       0.079177         2.1545 
 126   0.0000       0.085667         2.3311 
 127   0.0000       0.087039         2.3684 
 128   0.0000       0.087892         2.3917 
 129   0.0000       0.094346         2.5673 
 130   0.0000       0.096730         2.6322 
 131   0.0000       0.102070         2.7775 
 132   0.0000       0.104615         2.8467 
 133   0.0000       0.106047         2.8857 
 134   0.0000       0.110362         3.0031 
 135   0.0000       0.113209         3.0806 
 136   0.0000       0.115425         3.1409 
 137   0.0000       0.119221         3.2442 
 138   0.0000       0.121388         3.3031 
 139   0.0000       0.124557         3.3894 
 140   0.0000       0.125819         3.4237 
 141   0.0000       0.129744         3.5305 
 142   0.0000       0.130806         3.5594 
 143   0.0000       0.133025         3.6198 
 144   0.0000       0.135987         3.7004 
 145   0.0000       0.136692         3.7196 
 146   0.0000       0.140959         3.8357 
 147   0.0000       0.145632         3.9628 
 148   0.0000       0.147641         4.0175 
 149   0.0000       0.151597         4.1252 
 150   0.0000       0.152920         4.1612 
 151   0.0000       0.156235         4.2514 
 152   0.0000       0.159395         4.3374 
 153   0.0000       0.166510         4.5310 
 154   0.0000       0.169143         4.6026 
 155   0.0000       0.172626         4.6974 
 156   0.0000       0.174783         4.7561 
 157   0.0000       0.176881         4.8132 
 158   0.0000       0.180017         4.8985 
 159   0.0000       0.185999         5.0613 
 160   0.0000       0.189981         5.1696 
 161   0.0000       0.191136         5.2011 
 162   0.0000       0.196420         5.3448 
 163   0.0000       0.199803         5.4369 
 164   0.0000       0.201115         5.4726 
 165   0.0000       0.205312         5.5868 
 166   0.0000       0.210124         5.7178 
 167   0.0000       0.213203         5.8016 
 168   0.0000       0.214993         5.8502 
 169   0.0000       0.221490         6.0271 
 170   0.0000       0.227863         6.2005 
 171   0.0000       0.229434         6.2432 
 172   0.0000       0.233813         6.3624 
 173   0.0000       0.236829         6.4445 
 174   0.0000       0.242358         6.5949 
 175   0.0000       0.244724         6.6593 
 176   0.0000       0.254206         6.9173 
 177   0.0000       0.255586         6.9549 
 178   0.0000       0.262131         7.1329 
 179   0.0000       0.270616         7.3638 
 180   0.0000       0.276917         7.5353 
 181   0.0000       0.285389         7.7658 
 182   0.0000       0.288883         7.8609 
 183   0.0000       0.295014         8.0277 
 184   0.0000       0.296029         8.0554 
 185   0.0000       0.332096         9.0368 
 186   0.0000       0.335738         9.1359 
 187   0.0000       0.339797         9.2464 
 188   0.0000       0.342076         9.3084 
 189   0.0000       0.349436         9.5086 
 190   0.0000       0.354586         9.6488 
 191   0.0000       0.360480         9.8092 
 192   0.0000       0.365407         9.9432 
 193   0.0000       0.366627         9.9764 
 194   0.0000       0.375047        10.2056 
 195   0.0000       0.380750        10.3607 
 196   0.0000       0.383219        10.4279 
 197   0.0000       0.391383        10.6501 
 198   0.0000       0.393448        10.7063 
 199   0.0000       0.395164        10.7530 
 200   0.0000       0.401550        10.9267 
 201   0.0000       0.406272        11.0552 
 202   0.0000       0.411603        11.2003 
 203   0.0000       0.416958        11.3460 
 204   0.0000       0.419795        11.4232 
 205   0.0000       0.425900        11.5893 
 206   0.0000       0.436273        11.8716 
 207   0.0000       0.437907        11.9161 
 208   0.0000       0.442830        12.0500 
 209   0.0000       0.448760        12.2114 
 210   0.0000       0.455640        12.3986 
 211   0.0000       0.462853        12.5949 
 212   0.0000       0.472822        12.8661 
 213   0.0000       0.476337        12.9618 
 214   0.0000       0.480544        13.0763 
 215   0.0000       0.483445        13.1552 
 216   0.0000       0.489223        13.3124 
 217   0.0000       0.493037        13.4162 
 218   0.0000       0.494797        13.4641 
 219   0.0000       0.507031        13.7970 
 220   0.0000       0.510292        13.8857 
 221   0.0000       0.513326        13.9683 
 222   0.0000       0.517556        14.0834 
 223   0.0000       0.521761        14.1978 
 224   0.0000       0.528724        14.3873 
 225   0.0000       0.534768        14.5518 
 226   0.0000       0.538440        14.6517 
 227   0.0000       0.539406        14.6780 
 228   0.0000       0.542484        14.7618 
 229   0.0000       0.546716        14.8769 
 230   0.0000       0.550818        14.9885 
 231   0.0000       0.555089        15.1047 
 232   0.0000       0.557095        15.1593 
 233   0.0000       0.565780        15.3956 
 234   0.0000       0.567027        15.4296 
 235   0.0000       0.569478        15.4963 
 236   0.0000       0.570759        15.5311 
 237   0.0000       0.573591        15.6082 
 238   0.0000       0.575312        15.6550 
 239   0.0000       0.578098        15.7308 
 240   0.0000       0.582207        15.8427 
 241   0.0000       0.584501        15.9051 
 242   0.0000       0.587488        15.9864 
 243   0.0000       0.590461        16.0673 
 244   0.0000       0.593311        16.1448 
 245   0.0000       0.595248        16.1975 
 246   0.0000       0.597028        16.2460 
 247   0.0000       0.599435        16.3114 
 248   0.0000       0.602774        16.4023 
 249   0.0000       0.604846        16.4587 
 250   0.0000       0.607470        16.5301 
 251   0.0000       0.609678        16.5902 
 252   0.0000       0.611954        16.6521 
 253   0.0000       0.613508        16.6944 
 254   0.0000       0.616751        16.7826 
 255   0.0000       0.622232        16.9318 
 256   0.0000       0.624491        16.9933 
 257   0.0000       0.626746        17.0546 
 258   0.0000       0.629491        17.1293 
 259   0.0000       0.630633        17.1604 
 260   0.0000       0.633547        17.2397 
 261   0.0000       0.637471        17.3465 
 262   0.0000       0.639499        17.4017 
 263   0.0000       0.640661        17.4333 
 264   0.0000       0.644475        17.5371 
 265   0.0000       0.646082        17.5808 
 266   0.0000       0.648973        17.6594 
 267   0.0000       0.651370        17.7247 
 268   0.0000       0.654864        17.8197 
 269   0.0000       0.658728        17.9249 
 270   0.0000       0.661013        17.9871 
 271   0.0000       0.666025        18.1235 
 272   0.0000       0.666820        18.1451 
 273   0.0000       0.669917        18.2294 
 274   0.0000       0.670694        18.2505 
 275   0.0000       0.674609        18.3570 
 276   0.0000       0.683301        18.5936 
 277   0.0000       0.687388        18.7048 
 278   0.0000       0.688890        18.7457 
 279   0.0000       0.694145        18.8887 
 280   0.0000       0.697235        18.9727 
 281   0.0000       0.700172        19.0526 
 282   0.0000       0.703860        19.1530 
 283   0.0000       0.707608        19.2550 
 284   0.0000       0.713771        19.4227 
 285   0.0000       0.717047        19.5118 
 286   0.0000       0.720597        19.6084 
 287   0.0000       0.725631        19.7454 
 288   0.0000       0.728237        19.8163 
 289   0.0000       0.736110        20.0306 
 290   0.0000       0.744563        20.2606 
 291   0.0000       0.746131        20.3033 
 292   0.0000       0.752457        20.4754 
 293   0.0000       0.760004        20.6807 
 294   0.0000       0.761728        20.7277 
 295   0.0000       0.763405        20.7733 
 296   0.0000       0.772720        21.0268 
 297   0.0000       0.776607        21.1325 
 298   0.0000       0.779182        21.2026 
 299   0.0000       0.786905        21.4128 
 300   0.0000       0.798618        21.7315 
 301   0.0000       0.816006        22.2047 
 302   0.0000       0.832599        22.6562 
 303   0.0000       0.836401        22.7596 
 304   0.0000       0.843138        22.9430 
 305   0.0000       0.847987        23.0749 
 306   0.0000       0.858462        23.3599 
 307   0.0000       0.864654        23.5284 
 308   0.0000       0.887427        24.1481 
 309   0.0000       0.905793        24.6479 
 310   0.0000       0.916724        24.9453 
 311   0.0000       0.935227        25.4488 
 312   0.0000       0.938458        25.5367 
 313   0.0000       0.952417        25.9166 
 314   0.0000       0.971054        26.4237 
 315   0.0000       0.977905        26.6102 
 316   0.0000       0.996446        27.1147 
 317   0.0000       1.019824        27.7508 
 318   0.0000       1.032368        28.0922 
 319   0.0000       1.040449        28.3121 
 320   0.0000       1.046466        28.4758 
 321   0.0000       1.062457        28.9109 
 322   0.0000       1.075022        29.2528 
 323   0.0000       1.078447        29.3460 
 324   0.0000       1.110939        30.2302 
 325   0.0000       1.127655        30.6851 
 326   0.0000       1.132030        30.8041 
 327   0.0000       1.145185        31.1621 
 328   0.0000       1.167249        31.7625 
 329   0.0000       1.185252        32.2523 
 330   0.0000       1.192008        32.4362 
 331   0.0000       1.198223        32.6053 
 332   0.0000       1.217857        33.1396 
 333   0.0000       1.243882        33.8478 
 334   0.0000       1.261691        34.3323 
 335   0.0000       1.266486        34.4628 
 336   0.0000       1.273526        34.6544 
 337   0.0000       1.280409        34.8417 
 338   0.0000       1.286718        35.0134 
 339   0.0000       1.313289        35.7364 
 340   0.0000       1.329955        36.1899 
 341   0.0000       1.334605        36.3164 
 342   0.0000       1.350908        36.7601 
 343   0.0000       1.361887        37.0588 
 344   0.0000       1.369511        37.2663 
 345   0.0000       1.379835        37.5472 
 346   0.0000       1.392855        37.9015 
 347   0.0000       1.394038        37.9337 
 348   0.0000       1.411615        38.4120 
 349   0.0000       1.415932        38.5295 
 350   0.0000       1.431634        38.9567 
 351   0.0000       1.435707        39.0676 
 352   0.0000       1.438576        39.1456 
 353   0.0000       1.448491        39.4154 
 354   0.0000       1.456136        39.6235 
 355   0.0000       1.468298        39.9544 
 356   0.0000       1.473409        40.0935 
 357   0.0000       1.488001        40.4906 
 358   0.0000       1.505340        40.9624 
 359   0.0000       1.513785        41.1922 
 360   0.0000       1.518636        41.3242 
 361   0.0000       1.525481        41.5105 
 362   0.0000       1.528655        41.5968 
 363   0.0000       1.540316        41.9141 
 364   0.0000       1.548791        42.1448 
 365   0.0000       1.555904        42.3383 
 366   0.0000       1.568300        42.6756 
 367   0.0000       1.577001        42.9124 
 368   0.0000       1.591174        43.2980 
 369   0.0000       1.601845        43.5884 
 370   0.0000       1.608678        43.7744 
 371   0.0000       1.620314        44.0910 
 372   0.0000       1.622609        44.1534 
 373   0.0000       1.633835        44.4589 
 374   0.0000       1.638395        44.5830 
 375   0.0000       1.653222        44.9864 
 376   0.0000       1.662318        45.2340 
 377   0.0000       1.671623        45.4872 
 378   0.0000       1.679528        45.7023 
 379   0.0000       1.682832        45.7922 
 380   0.0000       1.692994        46.0687 
 381   0.0000       1.698350        46.2144 
 382   0.0000       1.702183        46.3188 
 383   0.0000       1.703262        46.3481 
 384   0.0000       1.719526        46.7907 
 385   0.0000       1.721399        46.8416 
 386   0.0000       1.728081        47.0235 
 387   0.0000       1.729525        47.0628 
 388   0.0000       1.731795        47.1245 
 389   0.0000       1.737601        47.2825 
 390   0.0000       1.742300        47.4104 
 391   0.0000       1.752311        47.6828 
 392   0.0000       1.752575        47.6900 
 393   0.0000       1.764306        48.0092 
 394   0.0000       1.770658        48.1821 
 395   0.0000       1.772291        48.2265 
 396   0.0000       1.781686        48.4821 
 397   0.0000       1.783946        48.5436 
 398   0.0000       1.786036        48.6005 
 399   0.0000       1.788319        48.6626 
 400   0.0000       1.798247        48.9328 
 401   0.0000       1.802286        49.0427 
 402   0.0000       1.805633        49.1338 
 403   0.0000       1.808410        49.2093 
 404   0.0000       1.818084        49.4726 
 405   0.0000       1.819679        49.5160 
 406   0.0000       1.832730        49.8711 
 407   0.0000       1.837040        49.9884 
 408   0.0000       1.840269        50.0763 
 409   0.0000       1.848245        50.2933 
 410   0.0000       1.855354        50.4868 
 411   0.0000       1.866245        50.7831 
 412   0.0000       1.868099        50.8335 
 413   0.0000       1.873537        50.9815 
 414   0.0000       1.886439        51.3326 
 415   0.0000       1.896698        51.6118 
 416   0.0000       1.897817        51.6422 
 417   0.0000       1.903806        51.8052 
 418   0.0000       1.910905        51.9984 
 419   0.0000       1.915745        52.1301 
 420   0.0000       1.921813        52.2952 
 421   0.0000       1.933514        52.6136 
 422   0.0000       1.937961        52.7346 
 423   0.0000       1.948469        53.0205 
 424   0.0000       1.951318        53.0981 
 425   0.0000       1.955950        53.2241 
 426   0.0000       1.959302        53.3153 
 427   0.0000       1.969581        53.5950 
 428   0.0000       1.971369        53.6437 
 429   0.0000       1.981305        53.9140 
 430   0.0000       1.983406        53.9712 
 431   0.0000       1.987875        54.0928 
 432   0.0000       1.992262        54.2122 
 433   0.0000       1.995398        54.2975 
 434   0.0000       1.998447        54.3805 
 435   0.0000       2.003558        54.5196 
 436   0.0000       2.010652        54.7126 
 437   0.0000       2.011525        54.7364 
 438   0.0000       2.014031        54.8046 
 439   0.0000       2.014988        54.8306 
 440   0.0000       2.025276        55.1106 
 441   0.0000       2.027403        55.1684 
 442   0.0000       2.037338        55.4388 
 443   0.0000       2.043404        55.6038 
[...]

 --------------
 Nucleus  47H :
 --------------

Diamagnetic contribution to the shielding tensor (ppm) : 
            31.533          2.601        -0.843
             0.135         49.716        -4.987
             0.918         -3.764        40.865

Paramagnetic contribution to the shielding tensor (ppm): 
            -3.048         -2.370         1.638
             0.156        -16.941         1.487
            -0.676          0.271        -8.259

Total shielding tensor (ppm): 
            28.485          0.231         0.795
             0.291         32.776        -3.499
             0.242         -3.493        32.606


 Diagonalized sT*s matrix:
 
 sDSO            32.779           39.625           49.710  iso=      40.705
 sPSO            -4.600          -10.129          -13.518  iso=      -9.416
        ---------------  ---------------  ---------------
 Total           28.179           29.496           36.192  iso=      31.289

 --------------
 Nucleus  48H :
 --------------

Diamagnetic contribution to the shielding tensor (ppm) : 
            36.324         -0.314        -1.611
            -4.565         40.945        -6.768
            -0.103         -2.488        41.639

Paramagnetic contribution to the shielding tensor (ppm): 
            -5.023          1.297         1.971
             4.890        -13.644         3.963
             0.026          0.381       -10.681

Total shielding tensor (ppm): 
            31.301          0.983         0.360
             0.325         27.301        -2.805
            -0.078         -2.106        30.958


 Diagonalized sT*s matrix:
 
 sDSO            38.054           36.030           44.824  iso=      39.636
 sPSO           -12.064           -4.683          -12.600  iso=      -9.783
        ---------------  ---------------  ---------------
 Total           25.989           31.347           32.224  iso=      29.853

 --------------
 Nucleus  52H :
 --------------

Diamagnetic contribution to the shielding tensor (ppm) : 
            41.660          3.107        -7.274
             5.315         29.739        -5.966
            -6.998         -5.547        41.850

Paramagnetic contribution to the shielding tensor (ppm): 
           -14.619         -1.002         9.410
            -2.792         -4.855         7.974
             8.236          6.808       -15.461

Total shielding tensor (ppm): 
            27.041          2.105         2.136
             2.523         24.885         2.007
             1.238          1.261        26.390


 Diagonalized sT*s matrix:
 
 sDSO            30.199           49.697           33.354  iso=      37.750
 sPSO            -6.896          -24.681           -3.358  iso=     -11.645
        ---------------  ---------------  ---------------
 Total           23.303           25.016           29.996  iso=      26.105

 --------------
 Nucleus  53H :
 --------------

Diamagnetic contribution to the shielding tensor (ppm) : 
            44.915          2.997        -6.594
             2.348         43.203        -2.933
            -7.300          1.378        43.108

Paramagnetic contribution to the shielding tensor (ppm): 
           -16.203         -1.042        12.927
             0.154        -18.315         7.363
            12.104          1.692       -18.405

Total shielding tensor (ppm): 
            28.712          1.955         6.333
             2.502         24.888         4.430
             4.804          3.071        24.703


 Diagonalized sT*s matrix:
 
 sDSO            49.574           42.292           39.360  iso=      43.742
 sPSO           -29.639          -18.261           -5.022  iso=     -17.641
        ---------------  ---------------  ---------------
 Total           19.934           24.031           34.338  iso=      26.101

 --------------
 Nucleus  57H :
 --------------

Diamagnetic contribution to the shielding tensor (ppm) : 
            42.543          4.010        -5.595
             0.912         24.220        -3.152
           -11.719        -10.390        44.257

Paramagnetic contribution to the shielding tensor (ppm): 
           -12.971         -2.690         3.346
            -0.112          3.499         4.503
            10.675         11.698       -11.758

Total shielding tensor (ppm): 
            29.572          1.320        -2.249
             0.800         27.719         1.351
            -1.044          1.308        32.499


 Diagonalized sT*s matrix:
 
 sDSO            29.294           34.591           47.136  iso=      37.007
 sPSO            -2.691           -4.760          -13.780  iso=      -7.077
        ---------------  ---------------  ---------------
 Total           26.603           29.831           33.356  iso=      29.930

 --------------
 Nucleus  58H :
 --------------

Diamagnetic contribution to the shielding tensor (ppm) : 
            33.835         -2.434         2.713
            11.623         42.106         5.257
             1.245         -7.940        37.123

Paramagnetic contribution to the shielding tensor (ppm): 
            -4.005          2.171         0.960
           -11.764        -11.286        -7.201
             2.030          6.297        -6.795

Total shielding tensor (ppm): 
            29.830         -0.262         3.672
            -0.141         30.820        -1.944
             3.275         -1.643        30.328


 Diagonalized sT*s matrix:
 
 sDSO            32.058           43.913           37.094  iso=      37.688
 sPSO            -5.735          -13.467           -2.883  iso=      -7.362
        ---------------  ---------------  ---------------
 Total           26.322           30.445           34.211  iso=      30.326

 --------------
 Nucleus  61H :
 --------------

Diamagnetic contribution to the shielding tensor (ppm) : 
            33.933         -5.541         2.343
           -20.052         25.176       -10.711
            -3.901         -0.409        27.084

Paramagnetic contribution to the shielding tensor (ppm): 
            -3.789          1.788        -1.283
            15.984          9.832        12.565
             4.645          2.033         1.210

Total shielding tensor (ppm): 
            30.144         -3.752         1.060
            -4.069         35.008         1.855
             0.744          1.624        28.294


 Diagonalized sT*s matrix:
 
 sDSO            26.599           23.161           36.432  iso=      28.731
 sPSO            -0.158            6.529            0.883  iso=       2.418
        ---------------  ---------------  ---------------
 Total           26.441           29.690           37.315  iso=      31.149

 --------------
 Nucleus  62H :
 --------------

Diamagnetic contribution to the shielding tensor (ppm) : 
            33.632          2.837        -4.847
            -5.089         18.999        -8.636
            -5.700        -11.362        42.461

Paramagnetic contribution to the shielding tensor (ppm): 
            -4.319         -3.229         3.956
             4.772         11.034         5.257
             3.850          8.840        -8.854

Total shielding tensor (ppm): 
            29.313         -0.392        -0.891
            -0.317         30.033        -3.380
            -1.850         -2.522        33.607


 Diagonalized sT*s matrix:
 
 sDSO            18.592           29.818           46.682  iso=      31.697
 sPSO             9.120           -0.021          -11.239  iso=      -0.713
        ---------------  ---------------  ---------------
 Total           27.712           29.798           35.443  iso=      30.984

 --------------
 Nucleus  63H :
 --------------

Diamagnetic contribution to the shielding tensor (ppm) : 
            44.069          4.843         5.724
            -4.288          5.863        -0.529
            -0.675         -0.909        32.475

Paramagnetic contribution to the shielding tensor (ppm): 
            -8.672         -3.862        -1.090
             4.277         23.667         0.116
             5.546          1.429        -5.327

Total shielding tensor (ppm): 
            35.397          0.981         4.634
            -0.011         29.530        -0.413
             4.871          0.520        27.147


 Diagonalized sT*s matrix:
 
 sDSO            32.469            6.123           43.815  iso=      27.469
 sPSO            -7.495           23.386           -6.224  iso=       3.222
        ---------------  ---------------  ---------------
 Total           24.974           29.509           37.591  iso=      30.691

 --------------
 Nucleus  64H :
 --------------

Diamagnetic contribution to the shielding tensor (ppm) : 
            20.523          3.918         5.783
            21.380         36.164         6.228
             3.820          0.503        16.371

Paramagnetic contribution to the shielding tensor (ppm): 
             8.080         -1.319        -5.593
           -19.406          0.824        -4.484
            -4.171          1.566        10.207

Total shielding tensor (ppm): 
            28.604          2.599         0.190
             1.974         36.988         1.744
            -0.351          2.068        26.578


 Diagonalized sT*s matrix:
 
 sDSO            16.965           14.292           41.801  iso=      24.353
 sPSO             9.162           13.883           -3.934  iso=       6.370
        ---------------  ---------------  ---------------
 Total           26.127           28.175           37.868  iso=      30.723

 --------------
 Nucleus  65H :
 --------------

Diamagnetic contribution to the shielding tensor (ppm) : 
            35.231         10.348        -2.678
            13.639         16.373         1.913
           -12.339        -11.753        26.677

Paramagnetic contribution to the shielding tensor (ppm): 
            -2.434         -7.239        -2.502
            -9.811         12.319        -3.242
             8.462         10.866         4.375

Total shielding tensor (ppm): 
            32.798          3.109        -5.181
             3.828         28.692        -1.329
            -3.877         -0.887        31.052


 Diagonalized sT*s matrix:
 
 sDSO            14.485           19.081           44.715  iso=      26.094
 sPSO            11.608            9.554           -6.902  iso=       4.754
        ---------------  ---------------  ---------------
 Total           26.094           28.635           37.813  iso=      30.847

 --------------
 Nucleus  66H :
 --------------

Diamagnetic contribution to the shielding tensor (ppm) : 
            33.036          5.953         9.447
             6.383         12.069         0.860
             9.839         -2.701        30.695

Paramagnetic contribution to the shielding tensor (ppm): 
            -0.154         -5.152        -4.984
            -4.913         17.502        -0.747
            -5.755          2.394        -0.770

Total shielding tensor (ppm): 
            32.882          0.801         4.462
             1.470         29.571         0.112
             4.084         -0.307        29.925


 Diagonalized sT*s matrix:
 
 sDSO            19.414           14.389           41.997  iso=      25.267
 sPSO             7.273           15.259           -5.954  iso=       5.526
        ---------------  ---------------  ---------------
 Total           26.687           29.648           36.043  iso=      30.793

 --------------
 Nucleus  67H :
 --------------

Diamagnetic contribution to the shielding tensor (ppm) : 
            25.420         -3.871         0.400
             8.365         27.265         5.097
             7.634         -0.358        44.593

Paramagnetic contribution to the shielding tensor (ppm): 
             3.379          2.704         0.548
            -9.543          1.687        -5.814
            -6.058         -0.923        -9.099

Total shielding tensor (ppm): 
            28.799         -1.167         0.949
            -1.178         28.953        -0.717
             1.576         -1.281        35.494


 Diagonalized sT*s matrix:
 
 sDSO            28.164           25.239           43.877  iso=      32.426
 sPSO            -0.471            4.383           -7.945  iso=      -1.345
        ---------------  ---------------  ---------------
 Total           27.693           29.621           35.931  iso=      31.082

 --------------
 Nucleus  68H :
 --------------

Diamagnetic contribution to the shielding tensor (ppm) : 
            38.049          0.308        -8.694
            16.419         35.981         9.852
            -1.084         10.028        41.315

Paramagnetic contribution to the shielding tensor (ppm): 
            -2.180          3.912         8.220
           -12.799         -8.097        -6.813
            -0.359         -8.111       -13.303

Total shielding tensor (ppm): 
            35.869          4.220        -0.475
             3.620         27.884         3.039
            -1.443          1.917        28.012


 Diagonalized sT*s matrix:
 
 sDSO            23.690           48.003           43.652  iso=      38.448
 sPSO             0.663          -18.063           -6.180  iso=      -7.860
        ---------------  ---------------  ---------------
 Total           24.353           29.941           37.471  iso=      30.588

 --------------
 Nucleus  69H :
 --------------

Diamagnetic contribution to the shielding tensor (ppm) : 
            20.525         -8.042        -5.892
             8.930         41.938        10.086
             5.922         11.645        36.959

Paramagnetic contribution to the shielding tensor (ppm): 
             9.073          5.569         3.617
           -11.129         -7.730        -6.186
            -7.872         -7.439        -7.731

Total shielding tensor (ppm): 
            29.598         -2.473        -2.274
            -2.198         34.208         3.900
            -1.950          4.206        29.228


 Diagonalized sT*s matrix:
 
 sDSO            28.775           24.477           46.170  iso=      33.141
 sPSO            -2.070            4.201           -8.518  iso=      -2.129
        ---------------  ---------------  ---------------
 Total           26.705           28.678           37.652  iso=      31.012

 --------------
 Nucleus  70H :
 --------------

Diamagnetic contribution to the shielding tensor (ppm) : 
            36.697         -6.864        -8.675
           -14.725         28.318        -1.607
           -10.935          3.417        30.369

Paramagnetic contribution to the shielding tensor (ppm): 
            -2.852          5.321         3.963
            12.715          0.560         4.973
             6.472         -0.951        -0.864

Total shielding tensor (ppm): 
            33.845         -1.542        -4.713
            -2.010         28.878         3.365
            -4.463          2.466        29.506


 Diagonalized sT*s matrix:
 
 sDSO            28.473           18.985           47.926  iso=      31.795
 sPSO            -2.830            9.778          -10.105  iso=      -1.052
        ---------------  ---------------  ---------------
 Total           25.644           28.763           37.821  iso=      30.743

 --------------
 Nucleus  71H :
 --------------

Diamagnetic contribution to the shielding tensor (ppm) : 
            32.916          2.112         3.713
            -7.465         41.280         6.949
            -0.384          7.568        34.750

Paramagnetic contribution to the shielding tensor (ppm): 
            -0.833         -1.566        -3.693
             9.236        -10.966        -1.424
             1.299         -2.705        -6.262

Total shielding tensor (ppm): 
            32.083          0.546         0.020
             1.771         30.314         5.525
             0.915          4.863        28.487


 Diagonalized sT*s matrix:
 
 sDSO            30.642           35.041           43.263  iso=      36.315
 sPSO            -6.533           -3.402           -8.126  iso=      -6.020
        ---------------  ---------------  ---------------
 Total           24.109           31.639           35.137  iso=      30.295

 --------------
 Nucleus  72H :
 --------------

Diamagnetic contribution to the shielding tensor (ppm) : 
            29.916         -6.789         0.513
           -14.713         41.657        -7.822
            -1.786         -7.005        33.626

Paramagnetic contribution to the shielding tensor (ppm): 
             1.001          4.188         0.376
            12.594         -8.310         5.322
             1.910          4.964        -4.197

Total shielding tensor (ppm): 
            30.917         -2.601         0.889
            -2.118         33.347        -2.500
             0.124         -2.041        29.429


 Diagonalized sT*s matrix:
 
 sDSO            26.009           28.879           50.311  iso=      35.066
 sPSO             2.227            0.993          -14.726  iso=      -3.836
        ---------------  ---------------  ---------------
 Total           28.236           29.871           35.586  iso=      31.231



--------------------------------
CHEMICAL SHIELDING SUMMARY (ppm)
--------------------------------


  Nucleus  Element    Isotropic     Anisotropy
  -------  -------  ------------   ------------
      3       H           29.637          5.411 
      4       H           29.128          5.299 
      8       H           29.572          6.401 
      9       H           29.432          7.748 
     10       H           29.631          8.816 
     11       H           30.532          6.207 
     13       H           28.185          2.723 
     16       H           26.857          5.093 
     17       H           26.520          5.005 
     19       H           25.447         10.755 
     21       H           25.702         15.090 
     24       H           28.884          9.984 
     25       H           29.971          9.365 
     27       H           30.224          7.314 
     28       H           30.152         11.813 
     30       H           29.736          8.027 
     31       H           30.397          6.799 
     33       H           29.767          3.851 
     35       H           31.124         14.837 
     37       H           30.368         10.541 
     38       H           30.314          9.420 
     40       H           29.584         11.852 
     41       H           30.705          7.580 
     42       H           30.165          6.840 
     45       H           31.052          8.239 
     46       H           31.299          9.578 
     47       H           31.289          7.354 
     48       H           29.853          3.555 
     52       H           26.105          5.837 
     53       H           26.101         12.356 
     57       H           29.930          5.140 
     58       H           30.326          5.827 
     61       H           31.149          9.250 
     62       H           30.984          6.688 
     63       H           30.691         10.349 
     64       H           30.723         10.717 
     65       H           30.847         10.449 
     66       H           30.793          7.875 
     67       H           31.082          7.274 
     68       H           30.588         10.324 
     69       H           31.012          9.960 
     70       H           30.743         10.618 
     71       H           30.295          7.264 
     72       H           31.231          6.532 



Maximum memory used throughout the entire EPRNMR-calculation: 140.8 MB

Timings for individual modules:

Sum of individual times         ...      141.564 sec (=   2.359 min)
GTO integral calculation        ...        0.774 sec (=   0.013 min)   0.5 %
SCF iterations                  ...       94.839 sec (=   1.581 min)  67.0 %
EPR/NMR calculation             ...       45.951 sec (=   0.766 min)  32.5 %
                             ****ORCA TERMINATED NORMALLY****
TOTAL RUN TIME: 0 days 0 hours 2 minutes 22 seconds 131 msec
