
                                 *****************
                                 * O   R   C   A *
                                 *****************

                                            #,                                       
                                            ###                                      
                                            ####                                     
                                            #####                                    
                                            ######                                   
                                           ########,                                 
                                     ,,################,,,,,                         
                               ,,#################################,,                 
                          ,,##########################################,,             
                       ,#########################################, ''#####,          
                    ,#############################################,,   '####,        
                  ,##################################################,,,,####,       
                ,###########''''           ''''###############################       
              ,#####''   ,,,,##########,,,,          '''####'''          '####       
            ,##' ,,,,###########################,,,                        '##       
           ' ,,###''''                  '''############,,,                           
         ,,##''                                '''############,,,,        ,,,,,,###''
      ,#''                                            '''#######################'''  
     '                                                          ''''####''''         
             ,#######,   #######,   ,#######,      ##                                
            ,#'     '#,  ##    ##  ,#'     '#,    #''#        ,####,   ,####,        
            ##       ##  ##   ,#'  ##            #'  '#       #'       #'  '#        
            ##       ##  #######   ##           ,######,      #####,   #    #        
            '#,     ,#'  ##    ##  '#,     ,#' ,#      #,     #,   #   #,  ,#        
             '#######'   ##     ##  '#######'  #'      '#     '####' # '####'        



                #########################################################
                #                        -***-                          #
                #          Department of theory and spectroscopy        #
                #                                                       #
                #                      Frank Neese                      #
                #                                                       #
                #     Directorship, Architecture, Infrastructure        #
                #                    SHARK, DRIVERS                     #
                #        Core code/Algorithms in most modules           #
                #                                                       #
                #        Max Planck Institute fuer Kohlenforschung      #
                #                Kaiser Wilhelm Platz 1                 #
                #                 D-45470 Muelheim/Ruhr                 #
                #                      Germany                          #
                #                                                       #
                #                  All rights reserved                  #
                #                        -***-                          #
                #########################################################


                         Program Version 6.0.0  -   RELEASE  -


 With contributions from (in alphabetic order):
   Daniel Aravena         : Magnetic Suceptibility
   Michael Atanasov       : Ab Initio Ligand Field Theory (pilot matlab implementation)
   Alexander A. Auer      : GIAO ZORA, VPT2 properties, NMR spectrum
   Ute Becker             : All parallelization in ORCA, NUMFREQ, NUMCALC
   Giovanni Bistoni       : ED, misc. LED, open-shell LED, HFLD
   Martin Brehm           : Molecular dynamics
   Dmytro Bykov           : pre 5.0 version of the SCF Hessian
   Marcos Casanova-Páez   : Triplet and SCS-CIS(D). UHF-(DLPNO)-IP/EA/STEOM-CCSD. UHF-CVS-IP/STEOM-CCSD
   Vijay G. Chilkuri      : MRCI spin determinant printing, contributions to CSF-ICE
   Pauline Colinet        : FMM embedding
   Dipayan Datta          : RHF DLPNO-CCSD density
   Achintya Kumar Dutta   : EOM-CC, STEOM-CC
   Nicolas Foglia         : Exact transition moments, OPA infrastructure, MCD improvements
   Dmitry Ganyushin       : Spin-Orbit,Spin-Spin,Magnetic field MRCI
   Miquel Garcia          : C-PCM and meta-GGA Hessian, CCSD/C-PCM, Gaussian charge scheme
   Tiago L. C. Gouveia    : GS-ROHF, GS-ROCIS
   Yang Guo               : DLPNO-NEVPT2, F12-NEVPT2, CIM, IAO-localization
   Andreas Hansen         : Spin unrestricted coupled pair/coupled cluster methods
   Ingolf Harden          : AUTO-CI MPn and infrastructure 
   Benjamin Helmich-Paris : MC-RPA, TRAH-(SCF,CASSCF), AVAS, COSX integrals, SCF dyn. polar.
   Lee Huntington         : MR-EOM, pCC
   Robert Izsak           : Overlap fitted RIJCOSX, COSX-SCS-MP3, EOM
   Riya Kayal             : Wick's Theorem for AUTO-CI, AUTO-CI UHF-CCSDT
   Emily Kempfer          : AUTO-CI, RHF CISDT and CCSDT
   Christian Kollmar      : KDIIS, OOCD, Brueckner-CCSD(T), CCSD density, CASPT2, CASPT2-K, improved NEVPT2
   Axel Koslowski         : Symmetry handling
   Simone Kossmann        : Meta GGA functionals, TD-DFT gradient, OOMP2, (MP2 Hessian; deprecated post 5.0)
   Lucas Lang             : DCDCAS
   Marvin Lechner         : AUTO-CI (C++ implementation), FIC-MRCC
   Spencer Leger          : CASSCF response
   Dagmar Lenk            : GEPOL surface, SMD, ORCA-2-JSON
   Dimitrios Liakos       : Extrapolation schemes; Compound Job, initial MDCI parallelization
   Dimitrios Manganas     : Further ROCIS development; embedding schemes. LFT, Crystal Embedding
   Dimitrios Pantazis     : SARC Basis sets
   Anastasios Papadopoulos: AUTO-CI, single reference methods and gradients
   Taras Petrenko         : pre 6.0 DFT Hessian and TD-DFT gradient, (ASA, deprecated), ECA, 1-Electron XAS/XES, NRVS
   Peter Pinski           : DLPNO-MP2, DLPNO-MP2 Gradient
   Christoph Reimann      : Effective Core Potentials
   Marius Retegan         : Local ZFS, SOC
   Christoph Riplinger    : Optimizer, TS searches, QM/MM, DLPNO-CCSD(T), (RO)-DLPNO pert. Triples
   Michael Roemelt        : Original ROCIS implementation
   Masaaki Saitow         : Open-shell DLPNO-CCSD energy and density
   Barbara Sandhoefer     : DKH picture change effects
   Kantharuban Sivalingam : CASSCF convergence/infrastructure, NEVPT2 and variants, FIC-MRCI
   Bernardo de Souza      : ESD, SOC TD-DFT
   Georgi Stoychev        : AutoAux, RI-MP2 NMR, DLPNO-MP2 response, X2C
   Van Anh Tran           : RI-MP2 g-tensors
   Willem Van den Heuvel  : Paramagnetic NMR
   Zikuan Wang            : NOTCH, Electric field optimization 
   Frank Wennmohs         : Technical directorship and infrastructure
   Hang Xu                : AUTO-CI-Response properties 


 We gratefully acknowledge several colleagues who have allowed us to
 interface, adapt or use parts of their codes:
   Stefan Grimme, W. Hujo, H. Kruse, P. Pracht,  : VdW corrections, initial TS optimization,
                  C. Bannwarth, S. Ehlert,         DFT functionals, gCP, sTDA/sTD-DF
                  L. Wittmann, M. Mueller
   Ed Valeev, F. Pavosevic, A. Kumar             : LibInt (2-el integral package), F12 methods
   Garnet Chan, S. Sharma, J. Yang, R. Olivares  : DMRG
   Ulf Ekstrom                                   : XCFun DFT Library
   Mihaly Kallay                                 : mrcc  (arbitrary order and MRCC methods)
   Frank Weinhold                                : gennbo (NPA and NBO analysis)
   Simon Mueller                                 : openCOSMO-RS
   Christopher J. Cramer and Donald G. Truhlar   : smd solvation model
   Lars Goerigk                                  : TD-DFT with DH, B97 family of functionals
   V. Asgeirsson, H. Jonsson                     : NEB implementation
   FAccTs GmbH                                   : IRC, NEB, NEB-TS, DLPNO-Multilevel, CI-OPT
                                                   MM, QMMM, 2- and 3-layer-ONIOM, Crystal-QMMM,
                                                   LR-CPCM, SF, NACMEs, symmetry and pop. for TD-DFT,
                                                   nearIR, NL-DFT gradient (VV10), updates on ESD,
                                                   ML-optimized integration grids, MBIS, APM,
                                                   GOAT, DOCKER, SOLVATOR, interface openCOSMO-RS
   S Lehtola, MJT Oliveira, MAL Marques          : LibXC Library
   Liviu Ungur et al                             : ANISO software


 Your calculation uses the libint2 library for the computation of 2-el integrals
 For citations please refer to: http://libint.valeyev.net

 Your ORCA version has been built with support for libXC version: 6.2.2
 For citations please refer to: https://libxc.gitlab.io

 This ORCA versions uses:
   CBLAS   interface :  Fast vector & matrix operations
   LAPACKE interface :  Fast linear algebra routines
   SCALAPACK package :  Parallel linear algebra routines
   Shared memory     :  Shared parallel matrices
   BLAS/LAPACK       :  OpenBLAS 0.3.27  USE64BITINT DYNAMIC_ARCH NO_AFFINITY Zen SINGLE_THREADED
        Core in use  :  Zen
   Copyright (c) 2011-2014, The OpenBLAS Project


NOTE: MaxCore=8000 MB was set to SCF,MP2,MDCI,CIPSI,MRCI and CIS
      => If you want to overwrite this, your respective input block should be placed after the MaxCore statement
Your calculation utilizes the atom-pairwise dispersion correction
based on EEQ partial charges (D4)


================================================================================

----- Orbital basis set information -----
Your calculation utilizes the basis: def2-SVP
   F. Weigend and R. Ahlrichs, Phys. Chem. Chem. Phys. 7, 3297 (2005).

----- AuxJ basis set information -----
Your calculation utilizes the auxiliary basis: def2/J
   F. Weigend, Phys. Chem. Chem. Phys. 8, 1057 (2006).

================================================================================
                                        WARNINGS
                       Please study these warnings very carefully!
================================================================================

WARNING: Old DensityContainer found on disk!
         Will remove this file - 
         If you want to keep old densities, please start your calculation with a different basename. 


================================================================================
                                       INPUT FILE
================================================================================
NAME = inpS
|  1> ! wb97x-d4
|  2> ! def2-svp
|  3> ! def2/J RIJCOSX
|  4> ! DEFGRID2
|  5> ! scfconv7
|  6> ! smallprint printgap noloewdin
|  7> ! NOSOSCF
|  8> %MaxCore 8000
|  9> %output
| 10>        print[P_BondOrder_M] 1
| 11>        print[P_Mayer] 1
| 12>        print[P_basis] 2
| 13> end
| 14> %pal
| 15>     nprocs 4
| 16> end
| 17> ! CPCM(chloroform)
| 18> *xyz 0 1
| 19> C   -5.2150124400   0.2368501800   0.1400686800
| 20> C   -6.5766060500  -0.2543786500  -0.2914254100
| 21> C   -7.0533553900   0.4451443600  -1.5703708200
| 22> H   -7.3137277800  -0.0283669500   0.4977203700
| 23> H   -6.5677818500  -1.3397033900  -0.4402413300
| 24> C   -5.1001297200   1.7090312300   0.2176511200
| 25> C   -5.6247585600   2.4407463700  -0.9971418600
| 26> C   -7.0286101400   1.9586584900  -1.3878202700
| 27> H   -4.9444661200   2.2462091100  -1.8402049100
| 28> H   -5.6232832000   3.5211530400  -0.8184008000
| 29> H   -7.3539435600   2.4476523800  -2.3135994500
| 30> H   -7.7454531600   2.2294020500  -0.5979124100
| 31> O   -8.3498194000  -0.0226901400  -1.9647742600
| 32> H   -6.3875442100   0.1672980300  -2.3993235700
| 33> C   -4.2037163500  -0.6321899400   0.3756592900
| 34> C   -4.6188668900   2.3546187400   1.2860179300
| 35> H   -4.2707829500   1.8163240100   2.1631902800
| 36> H   -4.5723595800   3.4408364800   1.3089126200
| 37> C   -2.8373848300  -0.2914750000   0.6973637700
| 38> H   -4.4434179400  -1.6891484900   0.2682121100
| 39> C   -1.8420867200  -1.1571968600   0.9869698300
| 40> H   -2.5958942600   0.7688772800   0.6873184700
| 41> C   -1.9779498600  -2.6551396700   1.0867116100
| 42> C   -0.9535332500  -3.3807074800   0.1935369700
| 43> H   -2.9885060200  -2.9983461400   0.8489103000
| 44> H   -1.7834645200  -2.9416934600   2.1326880600
| 45> C    0.4811209500  -2.8820273200   0.4141959900
| 46> H   -1.2365432500  -3.2453412600  -0.8580443700
| 47> H   -1.0021108900  -4.4583282100   0.3927334300
| 48> C    0.5875209000  -1.3585087400   0.2604703000
| 49> H    1.1493871300  -3.4010086500  -0.2807404600
| 50> H    0.8044383100  -3.1511398300   1.4311900800
| 51> C   -0.4349117200  -0.7154272000   1.2499735400
| 52> H   -0.1579699500  -1.1258244200   2.2388181600
| 53> C   -0.0613031000   0.7626396000   1.2564470600
| 54> H   -8.9693624100   0.2094281600  -1.2600951400
| 55> C    1.4838406500   0.7416001700   1.1615711700
| 56> H   -0.4236371500   1.2773004400   2.1527368200
| 57> H   -0.4956175800   1.2759732800   0.3913167700
| 58> C    1.9043551900  -0.7133151600   0.7815494000
| 59> H    1.9430808500   1.0439978400   2.1063386400
| 60> H    1.8439925700   1.4467981000   0.4030771700
| 61> H    2.1625246700  -1.2601150800   1.7024260500
| 62> C    3.1308477800  -0.7338469000  -0.1405542400
| 63> C    0.2924948600  -0.9256641900  -1.1825648700
| 64> H   -0.7536048800  -1.1063087200  -1.4487191000
| 65> H    0.9192226100  -1.4774788600  -1.8911791600
| 66> H    0.4861079800   0.1414192800  -1.3302019500
| 67> H    2.8745513400  -0.1568666200  -1.0433110400
| 68> C    3.5497577700  -2.1432451100  -0.5995326300
| 69> C    4.3560504700  -0.0771229800   0.4588822600
| 70> C    4.6213033700   0.1087397300   1.7516272300
| 71> H    5.1125612800   0.1969008200  -0.2779988400
| 72> H    3.8772851000  -0.1839281700   2.4946464700
| 73> C    5.8818116700   0.6854582000   2.3429906000
| 74> C    6.8996843100   1.1448171500   1.3008511700
| 75> C    6.4689401200  -0.3039877800   3.3891579400
| 76> H    5.5755795800   1.5734207200   2.9227297000
| 77> H    5.6307335200  -0.5793620000   4.0479232100
| 78> C    7.5410566600   0.3509227700   4.2635076000
| 79> C    7.0014457600  -1.5892086100   2.7522598600
| 80> H    6.4613568800   1.9008100600   0.6409751200
| 81> H    7.2409553900   0.3138400900   0.6743306200
| 82> H    7.7769235400   1.5902228800   1.7787861200
| 83> H    7.8360687000  -0.3214738800   5.0768050100
| 84> H    7.1769176500   1.2836571000   4.7096262100
| 85> H    8.4433617500   0.5804459000   3.6855316900
| 86> H    7.8984463800  -1.3919485200   2.1538513800
| 87> H    6.2534182500  -2.0523191300   2.0991754200
| 88> H    7.2754986700  -2.3150363400   3.5258076000
| 89> H    4.5091687900  -2.1013865600  -1.1273658200
| 90> H    2.8181333000  -2.5920197300  -1.2764132000
| 91> H    3.6734464700  -2.8021449100   0.2680515600
| 92> *
| 93> %eprnmr
| 94>  Nuclei = all C { shift }
| 95>  origin giao
| 96>  giao_2el giao_2el_same_as_scf
| 97>  giao_1el giao_1el_analytic
| 98> end
| 99> 
|100>                          ****END OF INPUT****
================================================================================

                       ****************************
                       * Single Point Calculation *
                       ****************************

---------------------------------
CARTESIAN COORDINATES (ANGSTROEM)
---------------------------------
  C     -5.215012    0.236850    0.140069
  C     -6.576606   -0.254379   -0.291425
  C     -7.053355    0.445144   -1.570371
  H     -7.313728   -0.028367    0.497720
  H     -6.567782   -1.339703   -0.440241
  C     -5.100130    1.709031    0.217651
  C     -5.624759    2.440746   -0.997142
  C     -7.028610    1.958658   -1.387820
  H     -4.944466    2.246209   -1.840205
  H     -5.623283    3.521153   -0.818401
  H     -7.353944    2.447652   -2.313599
  H     -7.745453    2.229402   -0.597912
  O     -8.349819   -0.022690   -1.964774
  H     -6.387544    0.167298   -2.399324
  C     -4.203716   -0.632190    0.375659
  C     -4.618867    2.354619    1.286018
  H     -4.270783    1.816324    2.163190
  H     -4.572360    3.440836    1.308913
  C     -2.837385   -0.291475    0.697364
  H     -4.443418   -1.689148    0.268212
  C     -1.842087   -1.157197    0.986970
  H     -2.595894    0.768877    0.687318
  C     -1.977950   -2.655140    1.086712
  C     -0.953533   -3.380707    0.193537
  H     -2.988506   -2.998346    0.848910
  H     -1.783465   -2.941693    2.132688
  C      0.481121   -2.882027    0.414196
  H     -1.236543   -3.245341   -0.858044
  H     -1.002111   -4.458328    0.392733
  C      0.587521   -1.358509    0.260470
  H      1.149387   -3.401009   -0.280740
  H      0.804438   -3.151140    1.431190
  C     -0.434912   -0.715427    1.249974
  H     -0.157970   -1.125824    2.238818
  C     -0.061303    0.762640    1.256447
  H     -8.969362    0.209428   -1.260095
  C      1.483841    0.741600    1.161571
  H     -0.423637    1.277300    2.152737
  H     -0.495618    1.275973    0.391317
  C      1.904355   -0.713315    0.781549
  H      1.943081    1.043998    2.106339
  H      1.843993    1.446798    0.403077
  H      2.162525   -1.260115    1.702426
  C      3.130848   -0.733847   -0.140554
  C      0.292495   -0.925664   -1.182565
  H     -0.753605   -1.106309   -1.448719
  H      0.919223   -1.477479   -1.891179
  H      0.486108    0.141419   -1.330202
  H      2.874551   -0.156867   -1.043311
  C      3.549758   -2.143245   -0.599533
  C      4.356050   -0.077123    0.458882
  C      4.621303    0.108740    1.751627
  H      5.112561    0.196901   -0.277999
  H      3.877285   -0.183928    2.494646
  C      5.881812    0.685458    2.342991
  C      6.899684    1.144817    1.300851
  C      6.468940   -0.303988    3.389158
  H      5.575580    1.573421    2.922730
  H      5.630734   -0.579362    4.047923
  C      7.541057    0.350923    4.263508
  C      7.001446   -1.589209    2.752260
  H      6.461357    1.900810    0.640975
  H      7.240955    0.313840    0.674331
  H      7.776924    1.590223    1.778786
  H      7.836069   -0.321474    5.076805
  H      7.176918    1.283657    4.709626
  H      8.443362    0.580446    3.685532
  H      7.898446   -1.391949    2.153851
  H      6.253418   -2.052319    2.099175
  H      7.275499   -2.315036    3.525808
  H      4.509169   -2.101387   -1.127366
  H      2.818133   -2.592020   -1.276413
  H      3.673446   -2.802145    0.268052

----------------------------
CARTESIAN COORDINATES (A.U.)
----------------------------
  NO LB      ZA    FRAG     MASS         X           Y           Z
   0 C     6.0000    0    12.011   -9.854945    0.447582    0.264691
   1 C     6.0000    0    12.011  -12.427984   -0.480706   -0.550714
   2 C     6.0000    0    12.011  -13.328910    0.841201   -2.967571
   3 H     1.0000    0     1.008  -13.820943   -0.053606    0.940555
   4 H     1.0000    0     1.008  -12.411309   -2.531673   -0.831936
   5 C     6.0000    0    12.011   -9.637848    3.229601    0.411301
   6 C     6.0000    0    12.011  -10.629253    4.612342   -1.884325
   7 C     6.0000    0    12.011  -13.282148    3.701328   -2.622600
   8 H     1.0000    0     1.008   -9.343687    4.244720   -3.477483
   9 H     1.0000    0     1.008  -10.626465    6.654015   -1.546553
  10 H     1.0000    0     1.008  -13.896939    4.625393   -4.372069
  11 H     1.0000    0     1.008  -14.636785    4.212959   -1.129891
  12 O     8.0000    0    15.999  -15.778872   -0.042878   -3.712885
  13 H     1.0000    0     1.008  -12.070709    0.316147   -4.534064
  14 C     6.0000    0    12.011   -7.943873   -1.194666    0.709893
  15 C     6.0000    0    12.011   -8.728393    4.449585    2.430222
  16 H     1.0000    0     1.008   -8.070610    3.432355    4.087837
  17 H     1.0000    0     1.008   -8.640507    6.502239    2.473486
  18 C     6.0000    0    12.011   -5.361880   -0.550808    1.317827
  19 H     1.0000    0     1.008   -8.396843   -3.192028    0.506847
  20 C     6.0000    0    12.011   -3.481039   -2.186785    1.865103
  21 H     1.0000    0     1.008   -4.905529    1.452967    1.298844
  22 C     6.0000    0    12.011   -3.737784   -5.017487    2.053587
  23 C     6.0000    0    12.011   -1.801917   -6.388611    0.365732
  24 H     1.0000    0     1.008   -5.647458   -5.666053    1.604208
  25 H     1.0000    0     1.008   -3.370260   -5.558995    4.030196
  26 C     6.0000    0    12.011    0.909187   -5.446242    0.782717
  27 H     1.0000    0     1.008   -2.336728   -6.132806   -1.621469
  28 H     1.0000    0     1.008   -1.893715   -8.425019    0.742159
  29 C     6.0000    0    12.011    1.110254   -2.567209    0.492218
  30 H     1.0000    0     1.008    2.172027   -6.426975   -0.530523
  31 H     1.0000    0     1.008    1.520168   -5.954791    2.704557
  32 C     6.0000    0    12.011   -0.821864   -1.351961    2.362108
  33 H     1.0000    0     1.008   -0.298520   -2.127500    4.230753
  34 C     6.0000    0    12.011   -0.115846    1.441180    2.374341
  35 H     1.0000    0     1.008  -16.949639    0.395762   -2.381235
  36 C     6.0000    0    12.011    2.804052    1.401421    2.195051
  37 H     1.0000    0     1.008   -0.800558    2.413748    4.068083
  38 H     1.0000    0     1.008   -0.936581    2.411240    0.739482
  39 C     6.0000    0    12.011    3.598710   -1.347970    1.476914
  40 H     1.0000    0     1.008    3.671891    1.972870    3.980403
  41 H     1.0000    0     1.008    3.484641    2.734052    0.761705
  42 H     1.0000    0     1.008    4.086579   -2.381272    3.217119
  43 C     6.0000    0    12.011    5.916445   -1.386770   -0.265609
  44 C     6.0000    0    12.011    0.552735   -1.749252   -2.234724
  45 H     1.0000    0     1.008   -1.424107   -2.090621   -2.737682
  46 H     1.0000    0     1.008    1.737079   -2.792030   -3.573811
  47 H     1.0000    0     1.008    0.918611    0.267244   -2.513717
  48 H     1.0000    0     1.008    5.432115   -0.296435   -1.971572
  49 C     6.0000    0    12.011    6.708070   -4.050146   -1.132952
  50 C     6.0000    0    12.011    8.231742   -0.145741    0.867162
  51 C     6.0000    0    12.011    8.732998    0.205488    3.310096
  52 H     1.0000    0     1.008    9.661341    0.372089   -0.525342
  53 H     1.0000    0     1.008    7.327007   -0.347574    4.714199
  54 C     6.0000    0    12.011   11.115013    1.295328    4.427611
  55 C     6.0000    0    12.011   13.038514    2.163391    2.458252
  56 C     6.0000    0    12.011   12.224525   -0.574454    6.404580
  57 H     1.0000    0     1.008   10.536318    2.973334    5.523159
  58 H     1.0000    0     1.008   10.640544   -1.094836    7.649466
  59 C     6.0000    0    12.011   14.250532    0.663148    8.056862
  60 C     6.0000    0    12.011   13.230815   -3.003169    5.201017
  61 H     1.0000    0     1.008   12.210195    3.592010    1.211267
  62 H     1.0000    0     1.008   13.683423    0.593072    1.274300
  63 H     1.0000    0     1.008   14.696256    3.005086    3.361419
  64 H     1.0000    0     1.008   14.808024   -0.607498    9.593771
  65 H     1.0000    0     1.008   13.562409    2.425760    8.899904
  66 H     1.0000    0     1.008   15.955641    1.096884    6.964646
  67 H     1.0000    0     1.008   14.925901   -2.630401    4.070189
  68 H     1.0000    0     1.008   11.817248   -3.878321    3.966867
  69 H     1.0000    0     1.008   13.748700   -4.374785    6.662811
  70 H     1.0000    0     1.008    8.521094   -3.971045   -2.130413
  71 H     1.0000    0     1.008    5.325500   -4.898207   -2.412071
  72 H     1.0000    0     1.008    6.941808   -5.295286    0.506544

--------------------------------
INTERNAL COORDINATES (ANGSTROEM)
--------------------------------
 C      0   0   0     0.000000000000     0.00000000     0.00000000
 C      1   0   0     1.510440356956     0.00000000     0.00000000
 C      2   1   0     1.533728703673   111.72164064     0.00000000
 H      2   1   3     1.103259169673   109.34931490   241.52021844
 H      2   1   3     1.095515328878   110.71637872   122.90152516
 C      1   2   3     1.478693382122   114.13037008    50.65680278
 C      6   1   2     1.512072898415   114.37306861   311.75647930
 C      3   2   1     1.524684246791   110.35685992   305.06823991
 H      7   6   1     1.100635205563   108.38491511   290.18773208
 H      7   6   1     1.095093199594   110.23232992   172.94137056
 H      8   3   2     1.096368527799   109.68374308   178.99172326
 H      8   3   2     1.100509163021   108.63757430   296.40113385
 O      3   2   1     1.433611565976   111.20330200   180.38570971
 H      3   2   1     1.098938475184   108.98791611    65.17135685
 C      1   2   3     1.354050755082   120.94674757   232.98600037
 C      6   1   2     1.337835858884   123.38643614   129.46981831
 H     16   6   1     1.086441428350   121.39390846     0.73265085
 H     16   6   1     1.087453941739   120.94467086   181.35635728
 C     15   1   2     1.444452237125   126.42970749   175.23389562
 H     15   1   2     1.089111162901   116.18799196   358.01827017
 C     19  15   1     1.350542238007   126.41724396   177.03398182
 H     19  15   1     1.087550256840   115.97398617   356.05172945
 C     21  19  15     1.507395063518   125.78633232   357.31433555
 C     23  21  19     1.540661862737   111.69726705   126.79031885
 H     23  21  19     1.093418445336   112.38484478     2.71027070
 H     23  21  19     1.101818658398   107.77910840   245.37987583
 C     24  23  21     1.534798025364   112.65417513    50.96610486
 H     24  23  21     1.097379600801   109.02412865   288.81204780
 H     24  23  21     1.096952804140   109.14294285   172.87249084
 C     27  24  23     1.534946709411   111.89417234   306.29848676
 H     27  24  23     1.094923731480   108.98082524   182.67390227
 H     27  24  23     1.100560147112   109.14812312    66.21766795
 C     21  19  15     1.498156488687   122.74023662   177.18606083
 H     33  21  19     1.105864505560   106.42533771   124.86998335
 C     33  21  19     1.524567733051   121.11807783     2.40753316
 H     13   3   2     0.966584248061   107.50019332    62.69152465
 C     35  33  21     1.548196789908   103.36420465   195.35226863
 H     35  33  21     1.095215539471   112.20896650    73.59454230
 H     35  33  21     1.095714813825   110.71469245   313.93158268
 C     30  27  24     1.556229652542   115.88855929   166.29484071
 H     37  35  33     1.093129216739   111.25768724   251.27930730
 H     37  35  33     1.096506577268   111.18970373   132.90105031
 H     40  30  27     1.101660309456   105.80753780   321.67185605
 C     40  30  27     1.534594652856   118.00457098    82.57020590
 C     30  27  24     1.535169459897   111.14144135   294.41110244
 H     45  30  27     1.094438297207   111.45342954    67.11034354
 H     45  30  27     1.095180950638   110.86443470   306.96643529
 H     45  30  27     1.094508967334   111.57293979   187.02776322
 H     44  40  30     1.101618785521   107.42498194    62.05848329
 C     44  40  30     1.540308429036   114.12024344   303.16919651
 C     44  40  30     1.513846774352   113.77259110   179.78856864
 C     51  44  40     1.332701619038   127.27795108    23.09959283
 H     51  44  40     1.091050596513   113.74672570   198.51714063
 H     52  51  44     1.091464739144   119.16148159   356.55367196
 C     52  51  44     1.507048772730   126.90407251   175.86179107
 C     55  52  51     1.527458656647   113.87433096     2.91835766
 C     55  52  51     1.555052818209   109.65111399   234.52349174
 H     55  52  51     1.103790267188   106.37369871   121.17742475
 H     57  55  52     1.101087165615   105.91480054   310.64095580
 C     57  55  52     1.530630272726   112.11804387   193.83988710
 C     57  55  52     1.530030719563   112.69545403    68.14412170
 H     56  55  52     1.095030875010   110.61090785    58.31652057
 H     56  55  52     1.095224554081   111.70082507   298.38063338
 H     56  55  52     1.093780941231   111.02633629   177.76429118
 H     60  57  55     1.095719871039   110.48856383   172.14958527
 H     60  57  55     1.096180807692   111.33818074    52.10270435
 H     60  57  55     1.095851949483   111.41160650   291.39793388
 H     61  57  55     1.096181720484   111.15408049    68.73592280
 H     61  57  55     1.095689643659   111.44130371   308.18498268
 H     61  57  55     1.095585230448   110.46596723   187.92709163
 H     50  44  40     1.095823671934   110.28482157   188.36365949
 H     50  44  40     1.093087521977   112.21923931    68.33735892
 H     50  44  40     1.096426088565   110.16793050   307.21490005

---------------------------
INTERNAL COORDINATES (A.U.)
---------------------------
 C      0   0   0     0.000000000000     0.00000000     0.00000000
 C      1   0   0     2.854318616269     0.00000000     0.00000000
 C      2   1   0     2.898327213676   111.72164064     0.00000000
 H      2   1   3     2.084857685419   109.34931490   241.52021844
 H      2   1   3     2.070223947093   110.71637872   122.90152516
 C      1   2   3     2.794325528251   114.13037008    50.65680278
 C      6   1   2     2.857403672530   114.37306861   311.75647930
 C      3   2   1     2.881235667139   110.35685992   305.06823991
 H      7   6   1     2.079899111866   108.38491511   290.18773208
 H      7   6   1     2.069426238353   110.23232992   172.94137056
 H      8   3   2     2.071836259390   109.68374308   178.99172326
 H      8   3   2     2.079660925981   108.63757430   296.40113385
 O      3   2   1     2.709133242116   111.20330200   180.38570971
 H      3   2   1     2.076692756127   108.98791611    65.17135685
 C      1   2   3     2.558785098535   120.94674757   232.98600037
 C      6   1   2     2.528143385431   123.38643614   129.46981831
 H     16   6   1     2.053076760129   121.39390846     0.73265085
 H     16   6   1     2.054990133140   120.94467086   181.35635728
 C     15   1   2     2.729619141697   126.42970749   175.23389562
 H     15   1   2     2.058121827280   116.18799196   358.01827017
 C     19  15   1     2.552154962126   126.41724396   177.03398182
 H     19  15   1     2.055172142303   115.97398617   356.05172945
 C     21  19  15     2.848563845674   125.78633232   357.31433555
 C     23  21  19     2.911428985549   111.69726705   126.79031885
 H     23  21  19     2.066261411463   112.38484478     2.71027070
 H     23  21  19     2.082135513616   107.77910840   245.37987583
 C     24  23  21     2.900347938822   112.65417513    50.96610486
 H     24  23  21     2.073746910465   109.02412865   288.81204780
 H     24  23  21     2.072940381661   109.14294285   172.87249084
 C     27  24  23     2.900628910950   111.89417234   306.29848676
 H     27  24  23     2.069105990029   108.98082524   182.67390227
 H     27  24  23     2.079757271949   109.14812312    66.21766795
 C     21  19  15     2.831105469376   122.74023662   177.18606083
 H     33  21  19     2.089781056733   106.42533771   124.86998335
 C     33  21  19     2.881015488080   121.11807783     2.40753316
 H     13   3   2     1.826579514197   107.50019332    62.69152465
 C     35  33  21     2.925667934343   103.36420465   195.35226863
 H     35  33  21     2.069657427216   112.20896650    73.59454230
 H     35  33  21     2.070600919010   110.71469245   313.93158268
 C     30  27  24     2.940847844791   115.88855929   166.29484071
 H     37  35  33     2.065714848624   111.25768724   251.27930730
 H     37  35  33     2.072097135080   111.18970373   132.90105031
 H     40  30  27     2.081836277483   105.80753780   321.67185605
 C     40  30  27     2.899963620477   118.00457098    82.57020590
 C     30  27  24     2.901049848365   111.14144135   294.41110244
 H     45  30  27     2.068188652197   111.45342954    67.11034354
 H     45  30  27     2.069592063793   110.86443470   306.96643529
 H     45  30  27     2.068322199382   111.57293979   187.02776322
 H     44  40  30     2.081757808617   107.42498194    62.05848329
 C     44  40  30     2.910761092649   114.12024344   303.16919651
 C     44  40  30     2.860755812245   113.77259110   179.78856864
 C     51  44  40     2.518441078216   127.27795108    23.09959283
 H     51  44  40     2.061786825660   113.74672570   198.51714063
 H     52  51  44     2.062569441814   119.16148159   356.55367196
 C     52  51  44     2.847909450921   126.90407251   175.86179107
 C     55  52  51     2.886478541950   113.87433096     2.91835766
 C     55  52  51     2.938623950198   109.65111399   234.52349174
 H     55  52  51     2.085861314273   106.37369871   121.17742475
 H     57  55  52     2.080753192588   105.91480054   310.64095580
 C     57  55  52     2.892472027741   112.11804387   193.83988710
 C     57  55  52     2.891339036460   112.69545403    68.14412170
 H     56  55  52     2.069308461956   110.61090785    58.31652057
 H     56  55  52     2.069674462360   111.70082507   298.38063338
 H     56  55  52     2.066946429428   111.02633629   177.76429118
 H     60  57  55     2.070610475759   110.48856383   172.14958527
 H     60  57  55     2.071481519799   111.33818074    52.10270435
 H     60  57  55     2.070860067846   111.41160650   291.39793388
 H     61  57  55     2.071483244725   111.15408049    68.73592280
 H     61  57  55     2.070553354289   111.44130371   308.18498268
 H     61  57  55     2.070356041915   110.46596723   187.92709163
 H     50  44  40     2.070806631023   110.28482157   188.36365949
 H     50  44  40     2.065636056944   112.21923931    68.33735892
 H     50  44  40     2.071945033474   110.16793050   307.21490005

---------------------
BASIS SET INFORMATION
---------------------
There are 3 groups of distinct atoms

 Group   1 Type C   : 7s4p1d contracted to 3s2p1d pattern {511/31/1}
 Group   2 Type H   : 4s1p contracted to 2s1p pattern {31/1}
 Group   3 Type O   : 7s4p1d contracted to 3s2p1d pattern {511/31/1}

Atom   0C    basis set group =>   1
Atom   1C    basis set group =>   1
Atom   2C    basis set group =>   1
Atom   3H    basis set group =>   2
Atom   4H    basis set group =>   2
Atom   5C    basis set group =>   1
Atom   6C    basis set group =>   1
Atom   7C    basis set group =>   1
Atom   8H    basis set group =>   2
Atom   9H    basis set group =>   2
Atom  10H    basis set group =>   2
Atom  11H    basis set group =>   2
Atom  12O    basis set group =>   3
Atom  13H    basis set group =>   2
Atom  14C    basis set group =>   1
Atom  15C    basis set group =>   1
Atom  16H    basis set group =>   2
Atom  17H    basis set group =>   2
Atom  18C    basis set group =>   1
Atom  19H    basis set group =>   2
Atom  20C    basis set group =>   1
Atom  21H    basis set group =>   2
Atom  22C    basis set group =>   1
Atom  23C    basis set group =>   1
Atom  24H    basis set group =>   2
Atom  25H    basis set group =>   2
Atom  26C    basis set group =>   1
Atom  27H    basis set group =>   2
Atom  28H    basis set group =>   2
Atom  29C    basis set group =>   1
Atom  30H    basis set group =>   2
Atom  31H    basis set group =>   2
Atom  32C    basis set group =>   1
Atom  33H    basis set group =>   2
Atom  34C    basis set group =>   1
Atom  35H    basis set group =>   2
Atom  36C    basis set group =>   1
Atom  37H    basis set group =>   2
Atom  38H    basis set group =>   2
Atom  39C    basis set group =>   1
Atom  40H    basis set group =>   2
Atom  41H    basis set group =>   2
Atom  42H    basis set group =>   2
Atom  43C    basis set group =>   1
Atom  44C    basis set group =>   1
Atom  45H    basis set group =>   2
Atom  46H    basis set group =>   2
Atom  47H    basis set group =>   2
Atom  48H    basis set group =>   2
Atom  49C    basis set group =>   1
Atom  50C    basis set group =>   1
Atom  51C    basis set group =>   1
Atom  52H    basis set group =>   2
Atom  53H    basis set group =>   2
Atom  54C    basis set group =>   1
Atom  55C    basis set group =>   1
Atom  56C    basis set group =>   1
Atom  57H    basis set group =>   2
Atom  58H    basis set group =>   2
Atom  59C    basis set group =>   1
Atom  60C    basis set group =>   1
Atom  61H    basis set group =>   2
Atom  62H    basis set group =>   2
Atom  63H    basis set group =>   2
Atom  64H    basis set group =>   2
Atom  65H    basis set group =>   2
Atom  66H    basis set group =>   2
Atom  67H    basis set group =>   2
Atom  68H    basis set group =>   2
Atom  69H    basis set group =>   2
Atom  70H    basis set group =>   2
Atom  71H    basis set group =>   2
Atom  72H    basis set group =>   2

-------------------------
BASIS SET IN INPUT FORMAT
-------------------------

 # Basis set for element : H 
 NewGTO H 
 S 3 
   1      13.0107010000      0.0334854848
   2       1.9622572000      0.2347218709
   3       0.4445379600      0.8137702853
 S 1 
   1       0.1219496200      1.0000000000
 P 1 
   1       0.8000000000      1.0000000000
  end;

 # Basis set for element : C 
 NewGTO C 
 S 5 
   1    1238.4016938000      0.0055173650
   2     186.2900499200      0.0410888285
   3      42.2511763460      0.1822538213
   4      11.6765579320      0.4682845944
   5       3.5930506482      0.4457581734
 S 1 
   1       0.4024514736      1.0000000000
 S 1 
   1       0.1309018267      1.0000000000
 P 3 
   1       9.4680970621      0.0568883320
   2       2.0103545142      0.3129405934
   3       0.5477100471      0.7606501651
 P 1 
   1       0.1526861379      1.0000000000
 D 1 
   1       0.8000000000      1.0000000000
  end;

 # Basis set for element : O 
 NewGTO O 
 S 5 
   1    2266.1767785000     -0.0053893504
   2     340.8701019100     -0.0402347214
   3      77.3631351670     -0.1800818421
   4      21.4796449400     -0.4682885766
   5       6.6589433124     -0.4469261716
 S 1 
   1       0.8097597567      1.0000000000
 S 1 
   1       0.2553077223      1.0000000000
 P 3 
   1      17.7215043170      0.0626302488
   2       3.8635505440      0.3333113849
   3       1.0480920883      0.7414863830
 P 1 
   1       0.2764154441      1.0000000000
 D 1 
   1       1.2000000000      1.0000000000
  end;

---------------------------------
AUXILIARY/J BASIS SET INFORMATION
---------------------------------
There are 3 groups of distinct atoms

 Group   1 Type C   : 12s5p4d2f1g contracted to 6s4p3d1f1g pattern {711111/2111/211/2/1}
 Group   2 Type H   : 5s2p1d contracted to 3s1p1d pattern {311/2/1}
 Group   3 Type O   : 12s5p4d2f1g contracted to 6s4p3d1f1g pattern {711111/2111/211/2/1}

Atom   0C    basis set group =>   1
Atom   1C    basis set group =>   1
Atom   2C    basis set group =>   1
Atom   3H    basis set group =>   2
Atom   4H    basis set group =>   2
Atom   5C    basis set group =>   1
Atom   6C    basis set group =>   1
Atom   7C    basis set group =>   1
Atom   8H    basis set group =>   2
Atom   9H    basis set group =>   2
Atom  10H    basis set group =>   2
Atom  11H    basis set group =>   2
Atom  12O    basis set group =>   3
Atom  13H    basis set group =>   2
Atom  14C    basis set group =>   1
Atom  15C    basis set group =>   1
Atom  16H    basis set group =>   2
Atom  17H    basis set group =>   2
Atom  18C    basis set group =>   1
Atom  19H    basis set group =>   2
Atom  20C    basis set group =>   1
Atom  21H    basis set group =>   2
Atom  22C    basis set group =>   1
Atom  23C    basis set group =>   1
Atom  24H    basis set group =>   2
Atom  25H    basis set group =>   2
Atom  26C    basis set group =>   1
Atom  27H    basis set group =>   2
Atom  28H    basis set group =>   2
Atom  29C    basis set group =>   1
Atom  30H    basis set group =>   2
Atom  31H    basis set group =>   2
Atom  32C    basis set group =>   1
Atom  33H    basis set group =>   2
Atom  34C    basis set group =>   1
Atom  35H    basis set group =>   2
Atom  36C    basis set group =>   1
Atom  37H    basis set group =>   2
Atom  38H    basis set group =>   2
Atom  39C    basis set group =>   1
Atom  40H    basis set group =>   2
Atom  41H    basis set group =>   2
Atom  42H    basis set group =>   2
Atom  43C    basis set group =>   1
Atom  44C    basis set group =>   1
Atom  45H    basis set group =>   2
Atom  46H    basis set group =>   2
Atom  47H    basis set group =>   2
Atom  48H    basis set group =>   2
Atom  49C    basis set group =>   1
Atom  50C    basis set group =>   1
Atom  51C    basis set group =>   1
Atom  52H    basis set group =>   2
Atom  53H    basis set group =>   2
Atom  54C    basis set group =>   1
Atom  55C    basis set group =>   1
Atom  56C    basis set group =>   1
Atom  57H    basis set group =>   2
Atom  58H    basis set group =>   2
Atom  59C    basis set group =>   1
Atom  60C    basis set group =>   1
Atom  61H    basis set group =>   2
Atom  62H    basis set group =>   2
Atom  63H    basis set group =>   2
Atom  64H    basis set group =>   2
Atom  65H    basis set group =>   2
Atom  66H    basis set group =>   2
Atom  67H    basis set group =>   2
Atom  68H    basis set group =>   2
Atom  69H    basis set group =>   2
Atom  70H    basis set group =>   2
Atom  71H    basis set group =>   2
Atom  72H    basis set group =>   2

-------------------------------------
AUXILIARY/J BASIS SET IN INPUT FORMAT
-------------------------------------

 # Auxiliary/J basis set for element : H 
 NewAuxJGTO H 
 S 3 
   1      15.6752927000      0.1007184237
   2       3.6063578000      0.3404257499
   3       1.2080016000      0.6491996172
 S 1 
   1       0.4726794000      1.0000000000
 S 1 
   1       0.2018100000      1.0000000000
 P 2 
   1       2.0281365000      0.5596620919
   2       0.5358730000      0.5596620919
 D 1 
   1       2.2165124000      1.0000000000
  end;

 # Auxiliary/J basis set for element : C 
 NewAuxJGTO C 
 S 7 
   1    1861.0916331000      0.0134602335
   2     642.9939764000      0.0299160374
   3     235.1105725000      0.1008649584
   4      90.7028894000      0.2370970548
   5      36.7794552000      0.3924037254
   6      15.6046273000      0.3195862154
   7       6.8907294000      0.0530104441
 S 1 
   1       3.1478850000     -1.0000000000
 S 1 
   1       1.4777287000      1.0000000000
 S 1 
   1       0.7076466000      1.0000000000
 S 1 
   1       0.3430122000      1.0000000000
 S 1 
   1       0.1669453000      1.0000000000
 P 2 
   1      13.5472892000     -0.6769313712
   2       5.4669419000     -0.3779500978
 P 1 
   1       2.1751721000      1.0000000000
 P 1 
   1       0.8582194000      1.0000000000
 P 1 
   1       0.3376720000      1.0000000000
 D 2 
   1       5.9287253000     -0.3533329857
   2       1.9809209000     -0.7456525731
 D 1 
   1       0.8055417000     -1.0000000000
 D 1 
   1       0.3531244000     -1.0000000000
 F 2 
   1       1.6755626000      0.6311076882
   2       0.5997536000      0.4968166032
 G 1 
   1       1.0024600000     -1.0000000000
  end;

 # Auxiliary/J basis set for element : O 
 NewAuxJGTO O 
 S 7 
   1    2876.8216605000      0.0168151159
   2    1004.7443032000      0.0340137548
   3     369.7579954000      0.1194951309
   4     142.9442404000      0.2664627624
   5      57.8366425000      0.4202764046
   6      24.3864983000      0.2765077335
   7      10.6622662000      0.0057008815
 S 1 
   1       4.8070437000     -1.0000000000
 S 1 
   1       2.2210770000      1.0000000000
 S 1 
   1       1.0447795000      1.0000000000
 S 1 
   1       0.4968425000      1.0000000000
 S 1 
   1       0.2371384000      1.0000000000
 P 2 
   1      64.2613382000     -0.2731534179
   2      16.3006076000     -0.8168011598
 P 1 
   1       4.3550542000      1.0000000000
 P 1 
   1       1.2019554000      1.0000000000
 P 1 
   1       0.3354196000      1.0000000000
 D 2 
   1       9.2146611000     -0.4661230638
   2       2.8435251000     -0.6600908911
 D 1 
   1       0.9955759000     -1.0000000000
 D 1 
   1       0.3649441000     -1.0000000000
 F 2 
   1       2.6420115000      0.5931563945
   2       0.7345613000      0.5931563945
 G 1 
   1       1.3931000000     -1.0000000000
  end;


Checking for AutoStart:
The File: inpS.gbw exists
Trying to determine its content:
     ... Fine, the file contains calculation information
     ... Fine, the calculation information was read
     ... Fine, the file contains a basis set
     ... Fine, the basis set was read
     ... Fine, the file contains a geometry
     ... Fine, the geometry was read
     ... Fine, the file contains a set of orbitals
     ... Fine, the orbitals can be read
     => possible old guess file was deleted
     => GBW file was renamed to GES file
     => GES file is set as startup file
     => Guess is set to MORead
     ... now leaving AutoStart



           ************************************************************
           *        Program running with 4 parallel MPI-processes     *
           *              working on a common directory               *
           ************************************************************
------------------------------------------------------------------------------
                             ORCA STARTUP CALCULATIONS
                           -- RI-GTO INTEGRALS CHOSEN --
------------------------------------------------------------------------------
------------------------------------------------------------------------------
                   ___                                                        
                  /   \      - P O W E R E D   B Y -                         
                 /     \                                                     
                 |  |  |   _    _      __       _____    __    __             
                 |  |  |  | |  | |    /  \     |  _  \  |  |  /  |          
                  \  \/   | |  | |   /    \    | | | |  |  | /  /          
                 / \  \   | |__| |  /  /\  \   | |_| |  |  |/  /          
                |  |  |   |  __  | /  /__\  \  |    /   |      \           
                |  |  |   | |  | | |   __   |  |    \   |  |\   \          
                \     /   | |  | | |  |  |  |  | |\  \  |  | \   \       
                 \___/    |_|  |_| |__|  |__|  |_| \__\ |__|  \__/        
                                                                              
                      - O R C A' S   B I G   F R I E N D -                    
                                      &                                       
                       - I N T E G R A L  F E E D E R -                       
                                                                              
 v1 FN, 2020, v2 2021, v3 2022-2024                                           
------------------------------------------------------------------------------


----------------------
SHARK INTEGRAL PACKAGE
----------------------

Number of atoms                             ...     73
Number of basis functions                   ...    626
Number of shells                            ...    306
Maximum angular momentum                    ...      2
Integral batch strategy                     ... SHARK/LIBINT Hybrid
RI-J (if used) integral strategy            ... SPLIT-RIJ (Revised 2003 algorithm where possible)
Printlevel                                  ...      1
Contraction scheme used                     ... SEGMENTED contraction
Prescreening option                         ... SCHWARTZ
   Thresh                                   ... 3.000e-11
   Tcut                                     ... 1.000e-12
   Tpresel                                  ... 1.000e-12 
Coulomb Range Separation                    ... NOT USED
Exchange Range Separation                   ... Long Range
   Mu parameter                             ... 3.000e-01
   Scaling (regular/separated)              ... 1.670e-01 8.330e-01
Multipole approximations                    ... NOT USED
Finite Nucleus Model                        ... NOT USED
CABS basis                                  ... NOT available
Auxiliary Coulomb fitting basis             ... AVAILABLE
   # of basis functions in Aux-J            ...   1905
   # of shells in Aux-J                     ...    655
   Maximum angular momentum in Aux-J        ...      4
Auxiliary J/K fitting basis                 ... NOT available
Auxiliary Correlation fitting basis         ... NOT available
Auxiliary 'external' fitting basis          ... NOT available

Checking pre-screening integrals            ... done (  0.0 sec) Dimension = 306
Check shell pair data                       ... done (  0.0 sec)
Shell pair information
Shell pair cut-off parameter TPreSel        ...   1.0e-12
Total number of shell pairs                 ...     46971
Shell pairs after pre-screening             ...     27396
Total number of primitive shell pairs       ...    162105
Primitive shell pairs kept                  ...     60573
          la=0 lb=0:   9591 shell pairs
          la=1 lb=0:  10513 shell pairs
          la=1 lb=1:   2903 shell pairs
          la=2 lb=0:   2729 shell pairs
          la=2 lb=1:   1464 shell pairs
          la=2 lb=2:    196 shell pairs

Calculating one electron integrals          ... done (  0.1 sec)
Calculating RI/J V-Matrix + Cholesky decomp.... done (  0.2 sec)
Calculating Nuclear repulsion               ... done (  0.0 sec) ENN=   2768.648229364842 Eh

Diagonalization of the overlap matrix:
Smallest eigenvalue                        ... 4.559e-04
Time for diagonalization                   ...    0.043 sec
Threshold for overlap eigenvalues          ... 1.000e-07
Number of eigenvalues below threshold      ... 0
Time for construction of square roots      ...    0.024 sec
Total time needed                          ...    0.070 sec

-------------------
DFT GRID GENERATION
-------------------

General Integration Accuracy     IntAcc      ... 4.388
Radial Grid Type                 RadialGrid  ... OptM3 with GC (2021)
Angular Grid (max. ang.)         AngularGrid ... 4 (Lebedev-302)
Angular grid pruning method      GridPruning ... 4 (adaptive)
Weight generation scheme         WeightScheme... mBecke (2022)
Basis function cutoff            BFCut       ... 1.0000e-11
Integration weight cutoff        WCut        ... 1.0000e-14
Partially contracted basis set               ... off
Rotationally invariant grid construction     ... off
Angular grids for H and He will be reduced by one unit

Total number of grid points                  ...   309977
Total number of batches                      ...     4879
Average number of points per batch           ...       63
Average number of grid points per atom       ...     4246

--------------------
COSX GRID GENERATION
--------------------

GRIDX 1
-------
General Integration Accuracy     IntAcc      ... 3.816
Radial Grid Type                 RadialGrid  ... OptM3 with GC (2021)
Angular Grid (max. ang.)         AngularGrid ... 1 (Lebedev-50)
Angular grid pruning method      GridPruning ... 4 (adaptive)
Weight generation scheme         WeightScheme... mBecke (2022)
Basis function cutoff            BFCut       ... 1.0000e-11
Integration weight cutoff        WCut        ... 1.0000e-14
Partially contracted basis set               ... on
Rotationally invariant grid construction     ... off
Angular grids for H and He will be reduced by one unit

Total number of grid points                  ...    39416
Total number of batches                      ...      350
Average number of points per batch           ...      112
Average number of grid points per atom       ...      540
UseSFitting                                  ... on

GRIDX 2
-------
General Integration Accuracy     IntAcc      ... 4.020
Radial Grid Type                 RadialGrid  ... OptM3 with GC (2021)
Angular Grid (max. ang.)         AngularGrid ... 2 (Lebedev-110)
Angular grid pruning method      GridPruning ... 4 (adaptive)
Weight generation scheme         WeightScheme... mBecke (2022)
Basis function cutoff            BFCut       ... 1.0000e-11
Integration weight cutoff        WCut        ... 1.0000e-14
Partially contracted basis set               ... on
Rotationally invariant grid construction     ... off
Angular grids for H and He will be reduced by one unit

Total number of grid points                  ...    81412
Total number of batches                      ...      677
Average number of points per batch           ...      120
Average number of grid points per atom       ...     1115
UseSFitting                                  ... on

GRIDX 3
-------
General Integration Accuracy     IntAcc      ... 4.338
Radial Grid Type                 RadialGrid  ... OptM3 with GC (2021)
Angular Grid (max. ang.)         AngularGrid ... 3 (Lebedev-194)
Angular grid pruning method      GridPruning ... 4 (adaptive)
Weight generation scheme         WeightScheme... mBecke (2022)
Basis function cutoff            BFCut       ... 1.0000e-11
Integration weight cutoff        WCut        ... 1.0000e-14
Partially contracted basis set               ... on
Rotationally invariant grid construction     ... off
Angular grids for H and He will be reduced by one unit

Total number of grid points                  ...   176268
Total number of batches                      ...     1419
Average number of points per batch           ...      124
Average number of grid points per atom       ...     2415
UseSFitting                                  ... on
Initializing property integral containers    ... done (  0.0 sec)

SHARK setup successfully completed in   4.5 seconds

Maximum memory used throughout the entire STARTUP-calculation: 95.4 MB


           ************************************************************
           *        Program running with 4 parallel MPI-processes     *
           *              working on a common directory               *
           ************************************************************
-------------------------------------------------------------------------------
                                 ORCA GUESS
                   Start orbitals & Density for SCF / CASSCF
-------------------------------------------------------------------------------

------------
SCF SETTINGS
------------
Hamiltonian:
 Density Functional     Method          .... DFT(GTOs)
 Exchange Functional    Exchange        .... WB97X-V
 Correlation Functional Correlation     .... WB97X-V
 Gradients option       PostSCFGGA      .... off
 Hybrid DFT is turned on
   Fraction HF Exchange ScalHFX         ....  0.167000
   Scaling of DF-GGA-X  ScalDFX         ....  0.000000
   Scaling of DF-GGA-C  ScalDFC         ....  1.000000
   Scaling of DF-LDA-C  ScalLDAC        ....  1.000000
   Perturbative correction              ....  0.000000
 Long-range corrected/Screened/Range-Separated Hybrid DFT is turned on
   Amount of maximum screened exact exchange              ....  0.833000
   Range separation parameter mu (erf(mu*r12)/r12)        ....  0.300000
 RI-approximation to the Coulomb term is turned on
   Number of AuxJ basis functions       .... 1905
   RIJ-COSX (HFX calculated with COS-X)).... on


General Settings:
 Integral files         IntName         .... inpS
 Hartree-Fock type      HFTyp           .... RHF
 Total Charge           Charge          ....    0
 Multiplicity           Mult            ....    1
 Number of Electrons    NEL             ....  220
 Basis Dimension        Dim             ....  626
 Nuclear Repulsion      ENuc            ....   2768.6482293648 Eh

Convergence Acceleration:
 AO-DIIS                CNVDIIS         .... on
   Start iteration      DIISMaxIt       ....    12
   Startup error        DIISStart       ....  0.200000
   # of expansion vecs  DIISMaxEq       ....     5
   Bias factor          DIISBfac        ....   1.050
   Max. coefficient     DIISMaxC        ....  10.000
 MO-DIIS                CNVKDIIS        .... off
 Trust-Rad. Augm. Hess. CNVTRAH         .... auto
   Auto Start mean grad. ratio tolernc. ....  1.125000
   Auto Start start iteration           ....     1
   Auto Start num. interpolation iter.  ....    10
   Max. Number of Micro iterations      ....    24
   Max. Number of Macro iterations      .... Maxiter - #DIIS iter
   Number of Davidson start vectors     ....     2
   Converg. threshold    (grad. norm)   ....   1.000e-04
   Grad. Scal. Fac. for Micro threshold ....   0.100
   Minimum threshold for Micro iter.    ....   1.000e-02
   NR start threshold (gradient norm)   ....   1.000e-04
   Initial trust radius                 ....   0.400
   Minimum AH scaling param. (alpha)    ....   1.000
   Maximum AH scaling param. (alpha)    .... 1000.000
   Quad. conv. algorithm                .... NR
   White noise on init. David. guess    .... on
   Maximum white noise                  ....   0.010
   Pseudo random numbers                .... off
   Inactive MOs                         .... canonical
   Orbital update algorithm             .... Taylor
   Preconditioner                       .... Diag
   Full preconditioner red. dimension   ....   250
 SOSCF                  CNVSOSCF        .... off
 Level Shifting         CNVShift        .... on
   Level shift para.    LevelShift      ....    0.2500
   Turn off err/grad.   ShiftErr        ....    0.0010
 Zerner damping         CNVZerner       .... off
 Static damping         CNVDamp         .... on
   Fraction old density DampFac         ....    0.7000
   Max. Damping (<1)    DampMax         ....    0.9800
   Min. Damping (>=0)   DampMin         ....    0.0000
   Turn off err/grad.   DampErr         ....    0.1000

SCF Procedure:
 Maximum # iterations   MaxIter         ....   125
 SCF integral mode      SCFMode         .... Direct
   Integral package                     .... SHARK and LIBINT hybrid scheme
 Reset frequency        DirectResetFreq ....    20
 Integral Threshold     Thresh          ....  3.000e-11 Eh
 Primitive CutOff       TCut            ....  1.000e-12 Eh

Convergence Tolerance:
 Convergence Check Mode ConvCheckMode   .... Total+1el-Energy
 Convergence forced     ConvForced      .... 0
 Energy Change          TolE            ....  1.000e-07 Eh
 1-El. energy change                    ....  1.000e-04 Eh
 DIIS Error             TolErr          ....  1.000e-07

---------------------
INITIAL GUESS: MOREAD
---------------------
Guess MOs are being read from file: inpS.ges
Input Geometry matches current geometry (good)
Input basis set matches current basis set (good)
Occupation numbers will be reassigned to an Aufbau configuration
MOs were renormalized
MOs were reorthogonalized (Cholesky)
                      ------------------
                      INITIAL GUESS DONE (   0.2 sec)
                      ------------------
             **** ENERGY FILE WAS UPDATED (inpS.en.tmp) ****
Finished Guess after   0.3 sec
Maximum memory used throughout the entire GUESS-calculation: 52.3 MB


           ************************************************************
           *        Program running with 4 parallel MPI-processes     *
           *              working on a common directory               *
           ************************************************************

-------------------------------------------------------------------------------------------
                                      ORCA LEAN-SCF
                              memory conserving SCF solver
-------------------------------------------------------------------------------------------

--------------------
CPCM SOLVATION MODEL
--------------------
CPCM parameters:
  Epsilon                                         ...       4.8030
  Refrac                                          ...       1.4459
  Rsolv                                           ...       1.3000
  Surface type                                    ... GAUSSIAN VDW
  Discretization scheme                           ... Constant charge density
    Threshold for H atoms                         ...       5.0000 (charges/Ang^2)
    Threshold for non-H atoms                     ...       5.0000 (charges/Ang^2)
  Epsilon function type                           ...         CPCM
Solvent:                                          ... CHLOROFORM
Radii:
  Scheme                                          ... Element-dependent radii
  Radius for C  used is    3.8550 Bohr (=   2.0400 Ang.)
  Radius for H  used is    2.4944 Bohr (=   1.3200 Ang.)
  Radius for O  used is    3.4469 Bohr (=   1.8240 Ang.)
Calculating surface                               ...        done! (  0.0s)
Cavity surface points                             ...         5419
Cavity Volume                                     ...    3601.8606
Cavity Surface-area                               ...    1791.0886
Calculating surface distance matrix               ...        done! (  0.2s)
Performing Cholesky decomposition & store         ...        done! (  1.0s)
Overall time for CPCM initialization              ...                 1.3s

----------------------------------------D-I-I-S--------------------------------------------
Iteration    Energy (Eh)           Delta-E    RMSDP     MaxDP     DIISErr   Damp  Time(sec)
-------------------------------------------------------------------------------------------
               ***  Starting incremental Fock matrix formation  ***
    1    -1168.3606931370177335     0.00e+00  3.14e-08  1.90e-06  6.05e-06  0.700  23.6

  HOMO= 109 E= -7.883 eV LUMO=  8.102 eV gap=  15.985 eV
    2    -1168.3606931196677579     1.73e-08  2.72e-08  1.39e-06  3.04e-06  0.700   4.8
                 **** Energy Check signals convergence ****

  HOMO= 109 E= -7.883 eV LUMO=  8.102 eV gap=  15.985 eV

               *****************************************************
               *                     SUCCESS                       *
               *           SCF CONVERGED AFTER   2 CYCLES          *
               *****************************************************

Recomputing exchange energy using gridx3       ... done (   41.029 sec)
Old exchange energy                            :    -56.782900240 Eh
New exchange energy                            :    -56.782840310 Eh
Exchange energy change after final integration :      0.000059930 Eh
Total energy after final integration           :  -1168.360633190 Eh
             **** ENERGY FILE WAS UPDATED (inpS.en.tmp) ****

----------------
TOTAL SCF ENERGY
----------------

Total Energy       :      -1168.36063318969877 Eh          -31792.70914 eV

Components:
Nuclear Repulsion  :       2768.64822936484188 Eh           75338.74847 eV
Electronic Energy  :      -3936.99824358598426 Eh         -107131.16865 eV
One Electron Energy:      -7082.61713827232325 Eh         -192727.81042 eV
Two Electron Energy:       3145.61889468633899 Eh           85596.64177 eV
CPCM Dielectric    :         -0.01067889852519 Eh              -0.29059 eV

Virial components:
Potential Energy   :      -2321.67369284616507 Eh          -63175.95299 eV
Kinetic Energy     :       1153.31305965646652 Eh           31383.24385 eV
Virial Ratio       :          2.01304725842410

DFT components:
N(Alpha)           :      110.000125584076 electrons
N(Beta)            :      110.000125584076 electrons
N(Total)           :      220.000251168152 electrons
E(X)               :     -111.770293731929 Eh       
E(C)               :       -8.951765831391 Eh       
E(XC)              :     -120.722059563320 Eh       

CPCM Solvation Model Properties:
Surface-charge          :         -0.04157499880590
Corrected charge        :         -0.00000000000000
Outlying charge corr.   :          0.00006021046395 Eh               0.00164 eV
Free-energy (cav+disp)  :  This term is not implemented in the current solvation scheme

---------------
SCF CONVERGENCE
---------------

  Last Energy change         ...   -1.7350e-08  Tolerance :   1.0000e-07
  Last MAX-Density change    ...    1.3930e-06  Tolerance :   1.0000e-05
  Last RMS-Density change    ...    2.7226e-08  Tolerance :   1.0000e-06
  Last DIIS Error            ...    3.0441e-06  Tolerance :   1.0000e-07


----------------
ORBITAL ENERGIES
----------------

  NO   OCC          E(Eh)            E(eV) 
   0   2.0000     -19.213681      -522.8308 
   1   2.0000     -10.329776      -281.0875 
   2   2.0000     -10.293415      -280.0981 
   3   2.0000     -10.290151      -280.0092 
   4   2.0000     -10.285974      -279.8956 
   5   2.0000     -10.285865      -279.8926 
   6   2.0000     -10.285160      -279.8734 
   7   2.0000     -10.282812      -279.8095 
   8   2.0000     -10.282339      -279.7967 
   9   2.0000     -10.281914      -279.7851 
  10   2.0000     -10.281575      -279.7759 
  11   2.0000     -10.280812      -279.7551 
  12   2.0000     -10.279474      -279.7187 
  13   2.0000     -10.278368      -279.6886 
  14   2.0000     -10.276658      -279.6421 
  15   2.0000     -10.276546      -279.6390 
  16   2.0000     -10.276472      -279.6370 
  17   2.0000     -10.276339      -279.6334 
  18   2.0000     -10.273149      -279.5466 
  19   2.0000     -10.272096      -279.5180 
  20   2.0000     -10.271746      -279.5084 
  21   2.0000     -10.271386      -279.4986 
  22   2.0000     -10.270596      -279.4771 
  23   2.0000     -10.269861      -279.4571 
  24   2.0000     -10.269413      -279.4449 
  25   2.0000     -10.268484      -279.4197 
  26   2.0000     -10.268355      -279.4161 
  27   2.0000     -10.266703      -279.3712 
  28   2.0000     -10.266419      -279.3635 
  29   2.0000      -1.131655       -30.7939 
  30   2.0000      -0.997851       -27.1529 
  31   2.0000      -0.979098       -26.6426 
  32   2.0000      -0.957406       -26.0523 
  33   2.0000      -0.942180       -25.6380 
  34   2.0000      -0.917128       -24.9563 
  35   2.0000      -0.910283       -24.7701 
  36   2.0000      -0.889331       -24.1999 
  37   2.0000      -0.887068       -24.1384 
  38   2.0000      -0.872675       -23.7467 
  39   2.0000      -0.852588       -23.2001 
  40   2.0000      -0.832035       -22.6408 
  41   2.0000      -0.825325       -22.4582 
  42   2.0000      -0.808203       -21.9923 
  43   2.0000      -0.800226       -21.7753 
  44   2.0000      -0.795099       -21.6357 
  45   2.0000      -0.786806       -21.4101 
  46   2.0000      -0.767874       -20.8949 
  47   2.0000      -0.758704       -20.6454 
  48   2.0000      -0.725453       -19.7406 
  49   2.0000      -0.712796       -19.3962 
  50   2.0000      -0.712150       -19.3786 
  51   2.0000      -0.700061       -19.0496 
  52   2.0000      -0.688910       -18.7462 
  53   2.0000      -0.669143       -18.2083 
  54   2.0000      -0.653149       -17.7731 
  55   2.0000      -0.631697       -17.1893 
  56   2.0000      -0.623419       -16.9641 
  57   2.0000      -0.619692       -16.8627 
  58   2.0000      -0.604935       -16.4611 
  59   2.0000      -0.602313       -16.3898 
  60   2.0000      -0.586672       -15.9642 
  61   2.0000      -0.584431       -15.9032 
  62   2.0000      -0.579642       -15.7729 
  63   2.0000      -0.568274       -15.4635 
  64   2.0000      -0.565505       -15.3882 
  65   2.0000      -0.563578       -15.3357 
  66   2.0000      -0.553785       -15.0692 
  67   2.0000      -0.546789       -14.8789 
  68   2.0000      -0.545484       -14.8434 
  69   2.0000      -0.543663       -14.7938 
  70   2.0000      -0.537142       -14.6164 
  71   2.0000      -0.529971       -14.4212 
  72   2.0000      -0.526789       -14.3347 
  73   2.0000      -0.518947       -14.1213 
  74   2.0000      -0.517277       -14.0758 
  75   2.0000      -0.507613       -13.8128 
  76   2.0000      -0.502948       -13.6859 
  77   2.0000      -0.502453       -13.6724 
  78   2.0000      -0.496788       -13.5183 
  79   2.0000      -0.496345       -13.5062 
  80   2.0000      -0.489347       -13.3158 
  81   2.0000      -0.487814       -13.2741 
  82   2.0000      -0.485015       -13.1979 
  83   2.0000      -0.480598       -13.0777 
  84   2.0000      -0.474292       -12.9061 
  85   2.0000      -0.469796       -12.7838 
  86   2.0000      -0.464924       -12.6512 
  87   2.0000      -0.461057       -12.5460 
  88   2.0000      -0.453837       -12.3495 
  89   2.0000      -0.451064       -12.2741 
  90   2.0000      -0.448820       -12.2130 
  91   2.0000      -0.444144       -12.0858 
  92   2.0000      -0.440717       -11.9925 
  93   2.0000      -0.431231       -11.7344 
  94   2.0000      -0.426399       -11.6029 
  95   2.0000      -0.424490       -11.5509 
  96   2.0000      -0.421300       -11.4642 
  97   2.0000      -0.419929       -11.4268 
  98   2.0000      -0.414348       -11.2750 
  99   2.0000      -0.413147       -11.2423 
 100   2.0000      -0.410866       -11.1802 
 101   2.0000      -0.409202       -11.1349 
 102   2.0000      -0.403671       -10.9845 
 103   2.0000      -0.399495       -10.8708 
 104   2.0000      -0.393770       -10.7150 
 105   2.0000      -0.380906       -10.3650 
 106   2.0000      -0.371706       -10.1146 
 107   2.0000      -0.356856        -9.7105 
 108   2.0000      -0.336152        -9.1472 
 109   2.0000      -0.289677        -7.8825 
 110   0.0000       0.047753         1.2994 
 111   0.0000       0.100604         2.7376 
 112   0.0000       0.110472         3.0061 
 113   0.0000       0.132506         3.6057 
 114   0.0000       0.143609         3.9078 
 115   0.0000       0.146428         3.9845 
 116   0.0000       0.152027         4.1369 
 117   0.0000       0.155986         4.2446 
 118   0.0000       0.158460         4.3119 
 119   0.0000       0.160094         4.3564 
 120   0.0000       0.168510         4.5854 
*Only the first 10 virtual orbitals were printed.

                    ********************************
                    * MULLIKEN POPULATION ANALYSIS *
                    ********************************

-----------------------
MULLIKEN ATOMIC CHARGES
-----------------------
   0 C :   -0.127978
   1 C :    0.144870
   2 C :    0.081858
   3 H :    0.016527
   4 H :    0.013112
   5 C :   -0.185106
   6 C :    0.111057
   7 C :    0.006514
   8 H :    0.029832
   9 H :    0.012308
  10 H :    0.023630
  11 H :    0.011381
  12 O :   -0.355275
  13 H :    0.014012
  14 C :   -0.024367
  15 C :   -0.043475
  16 H :    0.036039
  17 H :    0.029112
  18 C :   -0.059169
  19 H :   -0.007279
  20 C :   -0.116273
  21 H :    0.000259
  22 C :    0.115128
  23 C :   -0.001586
  24 H :    0.012730
  25 H :    0.017057
  26 C :    0.106952
  27 H :    0.012590
  28 H :    0.015001
  29 C :   -0.418743
  30 H :    0.008754
  31 H :   -0.002548
  32 C :   -0.036881
  33 H :    0.009159
  34 C :    0.108315
  35 H :    0.181797
  36 C :    0.072296
  37 H :    0.006795
  38 H :    0.015896
  39 C :   -0.039268
  40 H :    0.010084
  41 H :    0.000033
  42 H :   -0.000677
  43 C :    0.002050
  44 C :    0.094707
  45 H :    0.023487
  46 H :    0.016968
  47 H :    0.019924
  48 H :    0.005643
  49 C :    0.050346
  50 C :   -0.098741
  51 C :   -0.060808
  52 H :    0.009790
  53 H :    0.013489
  54 C :   -0.055541
  55 C :    0.042483
  56 C :   -0.186267
  57 H :    0.011411
  58 H :    0.012264
  59 C :    0.038855
  60 C :    0.023277
  61 H :    0.023064
  62 H :    0.023852
  63 H :    0.018975
  64 H :    0.018887
  65 H :    0.015520
  66 H :    0.018647
  67 H :    0.017910
  68 H :    0.016892
  69 H :    0.018569
  70 H :    0.013015
  71 H :    0.030842
  72 H :    0.016018
Sum of atomic charges:   -0.0000000

--------------------------------
MULLIKEN REDUCED ORBITAL CHARGES
--------------------------------
  0 C s       :     3.078236  s :     3.078236
      pz      :     1.002862  p :     3.006894
      px      :     0.998131
      py      :     1.005900
      dz2     :     0.003601  d :     0.042849
      dxz     :     0.007029
      dyz     :     0.006058
      dx2y2   :     0.014393
      dxy     :     0.011768

  1 C s       :     2.931937  s :     2.931937
      pz      :     0.973833  p :     2.888749
      px      :     0.947155
      py      :     0.967761
      dz2     :     0.007039  d :     0.034444
      dxz     :     0.009438
      dyz     :     0.004715
      dx2y2   :     0.008905
      dxy     :     0.004347

  2 C s       :     3.074978  s :     3.074978
      pz      :     1.027584  p :     2.772002
      px      :     0.776846
      py      :     0.967572
      dz2     :     0.011650  d :     0.071163
      dxz     :     0.016938
      dyz     :     0.009473
      dx2y2   :     0.018631
      dxy     :     0.014471

  3 H s       :     0.960283  s :     0.960283
      pz      :     0.009836  p :     0.023190
      px      :     0.008605
      py      :     0.004748

  4 H s       :     0.964097  s :     0.964097
      pz      :     0.004098  p :     0.022791
      px      :     0.003826
      py      :     0.014867

  5 C s       :     3.112064  s :     3.112064
      pz      :     1.010628  p :     3.028241
      px      :     0.972170
      py      :     1.045443
      dz2     :     0.011481  d :     0.044801
      dxz     :     0.007190
      dyz     :     0.012257
      dx2y2   :     0.007738
      dxy     :     0.006135

  6 C s       :     2.949104  s :     2.949104
      pz      :     0.967372  p :     2.904370
      px      :     0.971541
      py      :     0.965458
      dz2     :     0.006848  d :     0.035469
      dxz     :     0.009956
      dyz     :     0.004983
      dx2y2   :     0.009124
      dxy     :     0.004558

  7 C s       :     3.013021  s :     3.013021
      pz      :     0.990417  p :     2.945446
      px      :     0.991690
      py      :     0.963340
      dz2     :     0.005374  d :     0.035019
      dxz     :     0.008383
      dyz     :     0.006429
      dx2y2   :     0.009745
      dxy     :     0.005087

  8 H s       :     0.946881  s :     0.946881
      pz      :     0.010433  p :     0.023286
      px      :     0.008133
      py      :     0.004720

  9 H s       :     0.964875  s :     0.964875
      pz      :     0.004292  p :     0.022817
      px      :     0.003769
      py      :     0.014756

 10 H s       :     0.953677  s :     0.953677
      pz      :     0.012044  p :     0.022693
      px      :     0.004793
      py      :     0.005857

 11 H s       :     0.965932  s :     0.965932
      pz      :     0.009934  p :     0.022687
      px      :     0.008182
      py      :     0.004571

 12 O s       :     3.726554  s :     3.726554
      pz      :     1.572447  p :     4.616511
      px      :     1.225824
      py      :     1.818239
      dz2     :     0.002050  d :     0.012210
      dxz     :     0.004592
      dyz     :     0.001762
      dx2y2   :     0.001591
      dxy     :     0.002215

 13 H s       :     0.965758  s :     0.965758
      pz      :     0.009979  p :     0.020230
      px      :     0.006098
      py      :     0.004153

 14 C s       :     3.197189  s :     3.197189
      pz      :     0.983596  p :     2.790930
      px      :     0.897988
      py      :     0.909346
      dz2     :     0.003258  d :     0.036248
      dxz     :     0.007525
      dyz     :     0.003244
      dx2y2   :     0.012277
      dxy     :     0.009944

 15 C s       :     3.122023  s :     3.122023
      pz      :     0.969716  p :     2.895202
      px      :     1.005426
      py      :     0.920060
      dz2     :     0.007581  d :     0.026250
      dxz     :     0.004244
      dyz     :     0.007392
      dx2y2   :     0.004487
      dxy     :     0.002547

 16 H s       :     0.939411  s :     0.939411
      pz      :     0.011695  p :     0.024550
      px      :     0.005831
      py      :     0.007024

 17 H s       :     0.946261  s :     0.946261
      pz      :     0.003968  p :     0.024627
      px      :     0.004687
      py      :     0.015972

 18 C s       :     3.199931  s :     3.199931
      pz      :     1.025235  p :     2.823939
      px      :     0.886811
      py      :     0.911893
      dz2     :     0.003280  d :     0.035299
      dxz     :     0.007066
      dyz     :     0.003069
      dx2y2   :     0.012269
      dxy     :     0.009616

 19 H s       :     0.982961  s :     0.982961
      pz      :     0.004621  p :     0.024318
      px      :     0.004118
      py      :     0.015578

 20 C s       :     3.099975  s :     3.099975
      pz      :     0.957458  p :     2.972287
      px      :     0.985681
      py      :     1.029148
      dz2     :     0.004030  d :     0.044012
      dxz     :     0.007192
      dyz     :     0.006775
      dx2y2   :     0.014329
      dxy     :     0.011685

 21 H s       :     0.975213  s :     0.975213
      pz      :     0.004584  p :     0.024528
      px      :     0.004104
      py      :     0.015841

 22 C s       :     2.924714  s :     2.924714
      pz      :     1.001196  p :     2.924596
      px      :     0.976091
      py      :     0.947309
      dz2     :     0.009580  d :     0.035561
      dxz     :     0.004278
      dyz     :     0.005618
      dx2y2   :     0.009662
      dxy     :     0.006425

 23 C s       :     3.001331  s :     3.001331
      pz      :     1.011515  p :     2.963819
      px      :     0.965199
      py      :     0.987105
      dz2     :     0.009987  d :     0.036436
      dxz     :     0.007538
      dyz     :     0.002860
      dx2y2   :     0.010231
      dxy     :     0.005820

 24 H s       :     0.964034  s :     0.964034
      pz      :     0.004954  p :     0.023236
      px      :     0.013384
      py      :     0.004898

 25 H s       :     0.959639  s :     0.959639
      pz      :     0.013747  p :     0.023304
      px      :     0.004793
      py      :     0.004764

 26 C s       :     2.969411  s :     2.969411
      pz      :     0.968721  p :     2.888311
      px      :     0.976340
      py      :     0.943250
      dz2     :     0.007189  d :     0.035325
      dxz     :     0.006640
      dyz     :     0.005387
      dx2y2   :     0.008533
      dxy     :     0.007577

 27 H s       :     0.964552  s :     0.964552
      pz      :     0.013802  p :     0.022858
      px      :     0.004312
      py      :     0.004743

 28 H s       :     0.962360  s :     0.962360
      pz      :     0.004696  p :     0.022638
      px      :     0.003747
      py      :     0.014195

 29 C s       :     3.259615  s :     3.259615
      pz      :     1.046718  p :     3.108133
      px      :     1.002112
      py      :     1.059303
      dz2     :     0.011680  d :     0.050996
      dxz     :     0.010572
      dyz     :     0.009253
      dx2y2   :     0.010757
      dxy     :     0.008733

 30 H s       :     0.968199  s :     0.968199
      pz      :     0.008847  p :     0.023047
      px      :     0.008091
      py      :     0.006109

 31 H s       :     0.980021  s :     0.980021
      pz      :     0.013270  p :     0.022528
      px      :     0.004865
      py      :     0.004392

 32 C s       :     3.030522  s :     3.030522
      pz      :     0.989080  p :     2.962505
      px      :     0.944840
      py      :     1.028585
      dz2     :     0.008748  d :     0.043855
      dxz     :     0.007378
      dyz     :     0.007630
      dx2y2   :     0.011093
      dxy     :     0.009005

 33 H s       :     0.969563  s :     0.969563
      pz      :     0.012531  p :     0.021278
      px      :     0.004177
      py      :     0.004570

 34 C s       :     2.906512  s :     2.906512
      pz      :     0.987182  p :     2.950207
      px      :     0.984353
      py      :     0.978672
      dz2     :     0.005492  d :     0.034967
      dxz     :     0.006139
      dyz     :     0.007992
      dx2y2   :     0.009151
      dxy     :     0.006192

 35 H s       :     0.750080  s :     0.750080
[...]
 Total          138.161          176.346          190.994  iso=     168.500

 Orientation: 
  X           0.2602772   -0.5606169    0.7861071
  Y          -0.0776523   -0.8236851   -0.5617055
  Z           0.9624063    0.0851561   -0.2579196

 --------------
 Nucleus  39C :
 --------------

Diamagnetic contribution to the shielding tensor (ppm) : 
           265.794          6.368        -6.755
             3.481        271.694         6.231
            -5.805          2.871       257.613

Paramagnetic contribution to the shielding tensor (ppm): 
          -101.233         -7.671         9.188
             5.784       -125.381         3.552
            16.262          2.294      -127.662

Total shielding tensor (ppm): 
           164.561         -1.303         2.433
             9.265        146.313         9.782
            10.458          5.165       129.952


 Diagonalized sT*s matrix:
 
 sDSO           258.230          270.850          266.022  iso=     265.034
 sPSO          -131.749         -123.617          -98.911  iso=    -118.092
        ---------------  ---------------  ---------------
 Total          126.482          147.233          167.111  iso=     146.942

 Orientation: 
  X          -0.1178581   -0.2925946   -0.9489457
  Y          -0.3352499    0.9112247   -0.2393261
  Z           0.9347283    0.2899274   -0.2054875

 --------------
 Nucleus  43C :
 --------------

Diamagnetic contribution to the shielding tensor (ppm) : 
           259.580          1.485        -3.899
            -3.667        258.765         7.252
            -2.225          7.334       241.686

Paramagnetic contribution to the shielding tensor (ppm): 
           -89.574         -9.260        -3.324
             0.009        -97.839        -3.390
            -0.344         -7.988       -92.656

Total shielding tensor (ppm): 
           170.006         -7.775        -7.223
            -3.658        160.926         3.862
            -2.568         -0.654       149.030


 Diagonalized sT*s matrix:
 
 sDSO           240.728          257.412          261.891  iso=     253.343
 sPSO           -92.791          -99.203          -88.075  iso=     -93.356
        ---------------  ---------------  ---------------
 Total          147.937          158.209          173.816  iso=     159.987

 Orientation: 
  X           0.2152739   -0.4206267    0.8813231
  Y          -0.0382084   -0.9054198   -0.4227944
  Z           0.9758060    0.0573426   -0.2109847

 --------------
 Nucleus  44C :
 --------------

Diamagnetic contribution to the shielding tensor (ppm) : 
           251.659          1.129         0.800
            -0.459        259.319        -3.662
             0.309          0.672       270.472

Paramagnetic contribution to the shielding tensor (ppm): 
           -72.271         -5.127        -1.265
            -2.622        -80.035         0.453
            -0.044         -3.867       -77.233

Total shielding tensor (ppm): 
           179.387         -3.998        -0.465
            -3.081        179.284        -3.209
             0.265         -3.196       193.239


 Diagonalized sT*s matrix:
 
 sDSO           256.242          254.642          270.566  iso=     260.483
 sPSO           -80.769          -72.174          -76.596  iso=     -76.513
        ---------------  ---------------  ---------------
 Total          175.473          182.467          193.971  iso=     183.970

 Orientation: 
  X           0.6674626    0.7430769    0.0482733
  Y           0.7322629   -0.6432126   -0.2237601
  Z           0.1352210   -0.1847003    0.9734480

 --------------
 Nucleus  49C :
 --------------

Diamagnetic contribution to the shielding tensor (ppm) : 
           244.368         -5.437        -2.616
           -18.557        260.691         1.715
            -6.119          6.871       243.354

Paramagnetic contribution to the shielding tensor (ppm): 
           -75.358          0.350         0.904
            17.496        -76.112         8.446
             7.757          0.285       -72.482

Total shielding tensor (ppm): 
           169.010         -5.087        -1.712
            -1.061        184.579        10.161
             1.638          7.156       170.873


 Diagonalized sT*s matrix:
 
 sDSO           242.306          242.303          263.804  iso=     249.471
 sPSO           -76.270          -73.031          -74.651  iso=     -74.651
        ---------------  ---------------  ---------------
 Total          166.036          169.272          189.153  iso=     174.820

 Orientation: 
  X           0.4428752    0.8870440   -0.1304395
  Y           0.4394048   -0.0879232    0.8939759
  Z          -0.7815273    0.4532356    0.4287104

 --------------
 Nucleus  50C :
 --------------

Diamagnetic contribution to the shielding tensor (ppm) : 
           268.586         10.899         3.669
            19.663        237.340        -1.268
            -0.238          6.553       273.546

Paramagnetic contribution to the shielding tensor (ppm): 
          -265.358        -80.448        40.287
           -88.365       -101.856        16.435
            32.588         10.084      -220.589

Total shielding tensor (ppm): 
             3.228        -69.549        43.956
           -68.702        135.484        15.166
            32.349         16.637        52.956


 Diagonalized sT*s matrix:
 
 sDSO           273.637          274.773          231.061  iso=     259.824
 sPSO          -313.845         -207.870          -66.088  iso=    -195.935
        ---------------  ---------------  ---------------
 Total          -40.208           66.903          164.973  iso=      63.889

 Orientation: 
  X          -0.9010262    0.1960602    0.3869265
  Y          -0.3735847    0.1025324   -0.9219119
  Z           0.2204228    0.9752166    0.0191393

 --------------
 Nucleus  51C :
 --------------

Diamagnetic contribution to the shielding tensor (ppm) : 
           266.699         15.318         1.623
             3.331        259.501        -0.680
             6.241         -8.798       284.720

Paramagnetic contribution to the shielding tensor (ppm): 
          -259.072        -84.918        37.364
           -78.816       -134.339        -2.854
            28.662          8.595      -227.594

Total shielding tensor (ppm): 
             7.627        -69.600        38.987
           -75.485        125.163        -3.534
            34.903         -0.203        57.126


 Diagonalized sT*s matrix:
 
 sDSO           272.695          281.712          256.513  iso=     270.307
 sPSO          -310.576         -216.701          -93.728  iso=    -207.002
        ---------------  ---------------  ---------------
 Total          -37.880           65.011          162.785  iso=      63.305

 Orientation: 
  X           0.8691838    0.1661510    0.4657397
  Y           0.4093936    0.2864578   -0.8662210
  Z          -0.2773382    0.9435761    0.1809633

 --------------
 Nucleus  54C :
 --------------

Diamagnetic contribution to the shielding tensor (ppm) : 
           255.659          3.374         1.475
             8.447        240.541        -5.486
            -3.369         -6.829       257.927

Paramagnetic contribution to the shielding tensor (ppm): 
           -93.546         -6.888         5.610
           -13.070        -75.294         1.175
            17.828          5.577      -107.530

Total shielding tensor (ppm): 
           162.114         -3.513         7.085
            -4.623        165.247        -4.312
            14.459         -1.252       150.397


 Diagonalized sT*s matrix:
 
 sDSO           257.850          247.703          248.575  iso=     251.376
 sPSO          -113.858          -86.002          -76.510  iso=     -92.123
        ---------------  ---------------  ---------------
 Total          143.992          161.701          172.065  iso=     159.253

 Orientation: 
  X          -0.4980935   -0.5112079    0.7004066
  Y           0.0196580   -0.8141853   -0.5802722
  Z           0.8669005   -0.2752612    0.4155897

 --------------
 Nucleus  55C :
 --------------

Diamagnetic contribution to the shielding tensor (ppm) : 
           255.485          4.190        -2.538
            19.185        230.909         3.182
           -18.355         -3.327       242.324

Paramagnetic contribution to the shielding tensor (ppm): 
           -65.353         -3.359        -1.064
           -17.097        -43.889        -5.046
            15.607          1.318       -57.694

Total shielding tensor (ppm): 
           190.132          0.831        -3.602
             2.088        187.019        -1.865
            -2.748         -2.009       184.629


 Diagonalized sT*s matrix:
 
 sDSO           238.826          225.672          264.220  iso=     242.906
 sPSO           -56.009          -39.151          -71.776  iso=     -55.645
        ---------------  ---------------  ---------------
 Total          182.817          186.521          192.443  iso=     187.260

 Orientation: 
  X           0.3307904   -0.4611134   -0.8233785
  Y           0.2976239    0.8789443   -0.3726620
  Z           0.8955432   -0.1217841    0.4279847

 --------------
 Nucleus  56C :
 --------------

Diamagnetic contribution to the shielding tensor (ppm) : 
           244.017         -4.379         7.633
            -3.061        242.411         2.490
            12.404         -0.883       244.687

Paramagnetic contribution to the shielding tensor (ppm): 
           -79.597          7.303         0.900
             2.918        -78.743       -12.475
            -9.870         -3.685       -73.548

Total shielding tensor (ppm): 
           164.420          2.925         8.533
            -0.143        163.669        -9.985
             2.534         -4.568       171.139


 Diagonalized sT*s matrix:
 
 sDSO           241.159          239.852          250.104  iso=     243.705
 sPSO           -84.373          -74.367          -73.147  iso=     -77.296
        ---------------  ---------------  ---------------
 Total          156.786          165.485          176.957  iso=     166.409

 Orientation: 
  X          -0.5195412    0.7920422    0.3205404
  Y           0.6725163    0.6104637   -0.4183967
  Z           0.5270661    0.0018057    0.8498224

 --------------
 Nucleus  59C :
 --------------

Diamagnetic contribution to the shielding tensor (ppm) : 
           242.819          4.706        11.670
            11.340        217.046         8.218
            20.643         -1.995       235.126

Paramagnetic contribution to the shielding tensor (ppm): 
           -68.923          1.358         6.038
            -8.076        -39.737         3.900
            -9.117         16.312       -59.507

Total shielding tensor (ppm): 
           173.896          6.064        17.708
             3.264        177.309        12.118
            11.526         14.317       175.619


 Diagonalized sT*s matrix:
 
 sDSO           223.335          222.424          249.232  iso=     231.664
 sPSO           -65.479          -51.230          -51.459  iso=     -56.056
        ---------------  ---------------  ---------------
 Total          157.857          171.194          197.773  iso=     175.608

 Orientation: 
  X           0.5711086    0.6473033    0.5048102
  Y           0.3665379   -0.7513460    0.5487524
  Z          -0.7344964    0.1283651    0.6663614

 --------------
 Nucleus  60C :
 --------------

Diamagnetic contribution to the shielding tensor (ppm) : 
           246.901         -7.724         3.093
           -28.380        241.099        -8.365
            -3.343          3.279       234.829

Paramagnetic contribution to the shielding tensor (ppm): 
           -69.856          2.676        -3.560
            28.096        -50.584        19.441
             5.078          5.960       -55.898

Total shielding tensor (ppm): 
           177.045         -5.048        -0.466
            -0.284        190.515        11.077
             1.735          9.239       178.931


 Diagonalized sT*s matrix:
 
 sDSO           233.393          249.028          240.407  iso=     240.943
 sPSO           -61.134          -71.415          -43.789  iso=     -58.780
        ---------------  ---------------  ---------------
 Total          172.259          177.613          196.618  iso=     182.163

 Orientation: 
  X           0.3785150    0.9207312   -0.0947657
  Y           0.4911448   -0.1130135    0.8637156
  Z          -0.7845401    0.3734730    0.4949897



--------------------------------
CHEMICAL SHIELDING SUMMARY (ppm)
--------------------------------


  Nucleus  Element    Isotropic     Anisotropy
  -------  -------  ------------   ------------
      0       C           59.602        148.038 
      1       C          151.134         29.965 
      2       C          128.852         55.101 
      5       C           51.438        179.254 
      6       C          165.013         23.097 
      7       C          161.643         22.525 
     14       C           74.817        128.364 
     15       C           83.161        121.001 
     18       C           79.524        134.266 
     20       C           52.272        175.327 
     22       C          169.160          8.553 
     23       C          174.427         12.589 
     26       C          158.704         24.046 
     29       C          154.328         17.108 
     32       C          143.104         28.044 
     34       C          174.460         22.867 
     36       C          168.500         33.741 
     39       C          146.942         30.254 
     43       C          159.987         20.743 
     44       C          183.970         15.000 
     49       C          174.820         21.498 
     50       C           63.889        151.626 
     51       C           63.305        149.220 
     54       C          159.253         19.218 
     55       C          187.260          7.774 
     56       C          166.409         15.822 
     59       C          175.608         33.248 
     60       C          182.163         21.682 


NMR shielding tensor and spin rotation calculation done in   1.0 sec 

Maximum memory used throughout the entire PROP-calculation: 51.8 MB

--------------------------------
SUGGESTED CITATIONS FOR THIS RUN
--------------------------------

Below you find a list of papers that are relevant to this ORCA run
We neither can nor want to force you to cite these papers, but we appreciate if you do
You receive ORCA, which is the product of decades of hard work by many enthusiastic individuals, for free
The only thing we kindly ask in return is that you cite our papers,
We deeply appreciate it, if you show your appreciation for ORCA by not just citing the generic ORCA reference.

Please note that relegating all ORCA citations to the supporting information does *not* help us.
SI sections are not indexed - citations you put there will not count into any citation statistics
But we need these citations in order to attract the funding resources that allow us to do what we are doing

Therefore, if you are a happy ORCA user, please consider citing a few of the papers listed below in the main body of your paper

In addition to the list printed below, the program has created the file inpS.bibtex that contains the list in bibtex format
You can import this file easily into all common literature databanks and citation aid programs


List of essential papers. We consider these as the minimum necessary citations

  1. Neese,F.
     Software update: the ORCA program system, version 5.0
     WIRES Comput. Molec. Sci., 2022 12(1)e1606
     doi.org/10.1002/wcms.1606

List of papers to cite with high priority. The work reported in these papers was absolutely
necessary for this run to complete.
Our perspective: the developers of density functionals and basis sets usually get cited in chemistry papers
Good! But without the algorithms to do something with them, the functionals or basis sets would not do anything.
Hence, in our opinion, the algorithm design and method developments papers are equally worthy of getting cited

  1. Neese,F.
     An improvement of the resolution of the identity approximation for the formation of the Coulomb matrix
     J. Comp. Chem., 2003 24(14)1740-1747
     doi.org/10.1002/jcc.10318
  2. Neese,F.; Wennmohs,F.; Hansen,A.; Becker,U.
     Efficient, approximate and parallel Hartree-Fock and hybrid DFT calculations. A 'chain-of-spheres' algorithm for the Hartree-Fock exchange
     Chem. Phys., 2009 356(1-3)98-109
     doi.org/10.1016/j.chemphys.2008.10.036
  3. Stoychev,G.L.; Auer,A.A.; Izsak,R.; Neese,F.
     Self-Consistent Field Calculation of Nuclear Magnetic Resonance Chemical Shielding Constants Using Gauge-Including Atomic Orbitals and Approximate Two-Electron Integrals
     J. Chem. Theory Comput., 2018 14(2)619-637
     doi.org/10.1021/acs.jctc.7b01006
  4. Garcia-Rates,M.; Neese,F.
     Effect of the Solute Cavity on the Solvation Energy and its Derivatives within the Framework of the Gaussian Charge Scheme
     J. Comput. Chem., 2020 41 922-939
     doi.org/10.1002/jcc.26139
  5. Helmich-Paris,B.; de Souza,B.; Neese,F.; Izsák,R.
     An improved chain of spheres for exchange algorithm
     J. Chem. Phys., 2021 155 104109
     doi.org/doi: 10.1063/5.0058766.
  6. Neese,F.
     The SHARK Integral Generation and Digestion System
     J. Comp. Chem., 2022  1-16
     doi.org/10.1002/jcc.26942
  7. Caldeweyher,E.; Bannwarth,C.; Grimme,S.
     Extension of the D3 dispersion coefficient model
     J. Chem. Phys., 2017 147 034112-XXXX
     doi.org/10.1063/1.4993215
  8. Caldeweyher,E.; Ehlert,S.; Hansen,A.; Neugebauer,H.; Spicher,S.; Bannwarth,C.; Grimme,S.
     A generally applicable atomic-charge dependent London dispersion correction
     J. Chem. Phys., 2019 150 154122-XXXX
     doi.org/10.1063/1.5090222
  9. Caldeweyher,E.; Mewes,J.; Ehlert,S.; Grimme,S.
     Extension and evaluation of the D4 London-dispersion model for periodic systems
     Phys. Chem. Chem. Phys., 2020 22(16)8499-8512
     doi.org/10.1039/D0CP00502A

List of suggested additional citations. These are papers that are important in the 'surrounding' of 
of this run, or papers that preceded the highly important papers. If you like your results we are grateful for a citation.

  1. Izsak,R.; Neese,F.
     An overlap fitted chain of spheres exchange method
     J. Chem. Phys., 2011 135 144105
     doi.org/10.1063/1.3646921
  2. Izsak,R.; Hansen,A.; Neese,F.
     The resolution of identity and chain of spheres approximations for the LPNO-CCSD singles Fock term
     Molec. Phys., 2012 110 2413-2417
     doi.org/10.1080/00268976.2012.687466
  3. Neese,F.
     The ORCA program system
     WIRES Comput. Molec. Sci., 2012 2(1)73-78
     doi.org/10.1002/wcms.81
  4. Izsak,R.; Neese,F.; Klopper,W.
     Robust fitting techniques in the chain of spheres approximation to the Fock exchange: The role of the complementary space
     J. Chem. Phys., 2013 139 
     doi.org/10.1063/1.4819264
  5. Neese,F.
     Software update: the ORCA program system, version 4.0
     WIRES Comput. Molec. Sci., 2018 8(1)1-6
     doi.org/10.1002/wcms.1327
  6. Neese,F.; Wennmohs,F.; Becker,U.; Riplinger,C.
     The ORCA quantum chemistry program package
     J. Chem. Phys., 2020 152 Art. No. L224108
     doi.org/10.1063/5.0004608

Timings for individual modules:

Sum of individual times          ...      175.873 sec (=   2.931 min)
Startup calculation              ...        4.665 sec (=   0.078 min)   2.7 %
SCF iterations                   ...       72.152 sec (=   1.203 min)  41.0 %
Property integrals               ...       60.046 sec (=   1.001 min)  34.1 %
SCF Response                     ...       37.701 sec (=   0.628 min)  21.4 %
Property calculations            ...        1.309 sec (=   0.022 min)   0.7 %
                             ****ORCA TERMINATED NORMALLY****
TOTAL RUN TIME: 0 days 0 hours 2 minutes 56 seconds 143 msec
