
                                 *****************
                                 * O   R   C   A *
                                 *****************

                                            #,                                       
                                            ###                                      
                                            ####                                     
                                            #####                                    
                                            ######                                   
                                           ########,                                 
                                     ,,################,,,,,                         
                               ,,#################################,,                 
                          ,,##########################################,,             
                       ,#########################################, ''#####,          
                    ,#############################################,,   '####,        
                  ,##################################################,,,,####,       
                ,###########''''           ''''###############################       
              ,#####''   ,,,,##########,,,,          '''####'''          '####       
            ,##' ,,,,###########################,,,                        '##       
           ' ,,###''''                  '''############,,,                           
         ,,##''                                '''############,,,,        ,,,,,,###''
      ,#''                                            '''#######################'''  
     '                                                          ''''####''''         
             ,#######,   #######,   ,#######,      ##                                
            ,#'     '#,  ##    ##  ,#'     '#,    #''#        ,####,   ,####,        
            ##       ##  ##   ,#'  ##            #'  '#       #'       #'  '#        
            ##       ##  #######   ##           ,######,      #####,   #    #        
            '#,     ,#'  ##    ##  '#,     ,#' ,#      #,     #,   #   #,  ,#        
             '#######'   ##     ##  '#######'  #'      '#     '####' # '####'        



                #########################################################
                #                        -***-                          #
                #          Department of theory and spectroscopy        #
                #                                                       #
                #                      Frank Neese                      #
                #                                                       #
                #     Directorship, Architecture, Infrastructure        #
                #                    SHARK, DRIVERS                     #
                #        Core code/Algorithms in most modules           #
                #                                                       #
                #        Max Planck Institute fuer Kohlenforschung      #
                #                Kaiser Wilhelm Platz 1                 #
                #                 D-45470 Muelheim/Ruhr                 #
                #                      Germany                          #
                #                                                       #
                #                  All rights reserved                  #
                #                        -***-                          #
                #########################################################


                         Program Version 6.0.0  -   RELEASE  -


 With contributions from (in alphabetic order):
   Daniel Aravena         : Magnetic Suceptibility
   Michael Atanasov       : Ab Initio Ligand Field Theory (pilot matlab implementation)
   Alexander A. Auer      : GIAO ZORA, VPT2 properties, NMR spectrum
   Ute Becker             : All parallelization in ORCA, NUMFREQ, NUMCALC
   Giovanni Bistoni       : ED, misc. LED, open-shell LED, HFLD
   Martin Brehm           : Molecular dynamics
   Dmytro Bykov           : pre 5.0 version of the SCF Hessian
   Marcos Casanova-Páez   : Triplet and SCS-CIS(D). UHF-(DLPNO)-IP/EA/STEOM-CCSD. UHF-CVS-IP/STEOM-CCSD
   Vijay G. Chilkuri      : MRCI spin determinant printing, contributions to CSF-ICE
   Pauline Colinet        : FMM embedding
   Dipayan Datta          : RHF DLPNO-CCSD density
   Achintya Kumar Dutta   : EOM-CC, STEOM-CC
   Nicolas Foglia         : Exact transition moments, OPA infrastructure, MCD improvements
   Dmitry Ganyushin       : Spin-Orbit,Spin-Spin,Magnetic field MRCI
   Miquel Garcia          : C-PCM and meta-GGA Hessian, CCSD/C-PCM, Gaussian charge scheme
   Tiago L. C. Gouveia    : GS-ROHF, GS-ROCIS
   Yang Guo               : DLPNO-NEVPT2, F12-NEVPT2, CIM, IAO-localization
   Andreas Hansen         : Spin unrestricted coupled pair/coupled cluster methods
   Ingolf Harden          : AUTO-CI MPn and infrastructure 
   Benjamin Helmich-Paris : MC-RPA, TRAH-(SCF,CASSCF), AVAS, COSX integrals, SCF dyn. polar.
   Lee Huntington         : MR-EOM, pCC
   Robert Izsak           : Overlap fitted RIJCOSX, COSX-SCS-MP3, EOM
   Riya Kayal             : Wick's Theorem for AUTO-CI, AUTO-CI UHF-CCSDT
   Emily Kempfer          : AUTO-CI, RHF CISDT and CCSDT
   Christian Kollmar      : KDIIS, OOCD, Brueckner-CCSD(T), CCSD density, CASPT2, CASPT2-K, improved NEVPT2
   Axel Koslowski         : Symmetry handling
   Simone Kossmann        : Meta GGA functionals, TD-DFT gradient, OOMP2, (MP2 Hessian; deprecated post 5.0)
   Lucas Lang             : DCDCAS
   Marvin Lechner         : AUTO-CI (C++ implementation), FIC-MRCC
   Spencer Leger          : CASSCF response
   Dagmar Lenk            : GEPOL surface, SMD, ORCA-2-JSON
   Dimitrios Liakos       : Extrapolation schemes; Compound Job, initial MDCI parallelization
   Dimitrios Manganas     : Further ROCIS development; embedding schemes. LFT, Crystal Embedding
   Dimitrios Pantazis     : SARC Basis sets
   Anastasios Papadopoulos: AUTO-CI, single reference methods and gradients
   Taras Petrenko         : pre 6.0 DFT Hessian and TD-DFT gradient, (ASA, deprecated), ECA, 1-Electron XAS/XES, NRVS
   Peter Pinski           : DLPNO-MP2, DLPNO-MP2 Gradient
   Christoph Reimann      : Effective Core Potentials
   Marius Retegan         : Local ZFS, SOC
   Christoph Riplinger    : Optimizer, TS searches, QM/MM, DLPNO-CCSD(T), (RO)-DLPNO pert. Triples
   Michael Roemelt        : Original ROCIS implementation
   Masaaki Saitow         : Open-shell DLPNO-CCSD energy and density
   Barbara Sandhoefer     : DKH picture change effects
   Kantharuban Sivalingam : CASSCF convergence/infrastructure, NEVPT2 and variants, FIC-MRCI
   Bernardo de Souza      : ESD, SOC TD-DFT
   Georgi Stoychev        : AutoAux, RI-MP2 NMR, DLPNO-MP2 response, X2C
   Van Anh Tran           : RI-MP2 g-tensors
   Willem Van den Heuvel  : Paramagnetic NMR
   Zikuan Wang            : NOTCH, Electric field optimization 
   Frank Wennmohs         : Technical directorship and infrastructure
   Hang Xu                : AUTO-CI-Response properties 


 We gratefully acknowledge several colleagues who have allowed us to
 interface, adapt or use parts of their codes:
   Stefan Grimme, W. Hujo, H. Kruse, P. Pracht,  : VdW corrections, initial TS optimization,
                  C. Bannwarth, S. Ehlert,         DFT functionals, gCP, sTDA/sTD-DF
                  L. Wittmann, M. Mueller
   Ed Valeev, F. Pavosevic, A. Kumar             : LibInt (2-el integral package), F12 methods
   Garnet Chan, S. Sharma, J. Yang, R. Olivares  : DMRG
   Ulf Ekstrom                                   : XCFun DFT Library
   Mihaly Kallay                                 : mrcc  (arbitrary order and MRCC methods)
   Frank Weinhold                                : gennbo (NPA and NBO analysis)
   Simon Mueller                                 : openCOSMO-RS
   Christopher J. Cramer and Donald G. Truhlar   : smd solvation model
   Lars Goerigk                                  : TD-DFT with DH, B97 family of functionals
   V. Asgeirsson, H. Jonsson                     : NEB implementation
   FAccTs GmbH                                   : IRC, NEB, NEB-TS, DLPNO-Multilevel, CI-OPT
                                                   MM, QMMM, 2- and 3-layer-ONIOM, Crystal-QMMM,
                                                   LR-CPCM, SF, NACMEs, symmetry and pop. for TD-DFT,
                                                   nearIR, NL-DFT gradient (VV10), updates on ESD,
                                                   ML-optimized integration grids, MBIS, APM,
                                                   GOAT, DOCKER, SOLVATOR, interface openCOSMO-RS
   S Lehtola, MJT Oliveira, MAL Marques          : LibXC Library
   Liviu Ungur et al                             : ANISO software


 Your calculation uses the libint2 library for the computation of 2-el integrals
 For citations please refer to: http://libint.valeyev.net

 Your ORCA version has been built with support for libXC version: 6.2.2
 For citations please refer to: https://libxc.gitlab.io

 This ORCA versions uses:
   CBLAS   interface :  Fast vector & matrix operations
   LAPACKE interface :  Fast linear algebra routines
   SCALAPACK package :  Parallel linear algebra routines
   Shared memory     :  Shared parallel matrices
   BLAS/LAPACK       :  OpenBLAS 0.3.27  USE64BITINT DYNAMIC_ARCH NO_AFFINITY Zen SINGLE_THREADED
        Core in use  :  Zen
   Copyright (c) 2011-2014, The OpenBLAS Project


NOTE: MaxCore=8000 MB was set to SCF,MP2,MDCI,CIPSI,MRCI and CIS
      => If you want to overwrite this, your respective input block should be placed after the MaxCore statement
Your calculation utilizes the atom-pairwise dispersion correction
based on EEQ partial charges (D4)


================================================================================

----- Orbital basis set information -----
Your calculation utilizes the basis: pcJ-0
   F. Jensen, Theor. Chem. Acc. 126, 371 (2010).

----- AuxJ basis set information -----
Your calculation utilizes the auxiliary basis: def2/J
   F. Weigend, Phys. Chem. Chem. Phys. 8, 1057 (2006).

================================================================================
                                        WARNINGS
                       Please study these warnings very carefully!
================================================================================

WARNING: Old DensityContainer found on disk!
         Will remove this file - 
         If you want to keep old densities, please start your calculation with a different basename. 


================================================================================
                                       INPUT FILE
================================================================================
NAME = inpJ
|  1> ! pbe0
|  2> ! D4
|  3> ! pcJ-0
|  4> ! def2/J RIJCOSX
|  5> ! DEFGRID2
|  6> ! scfconv7
|  7> ! smallprint printgap noloewdin
|  8> ! NOSOSCF
|  9> %MaxCore 8000
| 10> %output
| 11>        print[P_BondOrder_M] 1
| 12>        print[P_Mayer] 1
| 13>        print[P_basis] 2
| 14> end
| 15> %pal
| 16>     nprocs 4
| 17> end
| 18> ! CPCM(chloroform)
| 19> *xyz 0 1
| 20> C   -5.2150124400   0.2368501800   0.1400686800
| 21> C   -6.5766060500  -0.2543786500  -0.2914254100
| 22> C   -7.0533553900   0.4451443600  -1.5703708200
| 23> H   -7.3137277800  -0.0283669500   0.4977203700
| 24> H   -6.5677818500  -1.3397033900  -0.4402413300
| 25> C   -5.1001297200   1.7090312300   0.2176511200
| 26> C   -5.6247585600   2.4407463700  -0.9971418600
| 27> C   -7.0286101400   1.9586584900  -1.3878202700
| 28> H   -4.9444661200   2.2462091100  -1.8402049100
| 29> H   -5.6232832000   3.5211530400  -0.8184008000
| 30> H   -7.3539435600   2.4476523800  -2.3135994500
| 31> H   -7.7454531600   2.2294020500  -0.5979124100
| 32> O   -8.3498194000  -0.0226901400  -1.9647742600
| 33> H   -6.3875442100   0.1672980300  -2.3993235700
| 34> C   -4.2037163500  -0.6321899400   0.3756592900
| 35> C   -4.6188668900   2.3546187400   1.2860179300
| 36> H   -4.2707829500   1.8163240100   2.1631902800
| 37> H   -4.5723595800   3.4408364800   1.3089126200
| 38> C   -2.8373848300  -0.2914750000   0.6973637700
| 39> H   -4.4434179400  -1.6891484900   0.2682121100
| 40> C   -1.8420867200  -1.1571968600   0.9869698300
| 41> H   -2.5958942600   0.7688772800   0.6873184700
| 42> C   -1.9779498600  -2.6551396700   1.0867116100
| 43> C   -0.9535332500  -3.3807074800   0.1935369700
| 44> H   -2.9885060200  -2.9983461400   0.8489103000
| 45> H   -1.7834645200  -2.9416934600   2.1326880600
| 46> C    0.4811209500  -2.8820273200   0.4141959900
| 47> H   -1.2365432500  -3.2453412600  -0.8580443700
| 48> H   -1.0021108900  -4.4583282100   0.3927334300
| 49> C    0.5875209000  -1.3585087400   0.2604703000
| 50> H    1.1493871300  -3.4010086500  -0.2807404600
| 51> H    0.8044383100  -3.1511398300   1.4311900800
| 52> C   -0.4349117200  -0.7154272000   1.2499735400
| 53> H   -0.1579699500  -1.1258244200   2.2388181600
| 54> C   -0.0613031000   0.7626396000   1.2564470600
| 55> H   -8.9693624100   0.2094281600  -1.2600951400
| 56> C    1.4838406500   0.7416001700   1.1615711700
| 57> H   -0.4236371500   1.2773004400   2.1527368200
| 58> H   -0.4956175800   1.2759732800   0.3913167700
| 59> C    1.9043551900  -0.7133151600   0.7815494000
| 60> H    1.9430808500   1.0439978400   2.1063386400
| 61> H    1.8439925700   1.4467981000   0.4030771700
| 62> H    2.1625246700  -1.2601150800   1.7024260500
| 63> C    3.1308477800  -0.7338469000  -0.1405542400
| 64> C    0.2924948600  -0.9256641900  -1.1825648700
| 65> H   -0.7536048800  -1.1063087200  -1.4487191000
| 66> H    0.9192226100  -1.4774788600  -1.8911791600
| 67> H    0.4861079800   0.1414192800  -1.3302019500
| 68> H    2.8745513400  -0.1568666200  -1.0433110400
| 69> C    3.5497577700  -2.1432451100  -0.5995326300
| 70> C    4.3560504700  -0.0771229800   0.4588822600
| 71> C    4.6213033700   0.1087397300   1.7516272300
| 72> H    5.1125612800   0.1969008200  -0.2779988400
| 73> H    3.8772851000  -0.1839281700   2.4946464700
| 74> C    5.8818116700   0.6854582000   2.3429906000
| 75> C    6.8996843100   1.1448171500   1.3008511700
| 76> C    6.4689401200  -0.3039877800   3.3891579400
| 77> H    5.5755795800   1.5734207200   2.9227297000
| 78> H    5.6307335200  -0.5793620000   4.0479232100
| 79> C    7.5410566600   0.3509227700   4.2635076000
| 80> C    7.0014457600  -1.5892086100   2.7522598600
| 81> H    6.4613568800   1.9008100600   0.6409751200
| 82> H    7.2409553900   0.3138400900   0.6743306200
| 83> H    7.7769235400   1.5902228800   1.7787861200
| 84> H    7.8360687000  -0.3214738800   5.0768050100
| 85> H    7.1769176500   1.2836571000   4.7096262100
| 86> H    8.4433617500   0.5804459000   3.6855316900
| 87> H    7.8984463800  -1.3919485200   2.1538513800
| 88> H    6.2534182500  -2.0523191300   2.0991754200
| 89> H    7.2754986700  -2.3150363400   3.5258076000
| 90> H    4.5091687900  -2.1013865600  -1.1273658200
| 91> H    2.8181333000  -2.5920197300  -1.2764132000
| 92> H    3.6734464700  -2.8021449100   0.2680515600
| 93> *
| 94> %eprnmr
| 95>  Nuclei = all C { ssfc }
| 96>  SpinSpinRThresh 8.0
| 97> end
| 98> 
| 99>                          ****END OF INPUT****
================================================================================

                       ****************************
                       * Single Point Calculation *
                       ****************************

---------------------------------
CARTESIAN COORDINATES (ANGSTROEM)
---------------------------------
  C     -5.215012    0.236850    0.140069
  C     -6.576606   -0.254379   -0.291425
  C     -7.053355    0.445144   -1.570371
  H     -7.313728   -0.028367    0.497720
  H     -6.567782   -1.339703   -0.440241
  C     -5.100130    1.709031    0.217651
  C     -5.624759    2.440746   -0.997142
  C     -7.028610    1.958658   -1.387820
  H     -4.944466    2.246209   -1.840205
  H     -5.623283    3.521153   -0.818401
  H     -7.353944    2.447652   -2.313599
  H     -7.745453    2.229402   -0.597912
  O     -8.349819   -0.022690   -1.964774
  H     -6.387544    0.167298   -2.399324
  C     -4.203716   -0.632190    0.375659
  C     -4.618867    2.354619    1.286018
  H     -4.270783    1.816324    2.163190
  H     -4.572360    3.440836    1.308913
  C     -2.837385   -0.291475    0.697364
  H     -4.443418   -1.689148    0.268212
  C     -1.842087   -1.157197    0.986970
  H     -2.595894    0.768877    0.687318
  C     -1.977950   -2.655140    1.086712
  C     -0.953533   -3.380707    0.193537
  H     -2.988506   -2.998346    0.848910
  H     -1.783465   -2.941693    2.132688
  C      0.481121   -2.882027    0.414196
  H     -1.236543   -3.245341   -0.858044
  H     -1.002111   -4.458328    0.392733
  C      0.587521   -1.358509    0.260470
  H      1.149387   -3.401009   -0.280740
  H      0.804438   -3.151140    1.431190
  C     -0.434912   -0.715427    1.249974
  H     -0.157970   -1.125824    2.238818
  C     -0.061303    0.762640    1.256447
  H     -8.969362    0.209428   -1.260095
  C      1.483841    0.741600    1.161571
  H     -0.423637    1.277300    2.152737
  H     -0.495618    1.275973    0.391317
  C      1.904355   -0.713315    0.781549
  H      1.943081    1.043998    2.106339
  H      1.843993    1.446798    0.403077
  H      2.162525   -1.260115    1.702426
  C      3.130848   -0.733847   -0.140554
  C      0.292495   -0.925664   -1.182565
  H     -0.753605   -1.106309   -1.448719
  H      0.919223   -1.477479   -1.891179
  H      0.486108    0.141419   -1.330202
  H      2.874551   -0.156867   -1.043311
  C      3.549758   -2.143245   -0.599533
  C      4.356050   -0.077123    0.458882
  C      4.621303    0.108740    1.751627
  H      5.112561    0.196901   -0.277999
  H      3.877285   -0.183928    2.494646
  C      5.881812    0.685458    2.342991
  C      6.899684    1.144817    1.300851
  C      6.468940   -0.303988    3.389158
  H      5.575580    1.573421    2.922730
  H      5.630734   -0.579362    4.047923
  C      7.541057    0.350923    4.263508
  C      7.001446   -1.589209    2.752260
  H      6.461357    1.900810    0.640975
  H      7.240955    0.313840    0.674331
  H      7.776924    1.590223    1.778786
  H      7.836069   -0.321474    5.076805
  H      7.176918    1.283657    4.709626
  H      8.443362    0.580446    3.685532
  H      7.898446   -1.391949    2.153851
  H      6.253418   -2.052319    2.099175
  H      7.275499   -2.315036    3.525808
  H      4.509169   -2.101387   -1.127366
  H      2.818133   -2.592020   -1.276413
  H      3.673446   -2.802145    0.268052

----------------------------
CARTESIAN COORDINATES (A.U.)
----------------------------
  NO LB      ZA    FRAG     MASS         X           Y           Z
   0 C     6.0000    0    12.011   -9.854945    0.447582    0.264691
   1 C     6.0000    0    12.011  -12.427984   -0.480706   -0.550714
   2 C     6.0000    0    12.011  -13.328910    0.841201   -2.967571
   3 H     1.0000    0     1.008  -13.820943   -0.053606    0.940555
   4 H     1.0000    0     1.008  -12.411309   -2.531673   -0.831936
   5 C     6.0000    0    12.011   -9.637848    3.229601    0.411301
   6 C     6.0000    0    12.011  -10.629253    4.612342   -1.884325
   7 C     6.0000    0    12.011  -13.282148    3.701328   -2.622600
   8 H     1.0000    0     1.008   -9.343687    4.244720   -3.477483
   9 H     1.0000    0     1.008  -10.626465    6.654015   -1.546553
  10 H     1.0000    0     1.008  -13.896939    4.625393   -4.372069
  11 H     1.0000    0     1.008  -14.636785    4.212959   -1.129891
  12 O     8.0000    0    15.999  -15.778872   -0.042878   -3.712885
  13 H     1.0000    0     1.008  -12.070709    0.316147   -4.534064
  14 C     6.0000    0    12.011   -7.943873   -1.194666    0.709893
  15 C     6.0000    0    12.011   -8.728393    4.449585    2.430222
  16 H     1.0000    0     1.008   -8.070610    3.432355    4.087837
  17 H     1.0000    0     1.008   -8.640507    6.502239    2.473486
  18 C     6.0000    0    12.011   -5.361880   -0.550808    1.317827
  19 H     1.0000    0     1.008   -8.396843   -3.192028    0.506847
  20 C     6.0000    0    12.011   -3.481039   -2.186785    1.865103
  21 H     1.0000    0     1.008   -4.905529    1.452967    1.298844
  22 C     6.0000    0    12.011   -3.737784   -5.017487    2.053587
  23 C     6.0000    0    12.011   -1.801917   -6.388611    0.365732
  24 H     1.0000    0     1.008   -5.647458   -5.666053    1.604208
  25 H     1.0000    0     1.008   -3.370260   -5.558995    4.030196
  26 C     6.0000    0    12.011    0.909187   -5.446242    0.782717
  27 H     1.0000    0     1.008   -2.336728   -6.132806   -1.621469
  28 H     1.0000    0     1.008   -1.893715   -8.425019    0.742159
  29 C     6.0000    0    12.011    1.110254   -2.567209    0.492218
  30 H     1.0000    0     1.008    2.172027   -6.426975   -0.530523
  31 H     1.0000    0     1.008    1.520168   -5.954791    2.704557
  32 C     6.0000    0    12.011   -0.821864   -1.351961    2.362108
  33 H     1.0000    0     1.008   -0.298520   -2.127500    4.230753
  34 C     6.0000    0    12.011   -0.115846    1.441180    2.374341
  35 H     1.0000    0     1.008  -16.949639    0.395762   -2.381235
  36 C     6.0000    0    12.011    2.804052    1.401421    2.195051
  37 H     1.0000    0     1.008   -0.800558    2.413748    4.068083
  38 H     1.0000    0     1.008   -0.936581    2.411240    0.739482
  39 C     6.0000    0    12.011    3.598710   -1.347970    1.476914
  40 H     1.0000    0     1.008    3.671891    1.972870    3.980403
  41 H     1.0000    0     1.008    3.484641    2.734052    0.761705
  42 H     1.0000    0     1.008    4.086579   -2.381272    3.217119
  43 C     6.0000    0    12.011    5.916445   -1.386770   -0.265609
  44 C     6.0000    0    12.011    0.552735   -1.749252   -2.234724
  45 H     1.0000    0     1.008   -1.424107   -2.090621   -2.737682
  46 H     1.0000    0     1.008    1.737079   -2.792030   -3.573811
  47 H     1.0000    0     1.008    0.918611    0.267244   -2.513717
  48 H     1.0000    0     1.008    5.432115   -0.296435   -1.971572
  49 C     6.0000    0    12.011    6.708070   -4.050146   -1.132952
  50 C     6.0000    0    12.011    8.231742   -0.145741    0.867162
  51 C     6.0000    0    12.011    8.732998    0.205488    3.310096
  52 H     1.0000    0     1.008    9.661341    0.372089   -0.525342
  53 H     1.0000    0     1.008    7.327007   -0.347574    4.714199
  54 C     6.0000    0    12.011   11.115013    1.295328    4.427611
  55 C     6.0000    0    12.011   13.038514    2.163391    2.458252
  56 C     6.0000    0    12.011   12.224525   -0.574454    6.404580
  57 H     1.0000    0     1.008   10.536318    2.973334    5.523159
  58 H     1.0000    0     1.008   10.640544   -1.094836    7.649466
  59 C     6.0000    0    12.011   14.250532    0.663148    8.056862
  60 C     6.0000    0    12.011   13.230815   -3.003169    5.201017
  61 H     1.0000    0     1.008   12.210195    3.592010    1.211267
  62 H     1.0000    0     1.008   13.683423    0.593072    1.274300
  63 H     1.0000    0     1.008   14.696256    3.005086    3.361419
  64 H     1.0000    0     1.008   14.808024   -0.607498    9.593771
  65 H     1.0000    0     1.008   13.562409    2.425760    8.899904
  66 H     1.0000    0     1.008   15.955641    1.096884    6.964646
  67 H     1.0000    0     1.008   14.925901   -2.630401    4.070189
  68 H     1.0000    0     1.008   11.817248   -3.878321    3.966867
  69 H     1.0000    0     1.008   13.748700   -4.374785    6.662811
  70 H     1.0000    0     1.008    8.521094   -3.971045   -2.130413
  71 H     1.0000    0     1.008    5.325500   -4.898207   -2.412071
  72 H     1.0000    0     1.008    6.941808   -5.295286    0.506544

--------------------------------
INTERNAL COORDINATES (ANGSTROEM)
--------------------------------
 C      0   0   0     0.000000000000     0.00000000     0.00000000
 C      1   0   0     1.510440356956     0.00000000     0.00000000
 C      2   1   0     1.533728703673   111.72164064     0.00000000
 H      2   1   3     1.103259169673   109.34931490   241.52021844
 H      2   1   3     1.095515328878   110.71637872   122.90152516
 C      1   2   3     1.478693382122   114.13037008    50.65680278
 C      6   1   2     1.512072898415   114.37306861   311.75647930
 C      3   2   1     1.524684246791   110.35685992   305.06823991
 H      7   6   1     1.100635205563   108.38491511   290.18773208
 H      7   6   1     1.095093199594   110.23232992   172.94137056
 H      8   3   2     1.096368527799   109.68374308   178.99172326
 H      8   3   2     1.100509163021   108.63757430   296.40113385
 O      3   2   1     1.433611565976   111.20330200   180.38570971
 H      3   2   1     1.098938475184   108.98791611    65.17135685
 C      1   2   3     1.354050755082   120.94674757   232.98600037
 C      6   1   2     1.337835858884   123.38643614   129.46981831
 H     16   6   1     1.086441428350   121.39390846     0.73265085
 H     16   6   1     1.087453941739   120.94467086   181.35635728
 C     15   1   2     1.444452237125   126.42970749   175.23389562
 H     15   1   2     1.089111162901   116.18799196   358.01827017
 C     19  15   1     1.350542238007   126.41724396   177.03398182
 H     19  15   1     1.087550256840   115.97398617   356.05172945
 C     21  19  15     1.507395063518   125.78633232   357.31433555
 C     23  21  19     1.540661862737   111.69726705   126.79031885
 H     23  21  19     1.093418445336   112.38484478     2.71027070
 H     23  21  19     1.101818658398   107.77910840   245.37987583
 C     24  23  21     1.534798025364   112.65417513    50.96610486
 H     24  23  21     1.097379600801   109.02412865   288.81204780
 H     24  23  21     1.096952804140   109.14294285   172.87249084
 C     27  24  23     1.534946709411   111.89417234   306.29848676
 H     27  24  23     1.094923731480   108.98082524   182.67390227
 H     27  24  23     1.100560147112   109.14812312    66.21766795
 C     21  19  15     1.498156488687   122.74023662   177.18606083
 H     33  21  19     1.105864505560   106.42533771   124.86998335
 C     33  21  19     1.524567733051   121.11807783     2.40753316
 H     13   3   2     0.966584248061   107.50019332    62.69152465
 C     35  33  21     1.548196789908   103.36420465   195.35226863
 H     35  33  21     1.095215539471   112.20896650    73.59454230
 H     35  33  21     1.095714813825   110.71469245   313.93158268
 C     30  27  24     1.556229652542   115.88855929   166.29484071
 H     37  35  33     1.093129216739   111.25768724   251.27930730
 H     37  35  33     1.096506577268   111.18970373   132.90105031
 H     40  30  27     1.101660309456   105.80753780   321.67185605
 C     40  30  27     1.534594652856   118.00457098    82.57020590
 C     30  27  24     1.535169459897   111.14144135   294.41110244
 H     45  30  27     1.094438297207   111.45342954    67.11034354
 H     45  30  27     1.095180950638   110.86443470   306.96643529
 H     45  30  27     1.094508967334   111.57293979   187.02776322
 H     44  40  30     1.101618785521   107.42498194    62.05848329
 C     44  40  30     1.540308429036   114.12024344   303.16919651
 C     44  40  30     1.513846774352   113.77259110   179.78856864
 C     51  44  40     1.332701619038   127.27795108    23.09959283
 H     51  44  40     1.091050596513   113.74672570   198.51714063
 H     52  51  44     1.091464739144   119.16148159   356.55367196
 C     52  51  44     1.507048772730   126.90407251   175.86179107
 C     55  52  51     1.527458656647   113.87433096     2.91835766
 C     55  52  51     1.555052818209   109.65111399   234.52349174
 H     55  52  51     1.103790267188   106.37369871   121.17742475
 H     57  55  52     1.101087165615   105.91480054   310.64095580
 C     57  55  52     1.530630272726   112.11804387   193.83988710
 C     57  55  52     1.530030719563   112.69545403    68.14412170
 H     56  55  52     1.095030875010   110.61090785    58.31652057
 H     56  55  52     1.095224554081   111.70082507   298.38063338
 H     56  55  52     1.093780941231   111.02633629   177.76429118
 H     60  57  55     1.095719871039   110.48856383   172.14958527
 H     60  57  55     1.096180807692   111.33818074    52.10270435
 H     60  57  55     1.095851949483   111.41160650   291.39793388
 H     61  57  55     1.096181720484   111.15408049    68.73592280
 H     61  57  55     1.095689643659   111.44130371   308.18498268
 H     61  57  55     1.095585230448   110.46596723   187.92709163
 H     50  44  40     1.095823671934   110.28482157   188.36365949
 H     50  44  40     1.093087521977   112.21923931    68.33735892
 H     50  44  40     1.096426088565   110.16793050   307.21490005

---------------------------
INTERNAL COORDINATES (A.U.)
---------------------------
 C      0   0   0     0.000000000000     0.00000000     0.00000000
 C      1   0   0     2.854318616269     0.00000000     0.00000000
 C      2   1   0     2.898327213676   111.72164064     0.00000000
 H      2   1   3     2.084857685419   109.34931490   241.52021844
 H      2   1   3     2.070223947093   110.71637872   122.90152516
 C      1   2   3     2.794325528251   114.13037008    50.65680278
 C      6   1   2     2.857403672530   114.37306861   311.75647930
 C      3   2   1     2.881235667139   110.35685992   305.06823991
 H      7   6   1     2.079899111866   108.38491511   290.18773208
 H      7   6   1     2.069426238353   110.23232992   172.94137056
 H      8   3   2     2.071836259390   109.68374308   178.99172326
 H      8   3   2     2.079660925981   108.63757430   296.40113385
 O      3   2   1     2.709133242116   111.20330200   180.38570971
 H      3   2   1     2.076692756127   108.98791611    65.17135685
 C      1   2   3     2.558785098535   120.94674757   232.98600037
 C      6   1   2     2.528143385431   123.38643614   129.46981831
 H     16   6   1     2.053076760129   121.39390846     0.73265085
 H     16   6   1     2.054990133140   120.94467086   181.35635728
 C     15   1   2     2.729619141697   126.42970749   175.23389562
 H     15   1   2     2.058121827280   116.18799196   358.01827017
 C     19  15   1     2.552154962126   126.41724396   177.03398182
 H     19  15   1     2.055172142303   115.97398617   356.05172945
 C     21  19  15     2.848563845674   125.78633232   357.31433555
 C     23  21  19     2.911428985549   111.69726705   126.79031885
 H     23  21  19     2.066261411463   112.38484478     2.71027070
 H     23  21  19     2.082135513616   107.77910840   245.37987583
 C     24  23  21     2.900347938822   112.65417513    50.96610486
 H     24  23  21     2.073746910465   109.02412865   288.81204780
 H     24  23  21     2.072940381661   109.14294285   172.87249084
 C     27  24  23     2.900628910950   111.89417234   306.29848676
 H     27  24  23     2.069105990029   108.98082524   182.67390227
 H     27  24  23     2.079757271949   109.14812312    66.21766795
 C     21  19  15     2.831105469376   122.74023662   177.18606083
 H     33  21  19     2.089781056733   106.42533771   124.86998335
 C     33  21  19     2.881015488080   121.11807783     2.40753316
 H     13   3   2     1.826579514197   107.50019332    62.69152465
 C     35  33  21     2.925667934343   103.36420465   195.35226863
 H     35  33  21     2.069657427216   112.20896650    73.59454230
 H     35  33  21     2.070600919010   110.71469245   313.93158268
 C     30  27  24     2.940847844791   115.88855929   166.29484071
 H     37  35  33     2.065714848624   111.25768724   251.27930730
 H     37  35  33     2.072097135080   111.18970373   132.90105031
 H     40  30  27     2.081836277483   105.80753780   321.67185605
 C     40  30  27     2.899963620477   118.00457098    82.57020590
 C     30  27  24     2.901049848365   111.14144135   294.41110244
 H     45  30  27     2.068188652197   111.45342954    67.11034354
 H     45  30  27     2.069592063793   110.86443470   306.96643529
 H     45  30  27     2.068322199382   111.57293979   187.02776322
 H     44  40  30     2.081757808617   107.42498194    62.05848329
 C     44  40  30     2.910761092649   114.12024344   303.16919651
 C     44  40  30     2.860755812245   113.77259110   179.78856864
 C     51  44  40     2.518441078216   127.27795108    23.09959283
 H     51  44  40     2.061786825660   113.74672570   198.51714063
 H     52  51  44     2.062569441814   119.16148159   356.55367196
 C     52  51  44     2.847909450921   126.90407251   175.86179107
 C     55  52  51     2.886478541950   113.87433096     2.91835766
 C     55  52  51     2.938623950198   109.65111399   234.52349174
 H     55  52  51     2.085861314273   106.37369871   121.17742475
 H     57  55  52     2.080753192588   105.91480054   310.64095580
 C     57  55  52     2.892472027741   112.11804387   193.83988710
 C     57  55  52     2.891339036460   112.69545403    68.14412170
 H     56  55  52     2.069308461956   110.61090785    58.31652057
 H     56  55  52     2.069674462360   111.70082507   298.38063338
 H     56  55  52     2.066946429428   111.02633629   177.76429118
 H     60  57  55     2.070610475759   110.48856383   172.14958527
 H     60  57  55     2.071481519799   111.33818074    52.10270435
 H     60  57  55     2.070860067846   111.41160650   291.39793388
 H     61  57  55     2.071483244725   111.15408049    68.73592280
 H     61  57  55     2.070553354289   111.44130371   308.18498268
 H     61  57  55     2.070356041915   110.46596723   187.92709163
 H     50  44  40     2.070806631023   110.28482157   188.36365949
 H     50  44  40     2.065636056944   112.21923931    68.33735892
 H     50  44  40     2.071945033474   110.16793050   307.21490005

---------------------
BASIS SET INFORMATION
---------------------
There are 3 groups of distinct atoms

 Group   1 Type C   : 7s4p contracted to 4s3p pattern {4111/211}
 Group   2 Type H   : 5s contracted to 3s pattern {311}
 Group   3 Type O   : 7s4p contracted to 4s3p pattern {4111/211}

Atom   0C    basis set group =>   1
Atom   1C    basis set group =>   1
Atom   2C    basis set group =>   1
Atom   3H    basis set group =>   2
Atom   4H    basis set group =>   2
Atom   5C    basis set group =>   1
Atom   6C    basis set group =>   1
Atom   7C    basis set group =>   1
Atom   8H    basis set group =>   2
Atom   9H    basis set group =>   2
Atom  10H    basis set group =>   2
Atom  11H    basis set group =>   2
Atom  12O    basis set group =>   3
Atom  13H    basis set group =>   2
Atom  14C    basis set group =>   1
Atom  15C    basis set group =>   1
Atom  16H    basis set group =>   2
Atom  17H    basis set group =>   2
Atom  18C    basis set group =>   1
Atom  19H    basis set group =>   2
Atom  20C    basis set group =>   1
Atom  21H    basis set group =>   2
Atom  22C    basis set group =>   1
Atom  23C    basis set group =>   1
Atom  24H    basis set group =>   2
Atom  25H    basis set group =>   2
Atom  26C    basis set group =>   1
Atom  27H    basis set group =>   2
Atom  28H    basis set group =>   2
Atom  29C    basis set group =>   1
Atom  30H    basis set group =>   2
Atom  31H    basis set group =>   2
Atom  32C    basis set group =>   1
Atom  33H    basis set group =>   2
Atom  34C    basis set group =>   1
Atom  35H    basis set group =>   2
Atom  36C    basis set group =>   1
Atom  37H    basis set group =>   2
Atom  38H    basis set group =>   2
Atom  39C    basis set group =>   1
Atom  40H    basis set group =>   2
Atom  41H    basis set group =>   2
Atom  42H    basis set group =>   2
Atom  43C    basis set group =>   1
Atom  44C    basis set group =>   1
Atom  45H    basis set group =>   2
Atom  46H    basis set group =>   2
Atom  47H    basis set group =>   2
Atom  48H    basis set group =>   2
Atom  49C    basis set group =>   1
Atom  50C    basis set group =>   1
Atom  51C    basis set group =>   1
Atom  52H    basis set group =>   2
Atom  53H    basis set group =>   2
Atom  54C    basis set group =>   1
Atom  55C    basis set group =>   1
Atom  56C    basis set group =>   1
Atom  57H    basis set group =>   2
Atom  58H    basis set group =>   2
Atom  59C    basis set group =>   1
Atom  60C    basis set group =>   1
Atom  61H    basis set group =>   2
Atom  62H    basis set group =>   2
Atom  63H    basis set group =>   2
Atom  64H    basis set group =>   2
Atom  65H    basis set group =>   2
Atom  66H    basis set group =>   2
Atom  67H    basis set group =>   2
Atom  68H    basis set group =>   2
Atom  69H    basis set group =>   2
Atom  70H    basis set group =>   2
Atom  71H    basis set group =>   2
Atom  72H    basis set group =>   2

-------------------------
BASIS SET IN INPUT FORMAT
-------------------------

 # Basis set for element : H 
 NewGTO H 
 S 3 
   1    1357.7500000000      0.0012928364
   2      54.3100000000      0.0588280685
   3       4.3448000000      0.9761499708
 S 1 
   1       0.6604910000      1.0000000000
 S 1 
   1       0.1366870000      1.0000000000
  end;

 # Basis set for element : C 
 NewGTO C 
 S 4 
   1  139534.0000000000      0.0001655246
   2    5581.3600000000      0.0074486101
   3     446.5090000000      0.1285821065
   4      67.4620000000      0.9218029311
 S 1 
   1      15.0674000000      1.0000000000
 S 1 
   1       3.9387600000      1.0000000000
 S 1 
   1       0.2999150000      1.0000000000
 P 2 
   1      28.3900000000      0.0816325586
   2       4.3676900000      0.9660360576
 P 1 
   1       0.8698170000      1.0000000000
 P 1 
   1       0.1889340000      1.0000000000
  end;

 # Basis set for element : O 
 NewGTO O 
 S 4 
   1  253789.0000000000      0.0001641076
   2   10151.6000000000      0.0074010921
   3     812.1250000000      0.1277711901
   4     122.6930000000      0.9223372164
 S 1 
   1      27.5608000000      1.0000000000
 S 1 
   1       7.3172600000      1.0000000000
 S 1 
   1       0.5792400000      1.0000000000
 P 2 
   1      53.4157000000      0.0793786106
   2       8.2177900000      0.9670506337
 P 1 
   1       1.6754400000      1.0000000000
 P 1 
   1       0.3506720000      1.0000000000
  end;

---------------------------------
AUXILIARY/J BASIS SET INFORMATION
---------------------------------
There are 3 groups of distinct atoms

 Group   1 Type C   : 12s5p4d2f1g contracted to 6s4p3d1f1g pattern {711111/2111/211/2/1}
 Group   2 Type H   : 5s2p1d contracted to 3s1p1d pattern {311/2/1}
 Group   3 Type O   : 12s5p4d2f1g contracted to 6s4p3d1f1g pattern {711111/2111/211/2/1}

Atom   0C    basis set group =>   1
Atom   1C    basis set group =>   1
Atom   2C    basis set group =>   1
Atom   3H    basis set group =>   2
Atom   4H    basis set group =>   2
Atom   5C    basis set group =>   1
Atom   6C    basis set group =>   1
Atom   7C    basis set group =>   1
Atom   8H    basis set group =>   2
Atom   9H    basis set group =>   2
Atom  10H    basis set group =>   2
Atom  11H    basis set group =>   2
Atom  12O    basis set group =>   3
Atom  13H    basis set group =>   2
Atom  14C    basis set group =>   1
Atom  15C    basis set group =>   1
Atom  16H    basis set group =>   2
Atom  17H    basis set group =>   2
Atom  18C    basis set group =>   1
Atom  19H    basis set group =>   2
Atom  20C    basis set group =>   1
Atom  21H    basis set group =>   2
Atom  22C    basis set group =>   1
Atom  23C    basis set group =>   1
Atom  24H    basis set group =>   2
Atom  25H    basis set group =>   2
Atom  26C    basis set group =>   1
Atom  27H    basis set group =>   2
Atom  28H    basis set group =>   2
Atom  29C    basis set group =>   1
Atom  30H    basis set group =>   2
Atom  31H    basis set group =>   2
Atom  32C    basis set group =>   1
Atom  33H    basis set group =>   2
Atom  34C    basis set group =>   1
Atom  35H    basis set group =>   2
Atom  36C    basis set group =>   1
Atom  37H    basis set group =>   2
Atom  38H    basis set group =>   2
Atom  39C    basis set group =>   1
Atom  40H    basis set group =>   2
Atom  41H    basis set group =>   2
Atom  42H    basis set group =>   2
Atom  43C    basis set group =>   1
Atom  44C    basis set group =>   1
Atom  45H    basis set group =>   2
Atom  46H    basis set group =>   2
Atom  47H    basis set group =>   2
Atom  48H    basis set group =>   2
Atom  49C    basis set group =>   1
Atom  50C    basis set group =>   1
Atom  51C    basis set group =>   1
Atom  52H    basis set group =>   2
Atom  53H    basis set group =>   2
Atom  54C    basis set group =>   1
Atom  55C    basis set group =>   1
Atom  56C    basis set group =>   1
Atom  57H    basis set group =>   2
Atom  58H    basis set group =>   2
Atom  59C    basis set group =>   1
Atom  60C    basis set group =>   1
Atom  61H    basis set group =>   2
Atom  62H    basis set group =>   2
Atom  63H    basis set group =>   2
Atom  64H    basis set group =>   2
Atom  65H    basis set group =>   2
Atom  66H    basis set group =>   2
Atom  67H    basis set group =>   2
Atom  68H    basis set group =>   2
Atom  69H    basis set group =>   2
Atom  70H    basis set group =>   2
Atom  71H    basis set group =>   2
Atom  72H    basis set group =>   2

-------------------------------------
AUXILIARY/J BASIS SET IN INPUT FORMAT
-------------------------------------

 # Auxiliary/J basis set for element : H 
 NewAuxJGTO H 
 S 3 
   1      15.6752927000      0.1007184237
   2       3.6063578000      0.3404257499
   3       1.2080016000      0.6491996172
 S 1 
   1       0.4726794000      1.0000000000
 S 1 
   1       0.2018100000      1.0000000000
 P 2 
   1       2.0281365000      0.5596620919
   2       0.5358730000      0.5596620919
 D 1 
   1       2.2165124000      1.0000000000
  end;

 # Auxiliary/J basis set for element : C 
 NewAuxJGTO C 
 S 7 
   1    1861.0916331000      0.0134602335
   2     642.9939764000      0.0299160374
   3     235.1105725000      0.1008649584
   4      90.7028894000      0.2370970548
   5      36.7794552000      0.3924037254
   6      15.6046273000      0.3195862154
   7       6.8907294000      0.0530104441
 S 1 
   1       3.1478850000     -1.0000000000
 S 1 
   1       1.4777287000      1.0000000000
 S 1 
   1       0.7076466000      1.0000000000
 S 1 
   1       0.3430122000      1.0000000000
 S 1 
   1       0.1669453000      1.0000000000
 P 2 
   1      13.5472892000     -0.6769313712
   2       5.4669419000     -0.3779500978
 P 1 
   1       2.1751721000      1.0000000000
 P 1 
   1       0.8582194000      1.0000000000
 P 1 
   1       0.3376720000      1.0000000000
 D 2 
   1       5.9287253000     -0.3533329857
   2       1.9809209000     -0.7456525731
 D 1 
   1       0.8055417000     -1.0000000000
 D 1 
   1       0.3531244000     -1.0000000000
 F 2 
   1       1.6755626000      0.6311076882
   2       0.5997536000      0.4968166032
 G 1 
   1       1.0024600000     -1.0000000000
  end;

 # Auxiliary/J basis set for element : O 
 NewAuxJGTO O 
 S 7 
   1    2876.8216605000      0.0168151159
   2    1004.7443032000      0.0340137548
   3     369.7579954000      0.1194951309
   4     142.9442404000      0.2664627624
   5      57.8366425000      0.4202764046
   6      24.3864983000      0.2765077335
   7      10.6622662000      0.0057008815
 S 1 
   1       4.8070437000     -1.0000000000
 S 1 
   1       2.2210770000      1.0000000000
 S 1 
   1       1.0447795000      1.0000000000
 S 1 
   1       0.4968425000      1.0000000000
 S 1 
   1       0.2371384000      1.0000000000
 P 2 
   1      64.2613382000     -0.2731534179
   2      16.3006076000     -0.8168011598
 P 1 
   1       4.3550542000      1.0000000000
 P 1 
   1       1.2019554000      1.0000000000
 P 1 
   1       0.3354196000      1.0000000000
 D 2 
   1       9.2146611000     -0.4661230638
   2       2.8435251000     -0.6600908911
 D 1 
   1       0.9955759000     -1.0000000000
 D 1 
   1       0.3649441000     -1.0000000000
 F 2 
   1       2.6420115000      0.5931563945
   2       0.7345613000      0.5931563945
 G 1 
   1       1.3931000000     -1.0000000000
  end;


Checking for AutoStart:
The File: inpJ.gbw exists
Trying to determine its content:
     ... Fine, the file contains calculation information
     ... Fine, the calculation information was read
     ... Fine, the file contains a basis set
     ... Fine, the basis set was read
     ... Fine, the file contains a geometry
     ... Fine, the geometry was read
     ... Fine, the file contains a set of orbitals
     ... Fine, the orbitals can be read
     => possible old guess file was deleted
     => GBW file was renamed to GES file
     => GES file is set as startup file
     => Guess is set to MORead
     ... now leaving AutoStart



           ************************************************************
           *        Program running with 4 parallel MPI-processes     *
           *              working on a common directory               *
           ************************************************************
------------------------------------------------------------------------------
                             ORCA STARTUP CALCULATIONS
                           -- RI-GTO INTEGRALS CHOSEN --
------------------------------------------------------------------------------
------------------------------------------------------------------------------
                   ___                                                        
                  /   \      - P O W E R E D   B Y -                         
                 /     \                                                     
                 |  |  |   _    _      __       _____    __    __             
                 |  |  |  | |  | |    /  \     |  _  \  |  |  /  |          
                  \  \/   | |  | |   /    \    | | | |  |  | /  /          
                 / \  \   | |__| |  /  /\  \   | |_| |  |  |/  /          
                |  |  |   |  __  | /  /__\  \  |    /   |      \           
                |  |  |   | |  | | |   __   |  |    \   |  |\   \          
                \     /   | |  | | |  |  |  |  | |\  \  |  | \   \       
                 \___/    |_|  |_| |__|  |__|  |_| \__\ |__|  \__/        
                                                                              
                      - O R C A' S   B I G   F R I E N D -                    
                                      &                                       
                       - I N T E G R A L  F E E D E R -                       
                                                                              
 v1 FN, 2020, v2 2021, v3 2022-2024                                           
------------------------------------------------------------------------------


----------------------
SHARK INTEGRAL PACKAGE
----------------------

Number of atoms                             ...     73
Number of basis functions                   ...    509
Number of shells                            ...    335
Maximum angular momentum                    ...      1
Integral batch strategy                     ... SHARK/LIBINT Hybrid
RI-J (if used) integral strategy            ... SPLIT-RIJ (Revised 2003 algorithm where possible)
Printlevel                                  ...      1
Contraction scheme used                     ... SEGMENTED contraction
Prescreening option                         ... SCHWARTZ
   Thresh                                   ... 3.000e-11
   Tcut                                     ... 1.000e-12
   Tpresel                                  ... 1.000e-12 
Coulomb Range Separation                    ... NOT USED
Exchange Range Separation                   ... NOT USED
Multipole approximations                    ... NOT USED
Finite Nucleus Model                        ... NOT USED
CABS basis                                  ... NOT available
Auxiliary Coulomb fitting basis             ... AVAILABLE
   # of basis functions in Aux-J            ...   1905
   # of shells in Aux-J                     ...    655
   Maximum angular momentum in Aux-J        ...      4
Auxiliary J/K fitting basis                 ... NOT available
Auxiliary Correlation fitting basis         ... NOT available
Auxiliary 'external' fitting basis          ... NOT available

Checking pre-screening integrals            ... done (  0.0 sec) Dimension = 335
Check shell pair data                       ... done (  0.0 sec)
Shell pair information
Shell pair cut-off parameter TPreSel        ...   1.0e-12
Total number of shell pairs                 ...     56280
Shell pairs after pre-screening             ...     21727
Total number of primitive shell pairs       ...    145865
Primitive shell pairs kept                  ...     37308
          la=0 lb=0:  10940 shell pairs
          la=1 lb=0:   8926 shell pairs
          la=1 lb=1:   1861 shell pairs

Calculating one electron integrals          ... done (  0.0 sec)
Calculating RI/J V-Matrix + Cholesky decomp.... done (  0.2 sec)
Calculating Nuclear repulsion               ... done (  0.0 sec) ENN=   2768.648229364842 Eh

Diagonalization of the overlap matrix:
Smallest eigenvalue                        ... 7.551e-03
Time for diagonalization                   ...    0.030 sec
Threshold for overlap eigenvalues          ... 1.000e-07
Number of eigenvalues below threshold      ... 0
Time for construction of square roots      ...    0.016 sec
Total time needed                          ...    0.049 sec

-------------------
DFT GRID GENERATION
-------------------

General Integration Accuracy     IntAcc      ... 4.388
Radial Grid Type                 RadialGrid  ... OptM3 with GC (2021)
Angular Grid (max. ang.)         AngularGrid ... 4 (Lebedev-302)
Angular grid pruning method      GridPruning ... 4 (adaptive)
Weight generation scheme         WeightScheme... mBecke (2022)
Basis function cutoff            BFCut       ... 1.0000e-11
Integration weight cutoff        WCut        ... 1.0000e-14
Partially contracted basis set               ... off
Rotationally invariant grid construction     ... off
Angular grids for H and He will be reduced by one unit

Total number of grid points                  ...   309977
Total number of batches                      ...     4879
Average number of points per batch           ...       63
Average number of grid points per atom       ...     4246

--------------------
COSX GRID GENERATION
--------------------

GRIDX 1
-------
General Integration Accuracy     IntAcc      ... 3.816
Radial Grid Type                 RadialGrid  ... OptM3 with GC (2021)
Angular Grid (max. ang.)         AngularGrid ... 1 (Lebedev-50)
Angular grid pruning method      GridPruning ... 4 (adaptive)
Weight generation scheme         WeightScheme... mBecke (2022)
Basis function cutoff            BFCut       ... 1.0000e-11
Integration weight cutoff        WCut        ... 1.0000e-14
Partially contracted basis set               ... on
Rotationally invariant grid construction     ... off
Angular grids for H and He will be reduced by one unit

Total number of grid points                  ...    39416
Total number of batches                      ...      350
Average number of points per batch           ...      112
Average number of grid points per atom       ...      540
UseSFitting                                  ... on

GRIDX 2
-------
General Integration Accuracy     IntAcc      ... 4.020
Radial Grid Type                 RadialGrid  ... OptM3 with GC (2021)
Angular Grid (max. ang.)         AngularGrid ... 2 (Lebedev-110)
Angular grid pruning method      GridPruning ... 4 (adaptive)
Weight generation scheme         WeightScheme... mBecke (2022)
Basis function cutoff            BFCut       ... 1.0000e-11
Integration weight cutoff        WCut        ... 1.0000e-14
Partially contracted basis set               ... on
Rotationally invariant grid construction     ... off
Angular grids for H and He will be reduced by one unit

Total number of grid points                  ...    81412
Total number of batches                      ...      677
Average number of points per batch           ...      120
Average number of grid points per atom       ...     1115
UseSFitting                                  ... on

GRIDX 3
-------
General Integration Accuracy     IntAcc      ... 4.338
Radial Grid Type                 RadialGrid  ... OptM3 with GC (2021)
Angular Grid (max. ang.)         AngularGrid ... 3 (Lebedev-194)
Angular grid pruning method      GridPruning ... 4 (adaptive)
Weight generation scheme         WeightScheme... mBecke (2022)
Basis function cutoff            BFCut       ... 1.0000e-11
Integration weight cutoff        WCut        ... 1.0000e-14
Partially contracted basis set               ... on
Rotationally invariant grid construction     ... off
Angular grids for H and He will be reduced by one unit

Total number of grid points                  ...   176268
Total number of batches                      ...     1419
Average number of points per batch           ...      124
Average number of grid points per atom       ...     2415
UseSFitting                                  ... on
Initializing property integral containers    ... done (  0.0 sec)

SHARK setup successfully completed in   3.9 seconds

Maximum memory used throughout the entire STARTUP-calculation: 85.2 MB


           ************************************************************
           *        Program running with 4 parallel MPI-processes     *
           *              working on a common directory               *
           ************************************************************
-------------------------------------------------------------------------------
                                 ORCA GUESS
                   Start orbitals & Density for SCF / CASSCF
-------------------------------------------------------------------------------

------------
SCF SETTINGS
------------
Hamiltonian:
 Density Functional     Method          .... DFT(GTOs)
 Exchange Functional    Exchange        .... PBE
   PBE kappa parameter   XKappa         ....  0.804000
   PBE mue parameter    XMuePBE         ....  0.219520
 Correlation Functional Correlation     .... PBE
   PBE beta parameter  CBetaPBE         ....  0.066725
 LDA part of GGA corr.  LDAOpt          .... PW91-LDA
 Gradients option       PostSCFGGA      .... off
 Hybrid DFT is turned on
   Fraction HF Exchange ScalHFX         ....  0.250000
   Scaling of DF-GGA-X  ScalDFX         ....  0.750000
   Scaling of DF-GGA-C  ScalDFC         ....  1.000000
   Scaling of DF-LDA-C  ScalLDAC        ....  1.000000
   Perturbative correction              ....  0.000000
   NL short-range parameter             ....  6.900000
 RI-approximation to the Coulomb term is turned on
   Number of AuxJ basis functions       .... 1905
   RIJ-COSX (HFX calculated with COS-X)).... on


General Settings:
 Integral files         IntName         .... inpJ
 Hartree-Fock type      HFTyp           .... RHF
 Total Charge           Charge          ....    0
 Multiplicity           Mult            ....    1
 Number of Electrons    NEL             ....  220
 Basis Dimension        Dim             ....  509
 Nuclear Repulsion      ENuc            ....   2768.6482293648 Eh

Convergence Acceleration:
 AO-DIIS                CNVDIIS         .... on
   Start iteration      DIISMaxIt       ....    12
   Startup error        DIISStart       ....  0.200000
   # of expansion vecs  DIISMaxEq       ....     5
   Bias factor          DIISBfac        ....   1.050
   Max. coefficient     DIISMaxC        ....  10.000
 MO-DIIS                CNVKDIIS        .... off
 Trust-Rad. Augm. Hess. CNVTRAH         .... auto
   Auto Start mean grad. ratio tolernc. ....  1.125000
   Auto Start start iteration           ....     1
   Auto Start num. interpolation iter.  ....    10
   Max. Number of Micro iterations      ....    24
   Max. Number of Macro iterations      .... Maxiter - #DIIS iter
   Number of Davidson start vectors     ....     2
   Converg. threshold    (grad. norm)   ....   1.000e-04
   Grad. Scal. Fac. for Micro threshold ....   0.100
   Minimum threshold for Micro iter.    ....   1.000e-02
   NR start threshold (gradient norm)   ....   1.000e-04
   Initial trust radius                 ....   0.400
   Minimum AH scaling param. (alpha)    ....   1.000
   Maximum AH scaling param. (alpha)    .... 1000.000
   Quad. conv. algorithm                .... NR
   White noise on init. David. guess    .... on
   Maximum white noise                  ....   0.010
   Pseudo random numbers                .... off
   Inactive MOs                         .... canonical
   Orbital update algorithm             .... Taylor
   Preconditioner                       .... Diag
   Full preconditioner red. dimension   ....   250
 SOSCF                  CNVSOSCF        .... off
 Level Shifting         CNVShift        .... on
   Level shift para.    LevelShift      ....    0.2500
   Turn off err/grad.   ShiftErr        ....    0.0010
 Zerner damping         CNVZerner       .... off
 Static damping         CNVDamp         .... on
   Fraction old density DampFac         ....    0.7000
   Max. Damping (<1)    DampMax         ....    0.9800
   Min. Damping (>=0)   DampMin         ....    0.0000
   Turn off err/grad.   DampErr         ....    0.1000

SCF Procedure:
 Maximum # iterations   MaxIter         ....   125
 SCF integral mode      SCFMode         .... Direct
   Integral package                     .... SHARK and LIBINT hybrid scheme
 Reset frequency        DirectResetFreq ....    20
 Integral Threshold     Thresh          ....  3.000e-11 Eh
 Primitive CutOff       TCut            ....  1.000e-12 Eh

Convergence Tolerance:
 Convergence Check Mode ConvCheckMode   .... Total+1el-Energy
 Convergence forced     ConvForced      .... 0
 Energy Change          TolE            ....  1.000e-07 Eh
 1-El. energy change                    ....  1.000e-04 Eh
 DIIS Error             TolErr          ....  1.000e-07

---------------------
INITIAL GUESS: MOREAD
---------------------
Guess MOs are being read from file: inpJ.ges
Input Geometry matches current geometry (good)
Input basis set matches current basis set (good)
Occupation numbers will be reassigned to an Aufbau configuration
MOs were renormalized
MOs were reorthogonalized (Cholesky)
                      ------------------
                      INITIAL GUESS DONE (   0.1 sec)
                      ------------------
             **** ENERGY FILE WAS UPDATED (inpJ.en.tmp) ****
Finished Guess after   0.2 sec
Maximum memory used throughout the entire GUESS-calculation: 36.6 MB


           ************************************************************
           *        Program running with 4 parallel MPI-processes     *
           *              working on a common directory               *
           ************************************************************

-------------------------------------------------------------------------------------------
                                      ORCA LEAN-SCF
                              memory conserving SCF solver
-------------------------------------------------------------------------------------------

--------------------
CPCM SOLVATION MODEL
--------------------
CPCM parameters:
  Epsilon                                         ...       4.8030
  Refrac                                          ...       1.4459
  Rsolv                                           ...       1.3000
  Surface type                                    ... GAUSSIAN VDW
  Discretization scheme                           ... Constant charge density
    Threshold for H atoms                         ...       5.0000 (charges/Ang^2)
    Threshold for non-H atoms                     ...       5.0000 (charges/Ang^2)
  Epsilon function type                           ...         CPCM
Solvent:                                          ... CHLOROFORM
Radii:
  Scheme                                          ... Element-dependent radii
  Radius for C  used is    3.8550 Bohr (=   2.0400 Ang.)
  Radius for H  used is    2.4944 Bohr (=   1.3200 Ang.)
  Radius for O  used is    3.4469 Bohr (=   1.8240 Ang.)
Calculating surface                               ...        done! (  0.0s)
Cavity surface points                             ...         5419
Cavity Volume                                     ...    3601.8606
Cavity Surface-area                               ...    1791.0886
Calculating surface distance matrix               ...        done! (  0.2s)
Performing Cholesky decomposition & store         ...        done! (  1.0s)
Overall time for CPCM initialization              ...                 1.2s

----------------------------------------D-I-I-S--------------------------------------------
Iteration    Energy (Eh)           Delta-E    RMSDP     MaxDP     DIISErr   Damp  Time(sec)
-------------------------------------------------------------------------------------------
               ***  Starting incremental Fock matrix formation  ***
    1    -1165.5078793124930598     0.00e+00  4.43e-08  5.90e-06  7.81e-06  0.700   6.2

  HOMO= 109 E= -5.922 eV LUMO=  5.988 eV gap=  11.910 eV
    2    -1165.5078793401717121    -2.77e-08  2.97e-08  3.51e-06  3.74e-06  0.700   2.0
                 **** Energy Check signals convergence ****

  HOMO= 109 E= -5.922 eV LUMO=  5.988 eV gap=  11.910 eV

               *****************************************************
               *                     SUCCESS                       *
               *           SCF CONVERGED AFTER   2 CYCLES          *
               *****************************************************

Recomputing exchange energy using gridx3       ... done (    8.176 sec)
Old exchange energy                            :    -42.067750823 Eh
New exchange energy                            :    -42.067774534 Eh
Exchange energy change after final integration :     -0.000023711 Eh
Total energy after final integration           :  -1165.507903051 Eh
             **** ENERGY FILE WAS UPDATED (inpJ.en.tmp) ****

----------------
TOTAL SCF ENERGY
----------------

Total Energy       :      -1165.50790305117494 Eh          -31715.08241 eV

Components:
Nuclear Repulsion  :       2768.64822936484188 Eh           75338.74847 eV
Electronic Energy  :      -3934.14059595455365 Eh         -107053.40811 eV
One Electron Energy:      -7079.37746077624161 Eh         -192639.65432 eV
Two Electron Energy:       3145.23686482168796 Eh           85586.24621 eV
CPCM Dielectric    :         -0.01551275046003 Eh              -0.42212 eV

Virial components:
Potential Energy   :      -2322.40865701295934 Eh          -63195.95238 eV
Kinetic Energy     :       1156.90075396178440 Eh           31480.86997 eV
Virial Ratio       :          2.00743983358980

DFT components:
N(Alpha)           :      110.000195482026 electrons
N(Beta)            :      110.000195482026 electrons
N(Total)           :      220.000390964052 electrons
E(X)               :     -125.746262900056 Eh       
E(C)               :       -7.327799669076 Eh       
E(XC)              :     -133.074062569131 Eh       

CPCM Solvation Model Properties:
Surface-charge          :         -0.03322069145567
Corrected charge        :         -0.00000000000000
Outlying charge corr.   :          0.00003844366800 Eh               0.00105 eV
Free-energy (cav+disp)  :  This term is not implemented in the current solvation scheme

---------------
SCF CONVERGENCE
---------------

  Last Energy change         ...    2.7679e-08  Tolerance :   1.0000e-07
  Last MAX-Density change    ...    3.5051e-06  Tolerance :   1.0000e-05
  Last RMS-Density change    ...    2.9662e-08  Tolerance :   1.0000e-06
  Last DIIS Error            ...    3.7356e-06  Tolerance :   1.0000e-07


----------------
ORBITAL ENERGIES
----------------

  NO   OCC          E(Eh)            E(eV) 
   0   2.0000     -19.215131      -522.8703 
   1   2.0000     -10.301409      -280.3156 
   2   2.0000     -10.269517      -279.4478 
   3   2.0000     -10.266758      -279.3727 
   4   2.0000     -10.261689      -279.2348 
   5   2.0000     -10.256254      -279.0868 
   6   2.0000     -10.253441      -279.0103 
   7   2.0000     -10.251494      -278.9573 
   8   2.0000     -10.251063      -278.9456 
   9   2.0000     -10.249315      -278.8980 
  10   2.0000     -10.249295      -278.8975 
  11   2.0000     -10.246112      -278.8109 
  12   2.0000     -10.245033      -278.7815 
  13   2.0000     -10.243966      -278.7525 
  14   2.0000     -10.243946      -278.7520 
  15   2.0000     -10.243324      -278.7350 
  16   2.0000     -10.243034      -278.7271 
  17   2.0000     -10.242463      -278.7116 
  18   2.0000     -10.241912      -278.6966 
  19   2.0000     -10.241099      -278.6745 
  20   2.0000     -10.239147      -278.6214 
  21   2.0000     -10.233489      -278.4674 
  22   2.0000     -10.233368      -278.4641 
  23   2.0000     -10.232417      -278.4382 
  24   2.0000     -10.226874      -278.2874 
  25   2.0000     -10.225008      -278.2366 
  26   2.0000     -10.224303      -278.2174 
  27   2.0000     -10.222103      -278.1576 
  28   2.0000     -10.219982      -278.0998 
  29   2.0000      -1.045915       -28.4608 
  30   2.0000      -0.900611       -24.5069 
  31   2.0000      -0.883666       -24.0458 
  32   2.0000      -0.859954       -23.4005 
  33   2.0000      -0.845360       -23.0034 
  34   2.0000      -0.821895       -22.3649 
  35   2.0000      -0.813645       -22.1404 
  36   2.0000      -0.794843       -21.6288 
  37   2.0000      -0.794706       -21.6250 
  38   2.0000      -0.776842       -21.1390 
  39   2.0000      -0.757317       -20.6076 
  40   2.0000      -0.738792       -20.1035 
  41   2.0000      -0.730540       -19.8790 
  42   2.0000      -0.713775       -19.4228 
  43   2.0000      -0.702225       -19.1085 
  44   2.0000      -0.699341       -19.0300 
  45   2.0000      -0.693542       -18.8722 
  46   2.0000      -0.672195       -18.2913 
  47   2.0000      -0.668825       -18.1996 
  48   2.0000      -0.633082       -17.2270 
  49   2.0000      -0.621752       -16.9187 
  50   2.0000      -0.619400       -16.8547 
  51   2.0000      -0.607858       -16.5407 
  52   2.0000      -0.596614       -16.2347 
  53   2.0000      -0.578349       -15.7377 
  54   2.0000      -0.561908       -15.2903 
  55   2.0000      -0.541850       -14.7445 
  56   2.0000      -0.532145       -14.4804 
  57   2.0000      -0.529196       -14.4002 
  58   2.0000      -0.514998       -14.0138 
  59   2.0000      -0.509311       -13.8590 
  60   2.0000      -0.497600       -13.5404 
  61   2.0000      -0.491903       -13.3854 
  62   2.0000      -0.486308       -13.2331 
  63   2.0000      -0.480297       -13.0695 
  64   2.0000      -0.475901       -12.9499 
  65   2.0000      -0.474369       -12.9082 
  66   2.0000      -0.464593       -12.6422 
  67   2.0000      -0.457225       -12.4417 
  68   2.0000      -0.455770       -12.4021 
  69   2.0000      -0.452661       -12.3175 
  70   2.0000      -0.449301       -12.2261 
  71   2.0000      -0.440425       -11.9846 
  72   2.0000      -0.437898       -11.9158 
  73   2.0000      -0.431475       -11.7410 
  74   2.0000      -0.428580       -11.6623 
  75   2.0000      -0.418030       -11.3752 
  76   2.0000      -0.415614       -11.3094 
  77   2.0000      -0.412418       -11.2225 
  78   2.0000      -0.408125       -11.1056 
  79   2.0000      -0.406712       -11.0672 
  80   2.0000      -0.401970       -10.9382 
  81   2.0000      -0.399633       -10.8746 
  82   2.0000      -0.395885       -10.7726 
  83   2.0000      -0.391716       -10.6591 
  84   2.0000      -0.386194       -10.5089 
  85   2.0000      -0.381354       -10.3772 
  86   2.0000      -0.377936       -10.2842 
  87   2.0000      -0.368715       -10.0332 
  88   2.0000      -0.367265        -9.9938 
  89   2.0000      -0.364149        -9.9090 
  90   2.0000      -0.363102        -9.8805 
  91   2.0000      -0.356650        -9.7049 
  92   2.0000      -0.354815        -9.6550 
  93   2.0000      -0.344359        -9.3705 
  94   2.0000      -0.341069        -9.2809 
  95   2.0000      -0.338644        -9.2150 
  96   2.0000      -0.336770        -9.1640 
  97   2.0000      -0.333498        -9.0749 
  98   2.0000      -0.330057        -8.9813 
  99   2.0000      -0.327392        -8.9088 
 100   2.0000      -0.326605        -8.8874 
 101   2.0000      -0.325115        -8.8468 
 102   2.0000      -0.317161        -8.6304 
 103   2.0000      -0.315366        -8.5816 
 104   2.0000      -0.310864        -8.4590 
 105   2.0000      -0.299760        -8.1569 
 106   2.0000      -0.279887        -7.6161 
 107   2.0000      -0.274741        -7.4761 
 108   2.0000      -0.255491        -6.9523 
 109   2.0000      -0.217641        -5.9223 
 110   0.0000      -0.029943        -0.8148 
 111   0.0000       0.021376         0.5817 
 112   0.0000       0.029552         0.8041 
 113   0.0000       0.081697         2.2231 
 114   0.0000       0.091580         2.4920 
 115   0.0000       0.101822         2.7707 
 116   0.0000       0.105737         2.8773 
 117   0.0000       0.107870         2.9353 
 118   0.0000       0.109390         2.9766 
 119   0.0000       0.114360         3.1119 
 120   0.0000       0.118553         3.2260 
*Only the first 10 virtual orbitals were printed.

                    ********************************
                    * MULLIKEN POPULATION ANALYSIS *
                    ********************************

-----------------------
MULLIKEN ATOMIC CHARGES
-----------------------
   0 C :    0.107003
   1 C :   -0.499719
   2 C :   -0.054693
   3 H :    0.207256
   4 H :    0.222088
   5 C :    0.135367
   6 C :   -0.475490
   7 C :   -0.451657
   8 H :    0.214202
   9 H :    0.224019
  10 H :    0.229112
  11 H :    0.204598
  12 O :   -0.487395
  13 H :    0.233777
  14 C :   -0.283244
  15 C :   -0.516684
  16 H :    0.201261
  17 H :    0.196640
  18 C :   -0.259796
  19 H :    0.217719
  20 C :    0.150690
  21 H :    0.219247
  22 C :   -0.480376
  23 C :   -0.427150
  24 H :    0.211522
  25 H :    0.206341
  26 C :   -0.396340
  27 H :    0.207832
  28 H :    0.216621
  29 C :    0.004093
  30 H :    0.222575
  31 H :    0.194184
  32 C :   -0.228938
  33 H :    0.226713
  34 C :   -0.434371
  35 H :    0.343237
  36 C :   -0.418619
  37 H :    0.207199
  38 H :    0.198326
  39 C :   -0.199829
  40 H :    0.210285
  41 H :    0.204132
  42 H :    0.209199
  43 C :   -0.241200
  44 C :   -0.629007
  45 H :    0.209302
  46 H :    0.201328
  47 H :    0.205209
  48 H :    0.220082
  49 C :   -0.620159
  50 C :   -0.179109
  51 C :   -0.181641
  52 H :    0.218105
  53 H :    0.213046
  54 C :   -0.223068
  55 C :   -0.642280
  56 C :   -0.202432
  57 H :    0.224651
  58 H :    0.220655
  59 C :   -0.610157
  60 C :   -0.614660
  61 H :    0.201544
  62 H :    0.196239
  63 H :    0.212121
  64 H :    0.204135
  65 H :    0.200191
  66 H :    0.197765
  67 H :    0.195592
  68 H :    0.202769
  69 H :    0.200152
  70 H :    0.204686
  71 H :    0.208374
  72 H :    0.196831
Sum of atomic charges:   -0.0000000

--------------------------------
MULLIKEN REDUCED ORBITAL CHARGES
--------------------------------
  0 C s       :     3.355905  s :     3.355905
      pz      :     1.002487  p :     2.537092
      px      :     0.800579
      py      :     0.734026

  1 C s       :     3.383598  s :     3.383598
      pz      :     0.998722  p :     3.116121
      px      :     0.968038
      py      :     1.149361

  2 C s       :     3.306293  s :     3.306293
      pz      :     1.034621  p :     2.748400
      px      :     0.825026
      py      :     0.888753

  3 H s       :     0.792744  s :     0.792744

  4 H s       :     0.777912  s :     0.777912

  5 C s       :     3.345089  s :     3.345089
      pz      :     0.813579  p :     2.519545
      px      :     0.954886
      py      :     0.751080

  6 C s       :     3.368259  s :     3.368259
      pz      :     1.006487  p :     3.107231
      px      :     0.966718
      py      :     1.134026

  7 C s       :     3.340441  s :     3.340441
      pz      :     1.187321  p :     3.111216
      px      :     0.999417
      py      :     0.924478

  8 H s       :     0.785798  s :     0.785798

  9 H s       :     0.775981  s :     0.775981

 10 H s       :     0.770888  s :     0.770888

 11 H s       :     0.795402  s :     0.795402

 12 O s       :     3.685563  s :     3.685563
      pz      :     1.675182  p :     4.801831
      px      :     1.267033
      py      :     1.859617

 13 H s       :     0.766223  s :     0.766223

 14 C s       :     3.392462  s :     3.392462
      pz      :     1.001517  p :     2.890783
      px      :     0.802531
      py      :     1.086735

 15 C s       :     3.386528  s :     3.386528
      pz      :     1.001635  p :     3.130155
      px      :     1.018510
      py      :     1.110011

 16 H s       :     0.798739  s :     0.798739

 17 H s       :     0.803360  s :     0.803360

 18 C s       :     3.397089  s :     3.397089
      pz      :     1.020145  p :     2.862707
      px      :     0.755201
      py      :     1.087361

 19 H s       :     0.782281  s :     0.782281

 20 C s       :     3.350422  s :     3.350422
      pz      :     0.949874  p :     2.498888
      px      :     0.756450
      py      :     0.792565

 21 H s       :     0.780753  s :     0.780753

 22 C s       :     3.372583  s :     3.372583
      pz      :     1.108672  p :     3.107793
      px      :     1.109631
      py      :     0.889489

 23 C s       :     3.327194  s :     3.327194
      pz      :     1.096807  p :     3.099956
      px      :     0.890759
      py      :     1.112390

 24 H s       :     0.788478  s :     0.788478

 25 H s       :     0.793659  s :     0.793659

 26 C s       :     3.349481  s :     3.349481
      pz      :     1.173407  p :     3.046860
      px      :     0.967777
      py      :     0.905676

 27 H s       :     0.792168  s :     0.792168

 28 H s       :     0.783379  s :     0.783379

 29 C s       :     3.317400  s :     3.317400
      pz      :     0.870191  p :     2.678507
      px      :     0.904382
      py      :     0.903934

 30 H s       :     0.777425  s :     0.777425

 31 H s       :     0.805816  s :     0.805816

 32 C s       :     3.362194  s :     3.362194
      pz      :     1.078123  p :     2.866743
      px      :     0.867746
      py      :     0.920874

 33 H s       :     0.773287  s :     0.773287

 34 C s       :     3.343908  s :     3.343908
      pz      :     1.190604  p :     3.090463
      px      :     0.939126
      py      :     0.960734

 35 H s       :     0.656763  s :     0.656763

 36 C s       :     3.338424  s :     3.338424
      pz      :     1.169291  p :     3.080194
      px      :     0.928687
      py      :     0.982217

 37 H s       :     0.792801  s :     0.792801

 38 H s       :     0.801674  s :     0.801674

 39 C s       :     3.342363  s :     3.342363
      pz      :     1.063684  p :     2.857466
      px      :     0.864470
      py      :     0.929312

 40 H s       :     0.789715  s :     0.789715

 41 H s       :     0.795868  s :     0.795868

 42 H s       :     0.790801  s :     0.790801

 43 C s       :     3.347415  s :     3.347415
      pz      :     1.048969  p :     2.893784
      px      :     0.884452
      py      :     0.960363

 44 C s       :     3.366144  s :     3.366144
      pz      :     0.957093  p :     3.262863
      px      :     1.161839
      py      :     1.143931

 45 H s       :     0.790698  s :     0.790698

 46 H s       :     0.798672  s :     0.798672

 47 H s       :     0.794791  s :     0.794791

 48 H s       :     0.779918  s :     0.779918

 49 C s       :     3.348482  s :     3.348482
      pz      :     1.148394  p :     3.271677
      px      :     1.151273
      py      :     0.972010

 50 C s       :     3.349176  s :     3.349176
      pz      :     0.876286  p :     2.829933
      px      :     0.968393
      py      :     0.985254

 51 C s       :     3.351924  s :     3.351924
      pz      :     0.882557  p :     2.829717
      px      :     0.963511
      py      :     0.983650

 52 H s       :     0.781895  s :     0.781895

 53 H s       :     0.786954  s :     0.786954

 54 C s       :     3.340767  s :     3.340767
      pz      :     0.941669  p :     2.882301
      px      :     0.901388
      py      :     1.039243

 55 C s       :     3.351816  s :     3.351816
      pz      :     1.071315  p :     3.290464
      px      :     1.074766
      py      :     1.144383

 56 C s       :     3.311774  s :     3.311774
      pz      :     0.976677  p :     2.890658
      px      :     1.023245
      py      :     0.890736

 57 H s       :     0.775349  s :     0.775349

 58 H s       :     0.779345  s :     0.779345

 59 C s       :     3.341796  s :     3.341796
      pz      :     1.092491  p :     3.268361
      px      :     1.052791
      py      :     1.123080

 60 C s       :     3.344686  s :     3.344686
      pz      :     1.124049  p :     3.269974
      px      :     1.137974
      py      :     1.007951

 61 H s       :     0.798456  s :     0.798456

 62 H s       :     0.803761  s :     0.803761

 63 H s       :     0.787879  s :     0.787879

 64 H s       :     0.795865  s :     0.795865

 65 H s       :     0.799809  s :     0.799809

 66 H s       :     0.802235  s :     0.802235

 67 H s       :     0.804408  s :     0.804408

 68 H s       :     0.797231  s :     0.797231

 69 H s       :     0.799848  s :     0.799848

 70 H s       :     0.795314  s :     0.795314

 71 H s       :     0.791626  s :     0.791626

 72 H s       :     0.803169  s :     0.803169


------------------------
MULLIKEN OVERLAP CHARGES
------------------------
B(  0-C ,  1-C ) :   0.4963 B(  0-C ,  2-C ) :  -0.1308 B(  0-C ,  3-H ) :  -0.0877 
B(  0-C ,  4-H ) :  -0.0672 B(  0-C ,  5-C ) :   0.4214 B(  0-C ,  6-C ) :  -0.1567 
B(  0-C , 14-C ) :   0.9464 B(  0-C , 15-C ) :  -0.2025 B(  0-C , 18-C ) :  -0.1836 
B(  0-C , 19-H ) :  -0.0750 B(  1-C ,  2-C ) :   0.5270 B(  1-C ,  3-H ) :   0.7957 
B(  1-C ,  4-H ) :   0.8137 B(  1-C ,  5-C ) :  -0.1487 B(  1-C ,  7-C ) :  -0.1687 
B(  1-C , 12-O ) :  -0.0832 B(  1-C , 13-H ) :  -0.0845 B(  1-C , 14-C ) :  -0.1079 
B(  2-C ,  3-H ) :  -0.0821 B(  2-C ,  4-H ) :  -0.0580 B(  2-C ,  6-C ) :  -0.1286 
B(  2-C ,  7-C ) :   0.5344 B(  2-C , 10-H ) :  -0.0697 B(  2-C , 11-H ) :  -0.0825 
B(  2-C , 12-O ) :   0.6903 B(  2-C , 13-H ) :   0.7985 B(  2-C , 35-H ) :  -0.1133 
B(  5-C ,  6-C ) :   0.5393 B(  5-C ,  7-C ) :  -0.1713 B(  5-C ,  8-H ) :  -0.0880 
B(  5-C ,  9-H ) :  -0.0736 B(  5-C , 14-C ) :  -0.1963 B(  5-C , 15-C ) :   1.0590 
B(  5-C , 16-H ) :  -0.0994 B(  5-C , 17-H ) :  -0.0943 B(  6-C ,  7-C ) :   0.5410 
B(  6-C ,  8-H ) :   0.8036 B(  6-C ,  9-H ) :   0.8190 B(  6-C , 11-H ) :  -0.0737 
B(  6-C , 15-C ) :  -0.1288 B(  7-C ,  8-H ) :  -0.0771 B(  7-C , 10-H ) :   0.8059 
B(  7-C , 11-H ) :   0.7945 B(  7-C , 12-O ) :  -0.0901 B(  7-C , 13-H ) :  -0.0842 
B( 12-O , 35-H ) :   0.6600 B( 14-C , 18-C ) :   0.6128 B( 14-C , 19-H ) :   0.8251 
B( 14-C , 20-C ) :  -0.1952 B( 14-C , 21-H ) :  -0.0733 B( 15-C , 16-H ) :   0.8143 
B( 15-C , 17-H ) :   0.8068 B( 18-C , 19-H ) :  -0.0610 B( 18-C , 20-C ) :   0.9212 
B( 18-C , 21-H ) :   0.8318 B( 18-C , 22-C ) :  -0.1500 B( 18-C , 32-C ) :  -0.1485 
B( 20-C , 21-H ) :  -0.0845 B( 20-C , 22-C ) :   0.5329 B( 20-C , 23-C ) :  -0.1714 
B( 20-C , 24-H ) :  -0.0667 B( 20-C , 25-H ) :  -0.0927 B( 20-C , 29-C ) :  -0.1259 
B( 20-C , 32-C ) :   0.5186 B( 20-C , 33-H ) :  -0.0912 B( 20-C , 34-C ) :  -0.0988 
[...]
        0.0000         1.6085        0.0000
        0.0000         0.0000        1.6085

 Diagonalized JT*J matrix:
 
 J[55,60](FC)             1.608            1.608            1.608  iso=      1.608
                ---------------  ---------------  ---------------  ---------------
 J[55,60](Total)          1.608            1.608            1.608  iso=      1.608



-----------------------------------------------------------
 NUCLEUS A = C   56 NUCLEUS B = C   59 
 ( 13C  gnA =  1.405  13C  gnB =  1.405) r(AB) =     1.5306
-----------------------------------------------------------

Fermi-contact contribution to J (Hz):
       26.8858         0.0000        0.0000
        0.0000        26.8858        0.0000
        0.0000         0.0000       26.8858

Total spin-spin coupling tensor J (Hz):
       26.8858         0.0000        0.0000
        0.0000        26.8858        0.0000
        0.0000         0.0000       26.8858

 Diagonalized JT*J matrix:
 
 J[56,59](FC)            26.886           26.886           26.886  iso=     26.886
                ---------------  ---------------  ---------------  ---------------
 J[56,59](Total)         26.886           26.886           26.886  iso=     26.886



-----------------------------------------------------------
 NUCLEUS A = C   56 NUCLEUS B = C   60 
 ( 13C  gnA =  1.405  13C  gnB =  1.405) r(AB) =     1.5300
-----------------------------------------------------------

Fermi-contact contribution to J (Hz):
       26.9082         0.0000        0.0000
        0.0000        26.9082        0.0000
        0.0000         0.0000       26.9082

Total spin-spin coupling tensor J (Hz):
       26.9082         0.0000        0.0000
        0.0000        26.9082        0.0000
        0.0000         0.0000       26.9082

 Diagonalized JT*J matrix:
 
 J[56,60](FC)            26.908           26.908           26.908  iso=     26.908
                ---------------  ---------------  ---------------  ---------------
 J[56,60](Total)         26.908           26.908           26.908  iso=     26.908



-----------------------------------------------------------
 NUCLEUS A = C   59 NUCLEUS B = C   60 
 ( 13C  gnA =  1.405  13C  gnB =  1.405) r(AB) =     2.5178
-----------------------------------------------------------

Fermi-contact contribution to J (Hz):
       -0.8383         0.0000        0.0000
        0.0000        -0.8383        0.0000
        0.0000         0.0000       -0.8383

Total spin-spin coupling tensor J (Hz):
       -0.8383         0.0000        0.0000
        0.0000        -0.8383        0.0000
        0.0000         0.0000       -0.8383

 Diagonalized JT*J matrix:
 
 J[59,60](FC)            -0.838           -0.838           -0.838  iso=     -0.838
                ---------------  ---------------  ---------------  ---------------
 J[59,60](Total)         -0.838           -0.838           -0.838  iso=     -0.838



-----------------------------------------------------------------------------
                SUMMARY OF ISOTROPIC COUPLING CONSTANTS J (Hz)                
-----------------------------------------------------------------------------
                  0 C        1 C        2 C        5 C        6 C        7 C  
      0 C        0.000     32.387     -2.397     42.146     -0.183      0.882
      1 C       32.387      0.000     25.284     -1.194      0.387     -0.396
      2 C       -2.397     25.284      0.000      2.018     -1.372     25.837
      5 C       42.146     -1.194      2.018      0.000     30.999     -2.892
      6 C       -0.183      0.387     -1.372     30.999      0.000     23.070
      7 C        0.882     -0.396     25.837     -2.892     23.070      0.000
     14 C       70.297     -0.383      3.569     -3.178      2.729     -0.706
     15 C       -3.284      2.719     -0.838     64.352     -0.909      2.829
     18 C       -2.631      4.225     -1.087      3.276     -1.018      0.206
     20 C        6.960     -1.153      1.271     -1.502      0.785     -0.146
     22 C       -0.951      0.334     -0.385      0.447     -0.237      0.046
     23 C        0.813     -0.276      0.301     -0.339      0.193      0.000
     26 C       -0.080      0.031      0.000      0.042      0.000      0.000
     29 C        1.138     -0.364      0.000     -0.489      0.260      0.000
     32 C       -1.152      0.557     -0.419      0.512     -0.277      0.058
     34 C        0.021     -0.015      0.016     -0.017      0.007     -0.002
     36 C       -0.014      0.000      0.000      0.016     -0.009      0.000
     39 C       -0.077      0.000      0.000      0.032      0.000      0.000
     43 C        0.000      0.000      0.000      0.000      0.000      0.000
     44 C        0.008     -0.003      0.004     -0.006      0.005     -0.001
     49 C        0.000      0.000      0.000      0.000      0.000      0.000
     50 C        0.000      0.000      0.000      0.000      0.000      0.000
     51 C        0.000      0.000      0.000      0.000      0.000      0.000
     54 C        0.000      0.000      0.000      0.000      0.000      0.000
     55 C        0.000      0.000      0.000      0.000      0.000      0.000
     56 C        0.000      0.000      0.000      0.000      0.000      0.000
     59 C        0.000      0.000      0.000      0.000      0.000      0.000
     60 C        0.000      0.000      0.000      0.000      0.000      0.000
                 14 C       15 C       18 C       20 C       22 C       23 C  
      0 C       70.297     -3.284     -2.631      6.960     -0.951      0.813
      1 C       -0.383      2.719      4.225     -1.153      0.334     -0.276
      2 C        3.569     -0.838     -1.087      1.271     -0.385      0.301
      5 C       -3.178     64.352      3.276     -1.502      0.447     -0.339
      6 C        2.729     -0.909     -1.018      0.785     -0.237      0.193
      7 C       -0.706      2.829      0.206     -0.146      0.046      0.000
     14 C        0.000      3.064     54.449     -2.783      3.857     -0.919
     15 C        3.064      0.000     -1.131      1.072     -0.278      0.244
     18 C       54.449     -1.131      0.000     70.038     -2.190      2.478
     20 C       -2.783      1.072     70.038      0.000     32.248     -2.903
     22 C        3.857     -0.278     -2.190     32.248      0.000     24.404
     23 C       -0.919      0.244      2.478     -2.903     24.404      0.000
     26 C        0.117     -0.022     -0.367      1.027     -1.924     25.438
     29 C       -1.167      0.345      2.403     -2.381      1.099     -2.211
     32 C        4.413     -0.338     -1.317     37.048     -0.231      1.512
     34 C        0.065      0.005      2.441     -1.333      1.606     -0.256
     36 C        0.015     -0.014     -0.155      3.533      0.059      0.170
     39 C        0.265     -0.023     -0.039      2.957     -0.338      2.563
     43 C        0.007      0.000      0.299      0.188      0.002     -0.112
     44 C        0.001      0.003     -0.069      0.696     -0.132      0.599
     49 C       -0.001      0.000     -0.010     -0.035      0.140      0.042
     50 C        0.000      0.000      0.033      0.148     -0.009      0.137
     51 C        0.000      0.000     -0.006      0.040     -0.002     -0.007
     54 C        0.000      0.000      0.000      0.000      0.000      0.000
     55 C        0.000      0.000      0.000      0.000      0.000      0.000
     56 C        0.000      0.000      0.000      0.000      0.000      0.000
     59 C        0.000      0.000      0.000      0.000      0.000      0.000
     60 C        0.000      0.000      0.000      0.000      0.000      0.000
                 26 C       29 C       32 C       34 C       36 C       39 C  
      0 C       -0.080      1.138     -1.152      0.021     -0.014     -0.077
      1 C        0.031     -0.364      0.557     -0.015      0.000      0.000
      2 C        0.000      0.000     -0.419      0.016      0.000      0.000
      5 C        0.042     -0.489      0.512     -0.017      0.016      0.032
      6 C        0.000      0.260     -0.277      0.007     -0.009      0.000
      7 C        0.000      0.000      0.058     -0.002      0.000      0.000
     14 C        0.117     -1.167      4.413      0.065      0.015      0.265
     15 C       -0.022      0.345     -0.338      0.005     -0.014     -0.023
     18 C       -0.367      2.403     -1.317      2.441     -0.155     -0.039
     20 C        1.027     -2.381     37.048     -1.333      3.533      2.957
     22 C       -1.924      1.099     -0.231      1.606      0.059     -0.338
     23 C       25.438     -2.211      1.512     -0.256      0.170      2.563
     26 C        0.000     27.845     -0.958      2.307      3.019     -0.582
     29 C       27.845      0.000     23.354      0.898      0.563     28.905
     32 C       -0.958     23.354      0.000     27.924      1.306      3.520
     34 C        2.307      0.898     27.924      0.000     25.927      0.038
     36 C        3.019      0.563      1.306     25.927      0.000     26.273
     39 C       -0.582     28.905      3.520      0.038     26.273      0.000
     43 C       -0.010     -0.689      2.730      1.666      0.226     30.583
     44 C       -0.593     27.340     -0.952      0.840      0.262     -1.208
     49 C        0.375      0.209      0.001     -0.001      3.190     -1.003
     50 C       -0.087      3.319      0.005     -0.061      0.566     -1.688
     51 C        0.020     -0.122      0.038      0.010      0.124      1.955
     54 C        0.004      0.002     -0.004     -0.002      0.027     -0.131
     55 C       -0.003      0.060      0.002     -0.000      0.014      0.099
     56 C        0.002     -0.028      0.005     -0.004     -0.049      0.080
     59 C        0.000      0.000      0.000      0.000     -0.001     -0.007
     60 C       -0.000     -0.000      0.000      0.001      0.003     -0.002
                 43 C       44 C       49 C       50 C       51 C       54 C  
      0 C        0.000      0.008      0.000      0.000      0.000      0.000
      1 C        0.000     -0.003      0.000      0.000      0.000      0.000
      2 C        0.000      0.004      0.000      0.000      0.000      0.000
      5 C        0.000     -0.006      0.000      0.000      0.000      0.000
      6 C        0.000      0.005      0.000      0.000      0.000      0.000
      7 C        0.000     -0.001      0.000      0.000      0.000      0.000
     14 C        0.007      0.001     -0.001      0.000      0.000      0.000
     15 C        0.000      0.003      0.000      0.000      0.000      0.000
     18 C        0.299     -0.069     -0.010      0.033     -0.006      0.000
     20 C        0.188      0.696     -0.035      0.148      0.040      0.000
     22 C        0.002     -0.132      0.140     -0.009     -0.002      0.000
     23 C       -0.112      0.599      0.042      0.137     -0.007      0.000
     26 C       -0.010     -0.593      0.375     -0.087      0.020      0.004
     29 C       -0.689     27.340      0.209      3.319     -0.122      0.002
     32 C        2.730     -0.952      0.001      0.005      0.038     -0.004
     34 C        1.666      0.840     -0.001     -0.061      0.010     -0.002
     36 C        0.226      0.262      3.190      0.566      0.124      0.027
     39 C       30.583     -1.208     -1.003     -1.688      1.955     -0.131
     43 C        0.000      1.498     24.889     35.538     -1.616      3.377
     44 C        1.498      0.000     -0.091     -0.144      0.133      0.022
     49 C       24.889     -0.091      0.000     -3.384      3.427     -1.044
     50 C       35.538     -0.144     -3.384      0.000     68.702     -1.779
     51 C       -1.616      0.133      3.427     68.702      0.000     36.688
     54 C        3.377      0.022     -1.044     -1.779     36.688      0.000
     55 C       -0.016     -0.003      0.049      2.849     -1.691     27.741
     56 C       -0.668      0.018      1.479      3.310     -1.476     25.571
     59 C        0.182      0.000      0.008      0.389      3.728     -0.325
     60 C       -0.003     -0.001     -0.064     -0.099      0.499     -1.322
                 55 C       56 C       59 C       60 C  
      0 C        0.000      0.000      0.000      0.000
      1 C        0.000      0.000      0.000      0.000
      2 C        0.000      0.000      0.000      0.000
      5 C        0.000      0.000      0.000      0.000
      6 C        0.000      0.000      0.000      0.000
      7 C        0.000      0.000      0.000      0.000
     14 C        0.000      0.000      0.000      0.000
     15 C        0.000      0.000      0.000      0.000
     18 C        0.000      0.000      0.000      0.000
     20 C        0.000      0.000      0.000      0.000
     22 C        0.000      0.000      0.000      0.000
     23 C        0.000      0.000      0.000      0.000
     26 C       -0.003      0.002      0.000     -0.000
     29 C        0.060     -0.028      0.000     -0.000
     32 C        0.002      0.005      0.000      0.000
     34 C       -0.000     -0.004      0.000      0.001
     36 C        0.014     -0.049     -0.001      0.003
     39 C        0.099      0.080     -0.007     -0.002
     43 C       -0.016     -0.668      0.182     -0.003
     44 C       -0.003      0.018      0.000     -0.001
     49 C        0.049      1.479      0.008     -0.064
     50 C        2.849      3.310      0.389     -0.099
     51 C       -1.691     -1.476      3.728      0.499
     54 C       27.741     25.571     -0.325     -1.322
     55 C        0.000     -1.714      0.842      1.608
     56 C       -1.714      0.000     26.886     26.908
     59 C        0.842     26.886      0.000     -0.838
     60 C        1.608     26.908     -0.838      0.000

NMR spin-spin coupling calculation done in   0.3 sec 

Maximum memory used throughout the entire PROP-calculation: 34.1 MB

--------------------------------
SUGGESTED CITATIONS FOR THIS RUN
--------------------------------

Below you find a list of papers that are relevant to this ORCA run
We neither can nor want to force you to cite these papers, but we appreciate if you do
You receive ORCA, which is the product of decades of hard work by many enthusiastic individuals, for free
The only thing we kindly ask in return is that you cite our papers,
We deeply appreciate it, if you show your appreciation for ORCA by not just citing the generic ORCA reference.

Please note that relegating all ORCA citations to the supporting information does *not* help us.
SI sections are not indexed - citations you put there will not count into any citation statistics
But we need these citations in order to attract the funding resources that allow us to do what we are doing

Therefore, if you are a happy ORCA user, please consider citing a few of the papers listed below in the main body of your paper

In addition to the list printed below, the program has created the file inpJ.bibtex that contains the list in bibtex format
You can import this file easily into all common literature databanks and citation aid programs


List of essential papers. We consider these as the minimum necessary citations

  1. Neese,F.
     Software update: the ORCA program system, version 5.0
     WIRES Comput. Molec. Sci., 2022 12(1)e1606
     doi.org/10.1002/wcms.1606

List of papers to cite with high priority. The work reported in these papers was absolutely
necessary for this run to complete.
Our perspective: the developers of density functionals and basis sets usually get cited in chemistry papers
Good! But without the algorithms to do something with them, the functionals or basis sets would not do anything.
Hence, in our opinion, the algorithm design and method developments papers are equally worthy of getting cited

  1. Neese,F.
     An improvement of the resolution of the identity approximation for the formation of the Coulomb matrix
     J. Comp. Chem., 2003 24(14)1740-1747
     doi.org/10.1002/jcc.10318
  2. Neese,F.; Wennmohs,F.; Hansen,A.; Becker,U.
     Efficient, approximate and parallel Hartree-Fock and hybrid DFT calculations. A 'chain-of-spheres' algorithm for the Hartree-Fock exchange
     Chem. Phys., 2009 356(1-3)98-109
     doi.org/10.1016/j.chemphys.2008.10.036
  3. Stoychev,G.L.; Auer,A.A.; Izsak,R.; Neese,F.
     Self-Consistent Field Calculation of Nuclear Magnetic Resonance Chemical Shielding Constants Using Gauge-Including Atomic Orbitals and Approximate Two-Electron Integrals
     J. Chem. Theory Comput., 2018 14(2)619-637
     doi.org/10.1021/acs.jctc.7b01006
  4. Garcia-Rates,M.; Neese,F.
     Effect of the Solute Cavity on the Solvation Energy and its Derivatives within the Framework of the Gaussian Charge Scheme
     J. Comput. Chem., 2020 41 922-939
     doi.org/10.1002/jcc.26139
  5. Helmich-Paris,B.; de Souza,B.; Neese,F.; Izsák,R.
     An improved chain of spheres for exchange algorithm
     J. Chem. Phys., 2021 155 104109
     doi.org/doi: 10.1063/5.0058766.
  6. Neese,F.
     The SHARK Integral Generation and Digestion System
     J. Comp. Chem., 2022  1-16
     doi.org/10.1002/jcc.26942
  7. Grimme,S.; Bannwarth,C.; Dohm,S.; Hansen,A.; Pisarek,J.; Pracht,P.; Seibert,J.; Neese,F.
     Fully Automated Quantum-Chemistry-Based Computation of Spin-Spin-Coupled Nuclear Magnetic Resonance Spectra
     Angew. Chem., Int. Ed., 2017 56 14763-14769
     doi.org/10.1002/anie.201708266
  8. Caldeweyher,E.; Bannwarth,C.; Grimme,S.
     Extension of the D3 dispersion coefficient model
     J. Chem. Phys., 2017 147 034112-XXXX
     doi.org/10.1063/1.4993215
  9. Caldeweyher,E.; Ehlert,S.; Hansen,A.; Neugebauer,H.; Spicher,S.; Bannwarth,C.; Grimme,S.
     A generally applicable atomic-charge dependent London dispersion correction
     J. Chem. Phys., 2019 150 154122-XXXX
     doi.org/10.1063/1.5090222
 10. Caldeweyher,E.; Mewes,J.; Ehlert,S.; Grimme,S.
     Extension and evaluation of the D4 London-dispersion model for periodic systems
     Phys. Chem. Chem. Phys., 2020 22(16)8499-8512
     doi.org/10.1039/D0CP00502A

List of suggested additional citations. These are papers that are important in the 'surrounding' of 
of this run, or papers that preceded the highly important papers. If you like your results we are grateful for a citation.

  1. Izsak,R.; Neese,F.
     An overlap fitted chain of spheres exchange method
     J. Chem. Phys., 2011 135 144105
     doi.org/10.1063/1.3646921
  2. Izsak,R.; Hansen,A.; Neese,F.
     The resolution of identity and chain of spheres approximations for the LPNO-CCSD singles Fock term
     Molec. Phys., 2012 110 2413-2417
     doi.org/10.1080/00268976.2012.687466
  3. Neese,F.
     The ORCA program system
     WIRES Comput. Molec. Sci., 2012 2(1)73-78
     doi.org/10.1002/wcms.81
  4. Izsak,R.; Neese,F.; Klopper,W.
     Robust fitting techniques in the chain of spheres approximation to the Fock exchange: The role of the complementary space
     J. Chem. Phys., 2013 139 
     doi.org/10.1063/1.4819264
  5. Neese,F.
     Software update: the ORCA program system, version 4.0
     WIRES Comput. Molec. Sci., 2018 8(1)1-6
     doi.org/10.1002/wcms.1327
  6. Neese,F.; Wennmohs,F.; Becker,U.; Riplinger,C.
     The ORCA quantum chemistry program package
     J. Chem. Phys., 2020 152 Art. No. L224108
     doi.org/10.1063/5.0004608

Timings for individual modules:

Sum of individual times          ...      134.027 sec (=   2.234 min)
Startup calculation              ...        4.108 sec (=   0.068 min)   3.1 %
SCF iterations                   ...       18.733 sec (=   0.312 min)  14.0 %
Property integrals               ...        0.642 sec (=   0.011 min)   0.5 %
SCF Response                     ...      109.924 sec (=   1.832 min)  82.0 %
Property calculations            ...        0.619 sec (=   0.010 min)   0.5 %
                             ****ORCA TERMINATED NORMALLY****
TOTAL RUN TIME: 0 days 0 hours 2 minutes 14 seconds 326 msec
