
                                 *****************
                                 * O   R   C   A *
                                 *****************

                                            #,                                       
                                            ###                                      
                                            ####                                     
                                            #####                                    
                                            ######                                   
                                           ########,                                 
                                     ,,################,,,,,                         
                               ,,#################################,,                 
                          ,,##########################################,,             
                       ,#########################################, ''#####,          
                    ,#############################################,,   '####,        
                  ,##################################################,,,,####,       
                ,###########''''           ''''###############################       
              ,#####''   ,,,,##########,,,,          '''####'''          '####       
            ,##' ,,,,###########################,,,                        '##       
           ' ,,###''''                  '''############,,,                           
         ,,##''                                '''############,,,,        ,,,,,,###''
      ,#''                                            '''#######################'''  
     '                                                          ''''####''''         
             ,#######,   #######,   ,#######,      ##                                
            ,#'     '#,  ##    ##  ,#'     '#,    #''#        ######   ,####,        
            ##       ##  ##   ,#'  ##            #'  '#       #        #'  '#        
            ##       ##  #######   ##           ,######,      #####,   #    #        
            '#,     ,#'  ##    ##  '#,     ,#' ,#      #,         ##   #,  ,#        
             '#######'   ##     ##  '#######'  #'      '#     #####' # '####'        



                  #######################################################
                  #                        -***-                        #
                  #          Department of theory and spectroscopy      #
                  #    Directorship and core code : Frank Neese         #
                  #        Max Planck Institute fuer Kohlenforschung    #
                  #                Kaiser Wilhelm Platz 1               #
                  #                 D-45470 Muelheim/Ruhr               #
                  #                      Germany                        #
                  #                                                     #
                  #                  All rights reserved                #
                  #                        -***-                        #
                  #######################################################


                         Program Version 5.0.2 -  RELEASE  -


 With contributions from (in alphabetic order):
   Daniel Aravena         : Magnetic Suceptibility
   Michael Atanasov       : Ab Initio Ligand Field Theory (pilot matlab implementation)
   Alexander A. Auer      : GIAO ZORA, VPT2 properties, NMR spectrum
   Ute Becker             : Parallelization
   Giovanni Bistoni       : ED, misc. LED, open-shell LED, HFLD
   Martin Brehm           : Molecular dynamics
   Dmytro Bykov           : SCF Hessian
   Vijay G. Chilkuri      : MRCI spin determinant printing, contributions to CSF-ICE
   Dipayan Datta          : RHF DLPNO-CCSD density
   Achintya Kumar Dutta   : EOM-CC, STEOM-CC
   Dmitry Ganyushin       : Spin-Orbit,Spin-Spin,Magnetic field MRCI
   Miquel Garcia          : C-PCM and meta-GGA Hessian, CC/C-PCM, Gaussian charge scheme
   Yang Guo               : DLPNO-NEVPT2, F12-NEVPT2, CIM, IAO-localization
   Andreas Hansen         : Spin unrestricted coupled pair/coupled cluster methods
   Benjamin Helmich-Paris : MC-RPA, TRAH-SCF, COSX integrals
   Lee Huntington         : MR-EOM, pCC
   Robert Izsak           : Overlap fitted RIJCOSX, COSX-SCS-MP3, EOM
   Marcus Kettner         : VPT2
   Christian Kollmar      : KDIIS, OOCD, Brueckner-CCSD(T), CCSD density, CASPT2, CASPT2-K
   Simone Kossmann        : Meta GGA functionals, TD-DFT gradient, OOMP2, MP2 Hessian
   Martin Krupicka        : Initial AUTO-CI
   Lucas Lang             : DCDCAS
   Marvin Lechner         : AUTO-CI (C++ implementation), FIC-MRCC
   Dagmar Lenk            : GEPOL surface, SMD
   Dimitrios Liakos       : Extrapolation schemes; Compound Job, initial MDCI parallelization
   Dimitrios Manganas     : Further ROCIS development; embedding schemes
   Dimitrios Pantazis     : SARC Basis sets
   Anastasios Papadopoulos: AUTO-CI, single reference methods and gradients
   Taras Petrenko         : DFT Hessian,TD-DFT gradient, ASA, ECA, R-Raman, ABS, FL, XAS/XES, NRVS
   Peter Pinski           : DLPNO-MP2, DLPNO-MP2 Gradient
   Christoph Reimann      : Effective Core Potentials
   Marius Retegan         : Local ZFS, SOC
   Christoph Riplinger    : Optimizer, TS searches, QM/MM, DLPNO-CCSD(T), (RO)-DLPNO pert. Triples
   Tobias Risthaus        : Range-separated hybrids, TD-DFT gradient, RPA, STAB
   Michael Roemelt        : Original ROCIS implementation
   Masaaki Saitow         : Open-shell DLPNO-CCSD energy and density
   Barbara Sandhoefer     : DKH picture change effects
   Avijit Sen             : IP-ROCIS
   Kantharuban Sivalingam : CASSCF convergence, NEVPT2, FIC-MRCI
   Bernardo de Souza      : ESD, SOC TD-DFT
   Georgi Stoychev        : AutoAux, RI-MP2 NMR, DLPNO-MP2 response
   Willem Van den Heuvel  : Paramagnetic NMR
   Boris Wezisla          : Elementary symmetry handling
   Frank Wennmohs         : Technical directorship


 We gratefully acknowledge several colleagues who have allowed us to
 interface, adapt or use parts of their codes:
   Stefan Grimme, W. Hujo, H. Kruse, P. Pracht,  : VdW corrections, initial TS optimization,
                  C. Bannwarth, S. Ehlert          DFT functionals, gCP, sTDA/sTD-DF
   Ed Valeev, F. Pavosevic, A. Kumar             : LibInt (2-el integral package), F12 methods
   Garnet Chan, S. Sharma, J. Yang, R. Olivares  : DMRG
   Ulf Ekstrom                                   : XCFun DFT Library
   Mihaly Kallay                                 : mrcc  (arbitrary order and MRCC methods)
   Jiri Pittner, Ondrej Demel                    : Mk-CCSD
   Frank Weinhold                                : gennbo (NPA and NBO analysis)
   Christopher J. Cramer and Donald G. Truhlar   : smd solvation model
   Lars Goerigk                                  : TD-DFT with DH, B97 family of functionals
   V. Asgeirsson, H. Jonsson                     : NEB implementation
   FAccTs GmbH                                   : IRC, NEB, NEB-TS, DLPNO-Multilevel, CI-OPT
                                                   MM, QMMM, 2- and 3-layer-ONIOM, Crystal-QMMM,
                                                   LR-CPCM, SF, NACMEs, symmetry and pop. for TD-DFT,
                                                   nearIR, NL-DFT gradient (VV10), updates on ESD,
                                                   ML-optimized integration grids
   S Lehtola, MJT Oliveira, MAL Marques          : LibXC Library
   Liviu Ungur et al                             : ANISO software


 Your calculation uses the libint2 library for the computation of 2-el integrals
 For citations please refer to: http://libint.valeyev.net

 Your ORCA version has been built with support for libXC version: 5.1.0
 For citations please refer to: https://tddft.org/programs/libxc/

 This ORCA versions uses:
   CBLAS   interface :  Fast vector & matrix operations
   LAPACKE interface :  Fast linear algebra routines
   SCALAPACK package :  Parallel linear algebra routines
   Shared memory     :  Shared parallel matrices
   BLAS/LAPACK       :  OpenBLAS 0.3.15  USE64BITINT DYNAMIC_ARCH NO_AFFINITY Zen SINGLE_THREADED
        Core in use  :  Zen
   Copyright (c) 2011-2014, The OpenBLAS Project


Your calculation utilizes the atom-pairwise dispersion correction
based on tight binding partial charges (D4)
Cite in your paper:
E.Caldeweyher, C.Bannwarth, S.Grimme, J.Chem.Phys., (2017), 147, 034112.
E.Caldeweyher, S.Ehlert, A.Hansen, H.Neugebauer, S.Grimme, J.Chem.Phys., (2018), in progress.
   

================================================================================

----- Orbital basis set information -----
Your calculation utilizes the basis: pcSseg-1
   F. Jensen, J. Chem. Theory Comput. 11, 132 (2015).

----- AuxJ basis set information -----
Your calculation utilizes the auxiliary basis: def2/J
   F. Weigend, Phys. Chem. Chem. Phys. 8, 1057 (2006).

================================================================================
                                        WARNINGS
                       Please study these warnings very carefully!
================================================================================



WARNING: Found flag for RIJCOSX approximation but no HF exchange needed!
  ===> : RIJCOSX  will be disabled and Split-RI-J is turned on

INFO   : the flag for use of the SHARK integral package has been found!

================================================================================
                                       INPUT FILE
================================================================================
NAME = inpS
|  1> ! revTPSS
|  2> ! D4
|  3> ! pcSseg-1
|  4> ! def2/J RIJCOSX
|  5> ! DEFGRID2
|  6> ! scfconv7
|  7> ! smallprint printgap noloewdin
|  8> ! NOSOSCF
|  9> %MaxCore 4000
| 10> %output
| 11>        print[P_BondOrder_M] 1
| 12>        print[P_Mayer] 1
| 13>        print[P_basis] 2
| 14> end
| 15> %pal
| 16>     nprocs 4
| 17> end
| 18> ! CPCM(chloroform)
| 19> *xyz 0 1
| 20> C   -5.0516992600   0.3152708800   0.3181971200
| 21> C   -6.4658130800  -0.0792751000  -0.0372494200
| 22> C   -7.0039495400   0.7367043100  -1.2189554700
| 23> H   -7.1275913100   0.1177204600   0.8233337300
| 24> H   -6.5234458800  -1.1493577700  -0.2649682000
| 25> C   -4.8529720000   1.7703467300   0.4884143300
| 26> C   -5.4343420900   2.6150098400  -0.6228408400
| 27> C   -6.8879049100   2.2288551100  -0.9283482500
| 28> H   -4.8343677600   2.4537028700  -1.5313143200
| 29> H   -5.3622999700   3.6775610500  -0.3678662600
| 30> H   -7.2614157900   2.8022345000  -1.7849406700
| 31> H   -7.5236201700   2.4692575700  -0.0627825500
| 32> O   -8.3491457100   0.3591106000  -1.5406446700
| 33> H   -6.4199045900   0.4935495600  -2.1176059700
| 34> C   -4.0739717900  -0.6163990200   0.4167798600
| 35> C   -4.2521630200   2.3116015600   1.5543325900
| 36> H   -3.8632153100   1.6941943600   2.3592625200
| 37> H   -4.1464472400   3.3897481500   1.6487943700
| 38> C   -2.6713627200  -0.3665885900   0.6560466400
| 39> H   -4.3781153800  -1.6503191400   0.2593704800
| 40> C   -1.7101580800  -1.2980158700   0.8350623400
| 41> H   -2.3728077600   0.6788982600   0.6830918800
| 42> C   -1.9272512800  -2.7895756600   0.8787122800
| 43> C   -0.9919160900  -3.5332611300  -0.0930539500
| 44> H   -2.9665720900  -3.0641848800   0.6789231800
| 45> H   -1.7000207200  -3.1309598300   1.9014150100
| 46> C    0.4785183100  -3.1267725400   0.0739095900
| 47> H   -1.3163182500  -3.3369208000  -1.1228296500
| 48> H   -1.0944187700  -4.6138833800   0.0649844500
| 49> C    0.6648497500  -1.6068113400  -0.0296152300
| 50> H    1.0801787000  -3.6539215200  -0.6737349600
| 51> H    0.8347746500  -3.4546108200   1.0622580700
| 52> C   -0.2674391900  -0.9472265500   1.0352219800
| 53> H    0.0340838400  -1.4138698800   1.9914251400
| 54> C    0.1900217500   0.5078242000   1.0832177000
| 55> H   -8.9009747400   0.5652569500  -0.7742805300
| 56> C    1.7210360300   0.4144427500   0.8699204400
| 57> H   -0.0806545300   0.9936221800   2.0266322200
| 58> H   -0.2742764200   1.0870029300   0.2771747200
| 59> C    2.0362493500  -1.0509544100   0.4442712700
| 60> H    2.2779230100   0.6819555500   1.7737149300
| 61> H    2.0506292800   1.1097705400   0.0890017900
| 62> H    2.3099140900  -1.6251751100   1.3449669800
| 63> C    3.2412585700  -1.1142360100  -0.5164552600
| 64> C    0.3307731500  -1.1053510000  -1.4412320800
| 65> H   -0.7331385500  -1.2250356800  -1.6680583900
| 66> H    0.9009891900  -1.6618765200  -2.1934066000
| 67> H    0.5722838400  -0.0443925200  -1.5603758300
| 68> H    3.0003594400  -0.5254436200  -1.4141441700
| 69> C    3.6049311000  -2.5431175800  -0.9466670100
| 70> C    4.4344818000  -0.4789852000   0.1487174000
| 71> C    5.0842652300   0.5846102600  -0.3226049900
| 72> H    4.7486126100  -0.9609450800   1.0736204700
| 73> H    4.7144812100   1.0119148600  -1.2604521100
| 74> C    6.2879031600   1.3156176200   0.2199154800
| 75> C    7.4141509100   1.2617474100  -0.8289456200
| 76> C    6.8063880300   0.9597126400   1.6323793800
| 77> H    5.9816316100   2.3740872300   0.2847763500
| 78> H    7.6066124800   1.6937087900   1.8175238200
| 79> C    7.4579150000  -0.4227354200   1.7572655400
| 80> C    5.7525100600   1.1855842600   2.7226535600
| 81> H    7.0812924100   1.6969238800  -1.7773483300
| 82> H    7.7193952500   0.2291536700  -1.0278324000
| 83> H    8.2919221800   1.8217183900  -0.4858726400
| 84> H    7.8573710400  -0.5534943700   2.7695129400
| 85> H    8.2910980900  -0.5410284100   1.0574204400
| 86> H    6.7512385300  -1.2371944200   1.5742446700
| 87> H    4.9649876300   0.4271060900   2.7000060500
| 88> H    5.2741146000   2.1652145900   2.6076186100
| 89> H    6.2180933900   1.1510679200   3.7140909600
| 90> H    4.5392156500  -2.5394998700  -1.5182945100
| 91> H    2.8287045600  -2.9873284600  -1.5748467300
| 92> H    3.7455328700  -3.1884782500  -0.0707912400
| 93> *
| 94> %eprnmr
| 95>  Nuclei = all H { shift }
| 96>  origin giao
| 97>  giao_2el giao_2el_same_as_scf
| 98>  giao_1el giao_1el_analytic
| 99> end
|100> 
|101>                          ****END OF INPUT****
================================================================================

                       ****************************
                       * Single Point Calculation *
                       ****************************

---------------------------------
CARTESIAN COORDINATES (ANGSTROEM)
---------------------------------
  C     -5.051699    0.315271    0.318197
  C     -6.465813   -0.079275   -0.037249
  C     -7.003950    0.736704   -1.218955
  H     -7.127591    0.117720    0.823334
  H     -6.523446   -1.149358   -0.264968
  C     -4.852972    1.770347    0.488414
  C     -5.434342    2.615010   -0.622841
  C     -6.887905    2.228855   -0.928348
  H     -4.834368    2.453703   -1.531314
  H     -5.362300    3.677561   -0.367866
  H     -7.261416    2.802234   -1.784941
  H     -7.523620    2.469258   -0.062783
  O     -8.349146    0.359111   -1.540645
  H     -6.419905    0.493550   -2.117606
  C     -4.073972   -0.616399    0.416780
  C     -4.252163    2.311602    1.554333
  H     -3.863215    1.694194    2.359263
  H     -4.146447    3.389748    1.648794
  C     -2.671363   -0.366589    0.656047
  H     -4.378115   -1.650319    0.259370
  C     -1.710158   -1.298016    0.835062
  H     -2.372808    0.678898    0.683092
  C     -1.927251   -2.789576    0.878712
  C     -0.991916   -3.533261   -0.093054
  H     -2.966572   -3.064185    0.678923
  H     -1.700021   -3.130960    1.901415
  C      0.478518   -3.126773    0.073910
  H     -1.316318   -3.336921   -1.122830
  H     -1.094419   -4.613883    0.064984
  C      0.664850   -1.606811   -0.029615
  H      1.080179   -3.653922   -0.673735
  H      0.834775   -3.454611    1.062258
  C     -0.267439   -0.947227    1.035222
  H      0.034084   -1.413870    1.991425
  C      0.190022    0.507824    1.083218
  H     -8.900975    0.565257   -0.774281
  C      1.721036    0.414443    0.869920
  H     -0.080655    0.993622    2.026632
  H     -0.274276    1.087003    0.277175
  C      2.036249   -1.050954    0.444271
  H      2.277923    0.681956    1.773715
  H      2.050629    1.109771    0.089002
  H      2.309914   -1.625175    1.344967
  C      3.241259   -1.114236   -0.516455
  C      0.330773   -1.105351   -1.441232
  H     -0.733139   -1.225036   -1.668058
  H      0.900989   -1.661877   -2.193407
  H      0.572284   -0.044393   -1.560376
  H      3.000359   -0.525444   -1.414144
  C      3.604931   -2.543118   -0.946667
  C      4.434482   -0.478985    0.148717
  C      5.084265    0.584610   -0.322605
  H      4.748613   -0.960945    1.073620
  H      4.714481    1.011915   -1.260452
  C      6.287903    1.315618    0.219915
  C      7.414151    1.261747   -0.828946
  C      6.806388    0.959713    1.632379
  H      5.981632    2.374087    0.284776
  H      7.606612    1.693709    1.817524
  C      7.457915   -0.422735    1.757266
  C      5.752510    1.185584    2.722654
  H      7.081292    1.696924   -1.777348
  H      7.719395    0.229154   -1.027832
  H      8.291922    1.821718   -0.485873
  H      7.857371   -0.553494    2.769513
  H      8.291098   -0.541028    1.057420
  H      6.751239   -1.237194    1.574245
  H      4.964988    0.427106    2.700006
  H      5.274115    2.165215    2.607619
  H      6.218093    1.151068    3.714091
  H      4.539216   -2.539500   -1.518295
  H      2.828705   -2.987328   -1.574847
  H      3.745533   -3.188478   -0.070791

----------------------------
CARTESIAN COORDINATES (A.U.)
----------------------------
  NO LB      ZA    FRAG     MASS         X           Y           Z
   0 C     6.0000    0    12.011   -9.546328    0.595776    0.601305
   1 C     6.0000    0    12.011  -12.218616   -0.149808   -0.070391
   2 C     6.0000    0    12.011  -13.235546    1.392169   -2.303492
   3 H     1.0000    0     1.008  -13.469196    0.222459    1.555875
   4 H     1.0000    0     1.008  -12.327526   -2.171971   -0.500717
   5 C     6.0000    0    12.011   -9.170788    3.345470    0.922969
   6 C     6.0000    0    12.011  -10.269418    4.941652   -1.176999
   7 C     6.0000    0    12.011  -13.016254    4.211926   -1.754324
   8 H     1.0000    0     1.008   -9.135631    4.636826   -2.893765
   9 H     1.0000    0     1.008  -10.133278    6.949583   -0.695166
  10 H     1.0000    0     1.008  -13.722087    5.295456   -3.373049
  11 H     1.0000    0     1.008  -14.217582    4.666221   -0.118642
  12 O     8.0000    0    15.999  -15.777599    0.678621   -2.911396
  13 H     1.0000    0     1.008  -12.131861    0.932674   -4.001695
  14 C     6.0000    0    12.011   -7.698691   -1.164825    0.787600
  15 C     6.0000    0    12.011   -8.035424    4.368294    2.937263
  16 H     1.0000    0     1.008   -7.300419    3.201563    4.458360
  17 H     1.0000    0     1.008   -7.835650    6.405696    3.115770
  18 C     6.0000    0    12.011   -5.048144   -0.692752    1.239748
  19 H     1.0000    0     1.008   -8.273439   -3.118651    0.490139
  20 C     6.0000    0    12.011   -3.231730   -2.452895    1.578039
  21 H     1.0000    0     1.008   -4.483957    1.282932    1.290857
  22 C     6.0000    0    12.011   -3.641977   -5.271534    1.660526
  23 C     6.0000    0    12.011   -1.874450   -6.676896   -0.175846
  24 H     1.0000    0     1.008   -5.606009   -5.790470    1.282979
  25 H     1.0000    0     1.008   -3.212574   -5.916657    3.593154
  26 C     6.0000    0    12.011    0.904269   -5.908744    0.139669
  27 H     1.0000    0     1.008   -2.487481   -6.305866   -2.121841
  28 H     1.0000    0     1.008   -2.068152   -8.718976    0.122803
  29 C     6.0000    0    12.011    1.256384   -3.036433   -0.055965
  30 H     1.0000    0     1.008    2.041242   -6.904911   -1.273175
  31 H     1.0000    0     1.008    1.577495   -6.528268    2.007377
  32 C     6.0000    0    12.011   -0.505387   -1.789999    1.956286
  33 H     1.0000    0     1.008    0.064409   -2.671827    3.763248
  34 C     6.0000    0    12.011    0.359089    0.959649    2.046985
  35 H     1.0000    0     1.008  -16.820405    1.068181   -1.463178
  36 C     6.0000    0    12.011    3.252287    0.783183    1.643911
  37 H     1.0000    0     1.008   -0.152415    1.877674    3.829780
  38 H     1.0000    0     1.008   -0.518307    2.054138    0.523784
  39 C     6.0000    0    12.011    3.847954   -1.986016    0.839551
  40 H     1.0000    0     1.008    4.304651    1.288709    3.351835
  41 H     1.0000    0     1.008    3.875128    2.097162    0.168189
  42 H     1.0000    0     1.008    4.365105   -3.071136    2.541619
  43 C     6.0000    0    12.011    6.125091   -2.105601   -0.975959
  44 C     6.0000    0    12.011    0.625071   -2.088811   -2.723534
  45 H     1.0000    0     1.008   -1.385431   -2.314982   -3.152174
  46 H     1.0000    0     1.008    1.702623   -3.140491   -4.144938
  47 H     1.0000    0     1.008    1.081460   -0.083890   -2.948683
  48 H     1.0000    0     1.008    5.669858   -0.992945   -2.672345
  49 C     6.0000    0    12.011    6.812333   -4.805796   -1.788941
  50 C     6.0000    0    12.011    8.379956   -0.905151    0.281035
  51 C     6.0000    0    12.011    9.607869    1.104753   -0.609635
  52 H     1.0000    0     1.008    8.973577   -1.815923    2.028849
  53 H     1.0000    0     1.008    8.909078    1.912242   -2.381909
  54 C     6.0000    0    12.011   11.882415    2.486157    0.415580
  55 C     6.0000    0    12.011   14.010715    2.384357   -1.566480
  56 C     6.0000    0    12.011   12.862209    1.813594    3.084750
  57 H     1.0000    0     1.008   11.303646    4.486375    0.538149
  58 H     1.0000    0     1.008   14.374414    3.200646    3.434622
  59 C     6.0000    0    12.011   14.093417   -0.798854    3.320751
  60 C     6.0000    0    12.011   10.870669    2.240430    5.145070
  61 H     1.0000    0     1.008   13.381703    3.206721   -3.358702
  62 H     1.0000    0     1.008   14.587543    0.433038   -1.942322
  63 H     1.0000    0     1.008   15.669462    3.442549   -0.918166
  64 H     1.0000    0     1.008   14.848279   -1.045953    5.233621
  65 H     1.0000    0     1.008   15.667905   -1.022396    1.998235
  66 H     1.0000    0     1.008   12.757992   -2.337959    2.974891
  67 H     1.0000    0     1.008    9.382467    0.807114    5.102272
  68 H     1.0000    0     1.008    9.966632    4.091663    4.927685
  69 H     1.0000    0     1.008   11.750494    2.175203    7.018615
  70 H     1.0000    0     1.008    8.577874   -4.798959   -2.869161
  71 H     1.0000    0     1.008    5.345477   -5.645233   -2.976029
  72 H     1.0000    0     1.008    7.078031   -6.025351   -0.133776

--------------------------------
INTERNAL COORDINATES (ANGSTROEM)
--------------------------------
 C      0   0   0     0.000000000000     0.00000000     0.00000000
 C      1   0   0     1.510538536101     0.00000000     0.00000000
 C      2   1   0     1.533571790211   111.76796753     0.00000000
 H      2   1   3     1.103340851426   109.34978233   241.47609576
 H      2   1   3     1.095561181785   110.68804383   122.91394416
 C      1   2   3     1.478415419191   114.20503144    50.40763764
 C      6   1   2     1.512063161311   114.42484420   312.07660306
 C      3   2   1     1.524609104790   110.31397366   305.07571849
 H      7   6   1     1.100596746812   108.37077389   290.05571996
 H      7   6   1     1.095087748709   110.21893938   172.82759086
 H      8   3   2     1.096368950836   109.69368064   179.16959026
 H      8   3   2     1.100514068782   108.64749235   296.61863740
 O      3   2   1     1.433741150630   111.22270484   180.38030388
 H      3   2   1     1.099002027850   109.01882310    65.20867238
 C      1   2   3     1.354133806086   120.88819378   232.50077433
 C      6   1   2     1.337949908796   123.38353778   129.84050065
 H     16   6   1     1.086454860515   121.40678854     0.67171629
 H     16   6   1     1.087427663594   120.92718336   181.35063944
 C     15   1   2     1.444633533528   126.44928658   175.40245846
 H     15   1   2     1.089161076605   116.16628568   358.00870422
 C     19  15   1     1.350376895068   126.42573664   175.67899560
 H     19  15   1     1.087616321443   115.90382724   355.08218317
 C     21  19  15     1.507907617161   125.70659923   357.19314634
 C     23  21  19     1.540210895206   111.83397863   128.05188349
 H     23  21  19     1.093395470215   112.33307451     3.90109726
 H     23  21  19     1.101861040637   107.67659087   246.67611537
 C     24  23  21     1.534694471937   112.66356799    50.91162783
 H     24  23  21     1.097371531847   109.03553683   288.80665758
 H     24  23  21     1.096917217695   109.14892261   172.85282050
 C     27  24  23     1.534835119286   111.79455446   306.10912788
 H     27  24  23     1.094921752983   108.94655166   182.62119485
 H     27  24  23     1.100558601594   109.20518985    66.10776304
 C     21  19  15     1.498183841881   122.79690808   177.99728441
 H     33  21  19     1.105891775106   106.21700345   123.75390422
 C     33  21  19     1.526023193087   121.07306067     1.61168058
 H     13   3   2     0.966605188817   107.55250522    62.79734918
 C     35  33  21     1.548618914353   103.56439775   196.46915092
 H     35  33  21     1.095123866270   112.08433453    74.42459507
 H     35  33  21     1.095776472442   110.72109524   314.86843883
 C     30  27  24     1.553796062677   116.15835671   166.35827630
 H     37  35  33     1.094774262947   111.99054996   248.95964683
 H     37  35  33     1.096333153704   110.92089845   130.41638260
 H     40  30  27     1.102667023285   106.37230674   320.54525119
 C     40  30  27     1.542416042003   119.00556516    81.38855256
 C     30  27  24     1.534839333111   111.04878356   294.21412005
 H     45  30  27     1.094386907328   111.49954744    66.66355697
 H     45  30  27     1.095734226545   110.61791061   306.53249690
 H     45  30  27     1.094602915596   111.63914336   186.71393322
 H     44  40  30     1.100251902290   108.37214795    60.91440315
 C     44  40  30     1.535917445698   113.42935334   300.06797386
 C     44  40  30     1.506578884702   109.05347460   178.17564412
 C     51  44  40     1.332515892495   124.51359175   240.49650376
 H     51  44  40     1.089224118635   114.62939420    60.62355555
 H     52  51  44     1.094936830653   116.72911727   359.79539025
 C     52  51  44     1.509120434981   130.42156378   180.61131658
 C     55  52  51     1.539949869638   108.75444592   120.06574455
 C     55  52  51     1.546140091975   118.97129826   350.77109841
 H     55  52  51     1.103796679688   105.32666248   233.38329434
 H     57  55  52     1.101538915452   104.10944669   185.52918373
 C     57  55  52     1.533377508703   115.11401831    69.75413708
 C     57  55  52     1.533093132183   112.65865005   300.34278755
 H     56  55  52     1.095281261320   110.70799650    57.57678008
 H     56  55  52     1.094979401746   111.13569536   298.07675546
 H     56  55  52     1.096243116505   110.76765801   177.53448342
 H     60  57  55     1.096041892313   109.73265610   175.86886921
 H     60  57  55     1.094518367566   111.64212612    56.82785251
 H     60  57  55     1.093723792732   112.53241901   295.55400970
 H     61  57  55     1.093614933068   112.21656863    73.23549373
 H     61  57  55     1.096253090908   110.91703877   312.77835678
 H     61  57  55     1.095859175725   110.28558792   193.21669867
 H     50  44  40     1.095289325681   110.18690098   187.33846197
 H     50  44  40     1.092913861167   111.77409505    67.38351585
 H     50  44  40     1.097003927333   110.73244826   306.78035771

---------------------------
INTERNAL COORDINATES (A.U.)
---------------------------
 C      0   0   0     0.000000000000     0.00000000     0.00000000
 C      1   0   0     2.854504147966     0.00000000     0.00000000
 C      2   1   0     2.898030690207   111.76796753     0.00000000
 H      2   1   3     2.085012041563   109.34978233   241.47609576
 H      2   1   3     2.070310596529   110.68804383   122.91394416
 C      1   2   3     2.793800254437   114.20503144    50.40763764
 C      6   1   2     2.857385272069   114.42484420   312.07660306
 C      3   2   1     2.881093669336   110.31397366   305.07571849
 H      7   6   1     2.079826435359   108.37077389   290.05571996
 H      7   6   1     2.069415937673   110.21893938   172.82759086
 H      8   3   2     2.071837058814   109.69368064   179.16959026
 H      8   3   2     2.079670196526   108.64749235   296.61863740
 O      3   2   1     2.709378121625   111.22270484   180.38030388
 H      3   2   1     2.076812853261   109.01882310    65.20867238
 C      1   2   3     2.558942042187   120.88819378   232.50077433
 C      6   1   2     2.528358908530   123.38353778   129.84050065
 H     16   6   1     2.053102143240   121.40678854     0.67171629
 H     16   6   1     2.054940474643   120.92718336   181.35063944
 C     15   1   2     2.729961742248   126.44928658   175.40245846
 H     15   1   2     2.058216150510   116.16628568   358.00870422
 C     19  15   1     2.551842509253   126.42573664   175.67899560
 H     19  15   1     2.055296986311   115.90382724   355.08218317
 C     21  19  15     2.849532431689   125.70659923   357.19314634
 C     23  21  19     2.910576780420   111.83397863   128.05188349
 H     23  21  19     2.066217994777   112.33307451     3.90109726
 H     23  21  19     2.082215604442   107.67659087   246.67611537
 C     24  23  21     2.900152251203   112.66356799    50.91162783
 H     24  23  21     2.073731662352   109.03553683   288.80665758
 H     24  23  21     2.072873133027   109.14892261   172.85282050
 C     27  24  23     2.900418036175   111.79455446   306.10912788
 H     27  24  23     2.069102251210   108.94655166   182.62119485
 H     27  24  23     2.079754351343   109.20518985    66.10776304
 C     21  19  15     2.831157159421   122.79690808   177.99728441
 H     33  21  19     2.089832588707   106.21700345   123.75390422
 C     33  21  19     2.883765908947   121.07306067     1.61168058
 H     13   3   2     1.826619086490   107.55250522    62.79734918
 C     35  33  21     2.926465633937   103.56439775   196.46915092
 H     35  33  21     2.069484189971   112.08433453    74.42459507
 H     35  33  21     2.070717436909   110.72109524   314.86843883
 C     30  27  24     2.936249026425   116.15835671   166.35827630
 H     37  35  33     2.068823535436   111.99054996   248.95964683
 H     37  35  33     2.071769412038   110.92089845   130.41638260
 H     40  30  27     2.083738690915   106.37230674   320.54525119
 C     40  30  27     2.914743903953   119.00556516    81.38855256
 C     30  27  24     2.900425999150   111.04878356   294.21412005
 H     45  30  27     2.068091539400   111.49954744    66.66355697
 H     45  30  27     2.070637603734   110.61791061   306.53249690
 H     45  30  27     2.068499735869   111.63914336   186.71393322
 H     44  40  30     2.079174773655   108.37214795    60.91440315
 C     44  40  30     2.902463336682   113.42935334   300.06797386
 C     44  40  30     2.847021491235   109.05347460   178.17564412
 C     51  44  40     2.518090105912   124.51359175   240.49650376
 H     51  44  40     2.058335282682   114.62939420    60.62355555
 H     52  51  44     2.069130743878   116.72911727   359.79539025
 C     52  51  44     2.851824325219   130.42156378   180.61131658
 C     55  52  51     2.910083513584   108.75444592   120.06574455
 C     55  52  51     2.921781338508   118.97129826   350.77109841
 H     55  52  51     2.085873432142   105.32666248   233.38329434
 H     57  55  52     2.081606876061   104.10944669   185.52918373
 C     57  55  52     2.897663551362   115.11401831    69.75413708
 C     57  55  52     2.897126157622   112.65865005   300.34278755
 H     56  55  52     2.069781623511   110.70799650    57.57678008
 H     56  55  52     2.069211191585   111.13569536   298.07675546
 H     56  55  52     2.071599266392   110.76765801   177.53448342
 H     60  57  55     2.071219007776   109.73265610   175.86886921
 H     60  57  55     2.068339963246   111.64212612    56.82785251
 H     60  57  55     2.066838434417   112.53241901   295.55400970
 H     61  57  55     2.066632719465   112.21656863    73.23549373
 H     61  57  55     2.071618115281   110.91703877   312.77835678
 H     61  57  55     2.070873723464   110.28558792   193.21669867
 H     50  44  40     2.069796862944   110.18690098   187.33846197
 H     50  44  40     2.065307885571   111.77409505    67.38351585
 H     50  44  40     2.073036990495   110.73244826   306.78035771

---------------------
BASIS SET INFORMATION
---------------------
There are 3 groups of distinct atoms

 Group   1 Type C   : 8s5p1d contracted to 3s3p1d pattern {521/311/1}
 Group   2 Type H   : 4s2p contracted to 2s1p pattern {31/2}
 Group   3 Type O   : 8s5p1d contracted to 3s3p1d pattern {521/311/1}

Atom   0C    basis set group =>   1
Atom   1C    basis set group =>   1
Atom   2C    basis set group =>   1
Atom   3H    basis set group =>   2
Atom   4H    basis set group =>   2
Atom   5C    basis set group =>   1
Atom   6C    basis set group =>   1
Atom   7C    basis set group =>   1
Atom   8H    basis set group =>   2
Atom   9H    basis set group =>   2
Atom  10H    basis set group =>   2
Atom  11H    basis set group =>   2
Atom  12O    basis set group =>   3
Atom  13H    basis set group =>   2
Atom  14C    basis set group =>   1
Atom  15C    basis set group =>   1
Atom  16H    basis set group =>   2
Atom  17H    basis set group =>   2
Atom  18C    basis set group =>   1
Atom  19H    basis set group =>   2
Atom  20C    basis set group =>   1
Atom  21H    basis set group =>   2
Atom  22C    basis set group =>   1
Atom  23C    basis set group =>   1
Atom  24H    basis set group =>   2
Atom  25H    basis set group =>   2
Atom  26C    basis set group =>   1
Atom  27H    basis set group =>   2
Atom  28H    basis set group =>   2
Atom  29C    basis set group =>   1
Atom  30H    basis set group =>   2
Atom  31H    basis set group =>   2
Atom  32C    basis set group =>   1
Atom  33H    basis set group =>   2
Atom  34C    basis set group =>   1
Atom  35H    basis set group =>   2
Atom  36C    basis set group =>   1
Atom  37H    basis set group =>   2
Atom  38H    basis set group =>   2
Atom  39C    basis set group =>   1
Atom  40H    basis set group =>   2
Atom  41H    basis set group =>   2
Atom  42H    basis set group =>   2
Atom  43C    basis set group =>   1
Atom  44C    basis set group =>   1
Atom  45H    basis set group =>   2
Atom  46H    basis set group =>   2
Atom  47H    basis set group =>   2
Atom  48H    basis set group =>   2
Atom  49C    basis set group =>   1
Atom  50C    basis set group =>   1
Atom  51C    basis set group =>   1
Atom  52H    basis set group =>   2
Atom  53H    basis set group =>   2
Atom  54C    basis set group =>   1
Atom  55C    basis set group =>   1
Atom  56C    basis set group =>   1
Atom  57H    basis set group =>   2
Atom  58H    basis set group =>   2
Atom  59C    basis set group =>   1
Atom  60C    basis set group =>   1
Atom  61H    basis set group =>   2
Atom  62H    basis set group =>   2
Atom  63H    basis set group =>   2
Atom  64H    basis set group =>   2
Atom  65H    basis set group =>   2
Atom  66H    basis set group =>   2
Atom  67H    basis set group =>   2
Atom  68H    basis set group =>   2
Atom  69H    basis set group =>   2
Atom  70H    basis set group =>   2
Atom  71H    basis set group =>   2
Atom  72H    basis set group =>   2

-------------------------
BASIS SET IN INPUT FORMAT
-------------------------

 # Basis set for element : H 
 NewGTO H 
 S 3 
   1      12.2518000000      0.0372173893
   2       1.8687100000      0.2538082070
   3       0.4182080000      0.7973867639
 S 1 
   1       0.1061000000      1.0000000000
 P 2 
   1       9.0000000000      0.0402678705
   2       1.0000000000      0.9880231245
  end;

 # Basis set for element : C 
 NewGTO C 
 S 5 
   1    1243.2000000000      0.0056300977
   2     187.1450000000      0.0419506039
   3      42.5126000000      0.1846643605
   4      11.7393000000      0.4665574214
   5       3.5054800000      0.4482347783
 S 2 
   1       5.3908900000     -0.1481148174
   2       0.4933410000      1.0519817143
 S 1 
   1       0.1497410000      1.0000000000
 P 3 
   1      59.6736000000      0.0113906672
   2       9.1805600000      0.1672414929
   3       1.9365800000      0.9041087436
 P 1 
   1       0.5262960000      1.0000000000
 P 1 
   1       0.1363190000      1.0000000000
 D 1 
   1       0.8000000000      1.0000000000
  end;

 # Basis set for element : O 
 NewGTO O 
 S 5 
   1    2288.6400000000      0.0054511382
   2     344.4160000000      0.0407189228
   3      78.2538000000      0.1813694209
   4      21.7195000000      0.4655368202
   5       6.5590700000      0.4512113212
 S 2 
   1      10.4656000000     -0.1502112012
   2       0.9643510000      1.0528679834
 S 1 
   1       0.2851270000      1.0000000000
 P 3 
   1     110.8840000000      0.0113058003
   2      17.0590000000      0.1699226452
   3       3.6899900000      0.9008060328
 P 1 
   1       0.9929960000      1.0000000000
 P 1 
   1       0.2449240000      1.0000000000
 D 1 
   1       1.0000000000      1.0000000000
  end;

---------------------------------
AUXILIARY/J BASIS SET INFORMATION
---------------------------------
There are 3 groups of distinct atoms

 Group   1 Type C   : 12s5p4d2f1g contracted to 6s4p3d1f1g pattern {711111/2111/211/2/1}
 Group   2 Type H   : 5s2p1d contracted to 3s1p1d pattern {311/2/1}
 Group   3 Type O   : 12s5p4d2f1g contracted to 6s4p3d1f1g pattern {711111/2111/211/2/1}

Atom   0C    basis set group =>   1
Atom   1C    basis set group =>   1
Atom   2C    basis set group =>   1
Atom   3H    basis set group =>   2
Atom   4H    basis set group =>   2
Atom   5C    basis set group =>   1
Atom   6C    basis set group =>   1
Atom   7C    basis set group =>   1
Atom   8H    basis set group =>   2
Atom   9H    basis set group =>   2
Atom  10H    basis set group =>   2
Atom  11H    basis set group =>   2
Atom  12O    basis set group =>   3
Atom  13H    basis set group =>   2
Atom  14C    basis set group =>   1
Atom  15C    basis set group =>   1
Atom  16H    basis set group =>   2
Atom  17H    basis set group =>   2
Atom  18C    basis set group =>   1
Atom  19H    basis set group =>   2
Atom  20C    basis set group =>   1
Atom  21H    basis set group =>   2
Atom  22C    basis set group =>   1
Atom  23C    basis set group =>   1
Atom  24H    basis set group =>   2
Atom  25H    basis set group =>   2
Atom  26C    basis set group =>   1
Atom  27H    basis set group =>   2
Atom  28H    basis set group =>   2
Atom  29C    basis set group =>   1
Atom  30H    basis set group =>   2
Atom  31H    basis set group =>   2
Atom  32C    basis set group =>   1
Atom  33H    basis set group =>   2
Atom  34C    basis set group =>   1
Atom  35H    basis set group =>   2
Atom  36C    basis set group =>   1
Atom  37H    basis set group =>   2
Atom  38H    basis set group =>   2
Atom  39C    basis set group =>   1
Atom  40H    basis set group =>   2
Atom  41H    basis set group =>   2
Atom  42H    basis set group =>   2
Atom  43C    basis set group =>   1
Atom  44C    basis set group =>   1
Atom  45H    basis set group =>   2
Atom  46H    basis set group =>   2
Atom  47H    basis set group =>   2
Atom  48H    basis set group =>   2
Atom  49C    basis set group =>   1
Atom  50C    basis set group =>   1
Atom  51C    basis set group =>   1
Atom  52H    basis set group =>   2
Atom  53H    basis set group =>   2
Atom  54C    basis set group =>   1
Atom  55C    basis set group =>   1
Atom  56C    basis set group =>   1
Atom  57H    basis set group =>   2
Atom  58H    basis set group =>   2
Atom  59C    basis set group =>   1
Atom  60C    basis set group =>   1
Atom  61H    basis set group =>   2
Atom  62H    basis set group =>   2
Atom  63H    basis set group =>   2
Atom  64H    basis set group =>   2
Atom  65H    basis set group =>   2
Atom  66H    basis set group =>   2
Atom  67H    basis set group =>   2
Atom  68H    basis set group =>   2
Atom  69H    basis set group =>   2
Atom  70H    basis set group =>   2
Atom  71H    basis set group =>   2
Atom  72H    basis set group =>   2

-------------------------------------
AUXILIARY/J BASIS SET IN INPUT FORMAT
-------------------------------------

 # Auxiliary/J basis set for element : H 
 NewAuxJGTO H 
 S 3 
   1      15.6752927000      0.1007184237
   2       3.6063578000      0.3404257499
   3       1.2080016000      0.6491996172
 S 1 
   1       0.4726794000      1.0000000000
 S 1 
   1       0.2018100000      1.0000000000
 P 2 
   1       2.0281365000      0.5596620919
   2       0.5358730000      0.5596620919
 D 1 
   1       2.2165124000      1.0000000000
  end;

 # Auxiliary/J basis set for element : C 
 NewAuxJGTO C 
 S 7 
   1    1861.0916331000      0.0134602335
   2     642.9939764000      0.0299160374
   3     235.1105725000      0.1008649584
   4      90.7028894000      0.2370970548
   5      36.7794552000      0.3924037254
   6      15.6046273000      0.3195862154
   7       6.8907294000      0.0530104441
 S 1 
   1       3.1478850000     -1.0000000000
 S 1 
   1       1.4777287000      1.0000000000
 S 1 
   1       0.7076466000      1.0000000000
 S 1 
   1       0.3430122000      1.0000000000
 S 1 
   1       0.1669453000      1.0000000000
 P 2 
   1      13.5472892000     -0.6769313712
   2       5.4669419000     -0.3779500978
 P 1 
   1       2.1751721000      1.0000000000
 P 1 
   1       0.8582194000      1.0000000000
 P 1 
   1       0.3376720000      1.0000000000
 D 2 
   1       5.9287253000     -0.3533329857
   2       1.9809209000     -0.7456525731
 D 1 
   1       0.8055417000     -1.0000000000
 D 1 
   1       0.3531244000     -1.0000000000
 F 2 
   1       1.6755626000      0.6311076882
   2       0.5997536000      0.4968166032
 G 1 
   1       1.0024600000     -1.0000000000
  end;

 # Auxiliary/J basis set for element : O 
 NewAuxJGTO O 
 S 7 
   1    2876.8216605000      0.0168151159
   2    1004.7443032000      0.0340137548
   3     369.7579954000      0.1194951309
   4     142.9442404000      0.2664627624
   5      57.8366425000      0.4202764046
   6      24.3864983000      0.2765077335
   7      10.6622662000      0.0057008815
 S 1 
   1       4.8070437000     -1.0000000000
 S 1 
   1       2.2210770000      1.0000000000
 S 1 
   1       1.0447795000      1.0000000000
 S 1 
   1       0.4968425000      1.0000000000
 S 1 
   1       0.2371384000      1.0000000000
 P 2 
   1      64.2613382000     -0.2731534179
   2      16.3006076000     -0.8168011598
 P 1 
   1       4.3550542000      1.0000000000
 P 1 
   1       1.2019554000      1.0000000000
 P 1 
   1       0.3354196000      1.0000000000
 D 2 
   1       9.2146611000     -0.4661230638
   2       2.8435251000     -0.6600908911
 D 1 
   1       0.9955759000     -1.0000000000
 D 1 
   1       0.3649441000     -1.0000000000
 F 2 
   1       2.6420115000      0.5931563945
   2       0.7345613000      0.5931563945
 G 1 
   1       1.3931000000     -1.0000000000
  end;



           ************************************************************
           *        Program running with 4 parallel MPI-processes     *
           *              working on a common directory               *
           ************************************************************
------------------------------------------------------------------------------
                           ORCA GTO INTEGRAL CALCULATION
                           -- RI-GTO INTEGRALS CHOSEN --
------------------------------------------------------------------------------
------------------------------------------------------------------------------
                   ___                                                        
                  /   \      - P O W E R E D   B Y -                         
                 /     \                                                     
                 |  |  |   _    _      __       _____    __    __             
                 |  |  |  | |  | |    /  \     |  _  \  |  |  /  |          
                  \  \/   | |  | |   /    \    | | | |  |  | /  /          
                 / \  \   | |__| |  /  /\  \   | |_| |  |  |/  /          
                |  |  |   |  __  | /  /__\  \  |    /   |      \           
                |  |  |   | |  | | |   __   |  |    \   |  |\   \          
                \     /   | |  | | |  |  |  |  | |\  \  |  | \   \       
                 \___/    |_|  |_| |__|  |__|  |_| \__\ |__|  \__/        
                                                                              
                      - O R C A' S   B I G   F R I E N D -                    
                                      &                                       
                       - I N T E G R A L  F E E D E R -                       
                                                                              
 v1 FN, 2020, v2 2021                                                         
------------------------------------------------------------------------------


Reading SHARK input file inpS.SHARKINP.tmp ... ok
----------------------
SHARK INTEGRAL PACKAGE
----------------------

Number of atoms                             ...     73
Number of basis functions                   ...    713
Number of shells                            ...    335
Maximum angular momentum                    ...      2
Integral batch strategy                     ... SHARK/LIBINT Hybrid
RI-J (if used) integral strategy            ... SPLIT-RIJ (Revised 2003 algorithm where possible)
Printlevel                                  ...      1
Contraction scheme used                     ... SEGMENTED contraction
Coulomb Range Separation                    ... NOT USED
Exchange Range Separation                   ... NOT USED
Finite Nucleus Model                        ... NOT USED
Auxiliary Coulomb fitting basis             ... AVAILABLE
   # of basis functions in Aux-J            ...   1905
   # of shells in Aux-J                     ...    655
   Maximum angular momentum in Aux-J        ...      4
Auxiliary J/K fitting basis                 ... NOT available
Auxiliary Correlation fitting basis         ... NOT available
Auxiliary 'external' fitting basis          ... NOT available
Integral threshold                          ...     3.000000e-11
Primitive cut-off                           ...     1.000000e-12
Primitive pair pre-selection threshold      ...     1.000000e-12

Calculating pre-screening integrals         ... done (  0.0 sec) Dimension = 335
Organizing shell pair data                  ... done (  0.2 sec)
Shell pair information
Total number of shell pairs                 ...     56280
Shell pairs after pre-screening             ...     31668
Total number of primitive shell pairs       ...    225367
Primitive shell pairs kept                  ...     74581
          la=0 lb=0:   9684 shell pairs
          la=1 lb=0:  13014 shell pairs
          la=1 lb=1:   4253 shell pairs
          la=2 lb=0:   2768 shell pairs
          la=2 lb=1:   1753 shell pairs
          la=2 lb=2:    196 shell pairs

Calculating one electron integrals          ... done (  0.1 sec)
Calculating RI/J V-Matrix + Cholesky decomp.... done (  0.1 sec)
Calculating Nuclear repulsion               ... done (  0.0 sec) ENN=   2776.082974179149 Eh

SHARK setup successfully completed in   0.6 seconds

Maximum memory used throughout the entire GTOINT-calculation: 61.2 MB


           ************************************************************
           *        Program running with 4 parallel MPI-processes     *
           *              working on a common directory               *
           ************************************************************
-------------------------------------------------------------------------------
                                 ORCA SCF
-------------------------------------------------------------------------------

------------
SCF SETTINGS
------------
Hamiltonian:
 Density Functional     Method          .... DFT(GTOs)
 Exchange Functional    Exchange        .... revTPSS
 Correlation Functional Correlation     .... revTPSS
 LDA part of GGA corr.  LDAOpt          .... PW91-LDA
 Gradients option       PostSCFGGA      .... off
   Density functional embedding theory  .... OFF
 RI-approximation to the Coulomb term is turned on
   Number of AuxJ basis functions       .... 1905


General Settings:
 Integral files         IntName         .... inpS
 Hartree-Fock type      HFTyp           .... RHF
 Total Charge           Charge          ....    0
 Multiplicity           Mult            ....    1
 Number of Electrons    NEL             ....  220
 Basis Dimension        Dim             ....  713
 Nuclear Repulsion      ENuc            ....   2776.0829741791 Eh

Convergence Acceleration:
 DIIS                   CNVDIIS         .... on
   Start iteration      DIISMaxIt       ....    12
   Startup error        DIISStart       ....  0.200000
   # of expansion vecs  DIISMaxEq       ....     5
   Bias factor          DIISBfac        ....   1.050
   Max. coefficient     DIISMaxC        ....  10.000
 Trust-Rad. Augm. Hess. CNVTRAH         .... auto
   Auto Start mean grad. ratio tolernc. ....  1.125000
   Auto Start start iteration           ....    20
   Auto Start num. interpolation iter.  ....    10
   Max. Number of Micro iterations      ....    16
   Max. Number of Macro iterations      .... Maxiter - #DIIS iter
   Number of Davidson start vectors     ....     2
   Converg. threshold I  (grad. norm)   ....   1.000e-04
   Converg. threshold II (energy diff.) ....   1.000e-07
   Grad. Scal. Fac. for Micro threshold ....   0.100
   Minimum threshold for Micro iter.    ....   0.010
   NR start threshold (gradient norm)   ....   0.001
   Initial trust radius                 ....   0.400
   Minimum AH scaling param. (alpha)    ....   1.000
   Maximum AH scaling param. (alpha)    .... 1000.000
   Orbital update algorithm             .... Taylor
   White noise on init. David. guess    .... on
   Maximum white noise                  ....   0.010
   Quad. conv. algorithm                .... NR
 SOSCF                  CNVSOSCF        .... off
 Level Shifting         CNVShift        .... on
   Level shift para.    LevelShift      ....    0.2500
   Turn off err/grad.   ShiftErr        ....    0.0010
 Zerner damping         CNVZerner       .... off
 Static damping         CNVDamp         .... on
   Fraction old density DampFac         ....    0.7000
   Max. Damping (<1)    DampMax         ....    0.9800
   Min. Damping (>=0)   DampMin         ....    0.0000
   Turn off err/grad.   DampErr         ....    0.1000
 Fernandez-Rico         CNVRico         .... off

SCF Procedure:
 Maximum # iterations   MaxIter         ....   125
 SCF integral mode      SCFMode         .... Direct
   Integral package                     .... SHARK and LIBINT hybrid scheme
 Reset frequency        DirectResetFreq ....    20
 Integral Threshold     Thresh          ....  3.000e-11 Eh
 Primitive CutOff       TCut            ....  1.000e-12 Eh

Convergence Tolerance:
 Convergence Check Mode ConvCheckMode   .... Total+1el-Energy
 Convergence forced     ConvForced      .... 0
 Energy Change          TolE            ....  1.000e-07 Eh
 1-El. energy change                    ....  1.000e-04 Eh
 DIIS Error             TolErr          ....  1.000e-07


Diagonalization of the overlap matrix:
Smallest eigenvalue                        ... 5.036e-04
Time for diagonalization                   ...    0.061 sec
Threshold for overlap eigenvalues          ... 1.000e-08
Number of eigenvalues below threshold      ... 0
Time for construction of square roots      ...    0.052 sec
Total time needed                          ...    0.115 sec

Time for model grid setup =    0.760 sec

------------------------------
INITIAL GUESS: MODEL POTENTIAL
------------------------------
Loading Hartree-Fock densities                     ... done
Calculating cut-offs                               ... done
Initializing the effective Hamiltonian             ... done
Setting up the integral package (SHARK)            ... done
Starting the Coulomb interaction                   ... done (   0.7 sec)
Reading the grid                                   ... done
Mapping shells                                     ... done
Starting the XC term evaluation                    ... done (   0.3 sec)
  promolecular density results
     # of electrons  =    219.990855266
     EX              =   -164.430874399
     EC              =     -7.323879250
     EX+EC           =   -171.754753649
Transforming the Hamiltonian                       ... done (   0.0 sec)
Diagonalizing the Hamiltonian                      ... done (   0.1 sec)
Back transforming the eigenvectors                 ... done (   0.0 sec)
Now organizing SCF variables                       ... done
                      ------------------
                      INITIAL GUESS DONE (   1.9 sec)
                      ------------------
-------------------
DFT GRID GENERATION
-------------------

General Integration Accuracy     IntAcc      ... 4.388
Radial Grid Type                 RadialGrid  ... OptM3 with GC (2021)
Angular Grid (max. ang.)         AngularGrid ... 4 (Lebedev-302)
Angular grid pruning method      GridPruning ... 4 (adaptive)
Weight generation scheme         WeightScheme... Becke
Basis function cutoff            BFCut       ... 1.0000e-11
Integration weight cutoff        WCut        ... 1.0000e-14
Angular grids for H and He will be reduced by one unit
Partially contracted basis set               ... off
Rotationally invariant grid construction     ... off

Total number of grid points                  ...   309870
Total number of batches                      ...     4876
Average number of points per batch           ...       63
Average number of grid points per atom       ...     4245
Time for grid setup =    3.041 sec


--------------------
CPCM SOLVATION MODEL
--------------------
CPCM parameters:
  Epsilon                                         ...       4.9000
  Refrac                                          ...       1.4500
  Rsolv                                           ...       1.3000
  Surface type                                    ... GAUSSIAN VDW
  Epsilon function type                           ...         CPCM
Radii:
 Radius for C  used is    3.8550 Bohr (=   2.0400 Ang.)
 Radius for H  used is    2.4944 Bohr (=   1.3200 Ang.)
 Radius for O  used is    3.4469 Bohr (=   1.8240 Ang.)
Calculating surface                               ...        done! (  0.0s)
GEPOL surface points                              ...         3644
GEPOL Volume                                      ...    3600.8891
GEPOL Surface-area                                ...    1789.2657
Calculating surface distance matrix               ...        done! (  0.1s)
Performing Cholesky decomposition & store         ...        done! (  0.4s)
Overall time for CPCM initialization              ...                 0.5s
--------------
SCF ITERATIONS
--------------
ITER       Energy         Delta-E        Max-DP      RMS-DP      [F,P]     Damp
               ***  Starting incremental Fock matrix formation  ***

  HOMO= 109 E= -1.858 eV LUMO=  7.833 eV gap=   9.691 eV
  0  -1167.5216013821   0.000000000000 0.05365047  0.00082877  0.2613157 0.7000

  HOMO= 109 E= -3.342 eV LUMO=  6.720 eV gap=  10.062 eV
  1  -1167.8939982091  -0.372396827014 0.02880012  0.00061277  0.1018927 0.7000
                               ***Turning on DIIS***

  HOMO= 109 E= -4.319 eV LUMO=  5.829 eV gap=  10.148 eV
  2  -1168.0402962831  -0.146298074015 0.05171622  0.00101081  0.0310125 0.0000

  HOMO= 109 E= -4.949 eV LUMO=  5.235 eV gap=  10.184 eV
  3  -1168.2370195962  -0.196723313133 0.02295910  0.00047395  0.0540448 0.0000

  HOMO= 109 E= -4.985 eV LUMO=  5.199 eV gap=  10.184 eV
  4  -1168.3040979838  -0.067078387591 0.00738798  0.00015194  0.0104442 0.0000

  HOMO= 109 E= -4.935 eV LUMO=  5.256 eV gap=  10.191 eV
  5  -1168.3071704606  -0.003072476799 0.00312064  0.00005688  0.0092733 0.0000

  HOMO= 109 E= -4.917 eV LUMO=  5.272 eV gap=  10.188 eV
  6  -1168.3074369962  -0.000266535591 0.00124827  0.00001926  0.0029374 0.0000

  HOMO= 109 E= -4.918 eV LUMO= -1.533 eV gap=   3.385 eV
  7  -1168.3074576551  -0.000020658914 0.00072917  0.00001179  0.0005503 0.0000

  HOMO= 109 E= -4.916 eV LUMO= -1.531 eV gap=   3.385 eV
  8  -1168.3074606245  -0.000002969326 0.00028059  0.00000298  0.0003870 0.0000

  HOMO= 109 E= -4.914 eV LUMO= -1.529 eV gap=   3.385 eV
  9  -1168.3074612810  -0.000000656582 0.00017651  0.00000159  0.0002837 0.0000

  HOMO= 109 E= -4.915 eV LUMO= -1.529 eV gap=   3.385 eV
 10  -1168.3074615480  -0.000000266939 0.00005990  0.00000069  0.0001109 0.0000

  HOMO= 109 E= -4.915 eV LUMO= -1.529 eV gap=   3.385 eV
 11  -1168.3074615801  -0.000000032145 0.00002529  0.00000027  0.0000313 0.0000

  HOMO= 109 E= -4.915 eV LUMO= -1.529 eV gap=   3.385 eV
 12  -1168.3074615584   0.000000021755 0.00000970  0.00000011  0.0000151 0.0000

  HOMO= 109 E= -4.915 eV LUMO= -1.529 eV gap=   3.385 eV
 13  -1168.3074615783  -0.000000019946 0.00000474  0.00000005  0.0000084 0.0000
                 **** Energy Check signals convergence ****

               *****************************************************
               *                     SUCCESS                       *
               *           SCF CONVERGED AFTER  14 CYCLES          *
               *****************************************************


----------------
TOTAL SCF ENERGY
----------------

Total Energy       :        -1168.30746160 Eh          -31791.26227 eV

Components:
Nuclear Repulsion  :         2776.08297418 Eh           75541.05816 eV
Electronic Energy  :        -3944.39043578 Eh         -107332.32043 eV
One Electron Energy:        -7098.60230325 Eh         -193162.78888 eV
Two Electron Energy:         3154.21186747 Eh           85830.46845 eV
CPCM Dielectric    :           -0.01045737 Eh              -0.28456 eV

Virial components:
Potential Energy   :        -2330.40870677 Eh          -63413.64480 eV
Kinetic Energy     :         1162.10124517 Eh           31622.38253 eV
Virial Ratio       :            2.00534051


DFT components:
N(Alpha)           :      110.000144413686 electrons
N(Beta)            :      110.000144413686 electrons
N(Total)           :      220.000288827373 electrons
E(X)               :     -169.583384311873 Eh       
E(C)               :       -7.441545856624 Eh       
E(XC)              :     -177.024930168497 Eh       
DFET-embed. en.    :        0.000000000000 Eh       
CPCM Solvation Model Properties:
Surface-charge          :           -0.04526470
Charge-correction       :           -0.00003408 Eh              -0.00093 eV
Free-energy (cav+disp)  :  This term is not implemented in the current solvation scheme

---------------
SCF CONVERGENCE
---------------

  Last Energy change         ...   -2.0821e-08  Tolerance :   1.0000e-07
  Last MAX-Density change    ...    2.4965e-06  Tolerance :   1.0000e-05
  Last RMS-Density change    ...    2.4612e-08  Tolerance :   1.0000e-06
  Last DIIS Error            ...    2.5548e-06  Tolerance :   1.0000e-07

             **** THE GBW FILE WAS UPDATED (inpS.gbw) ****
             **** DENSITY inpS.scfp WAS UPDATED ****
             **** ENERGY FILE WAS UPDATED (inpS.en.tmp) ****
             **** THE GBW FILE WAS UPDATED (inpS.gbw) ****
             **** DENSITY inpS.scfp WAS UPDATED ****
----------------
ORBITAL ENERGIES
----------------

  NO   OCC          E(Eh)            E(eV) 
   0   2.0000     -18.905596      -514.4474 
   1   2.0000     -10.057062      -273.6666 
   2   2.0000     -10.015830      -272.5446 
   3   2.0000     -10.013402      -272.4785 
   4   2.0000     -10.013310      -272.4760 
   5   2.0000     -10.011632      -272.4304 
   6   2.0000     -10.011172      -272.4178 
   7   2.0000     -10.010215      -272.3918 
   8   2.0000     -10.009398      -272.3696 
   9   2.0000     -10.008245      -272.3382 
  10   2.0000     -10.008024      -272.3322 
  11   2.0000     -10.007814      -272.3265 
  12   2.0000     -10.006675      -272.2955 
  13   2.0000     -10.006526      -272.2914 
  14   2.0000     -10.005429      -272.2616 
  15   2.0000     -10.005035      -272.2509 
  16   2.0000     -10.004069      -272.2246 
  17   2.0000     -10.000946      -272.1396 
  18   2.0000     -10.000171      -272.1185 
  19   2.0000      -9.998874      -272.0832 
  20   2.0000      -9.998568      -272.0749 
  21   2.0000      -9.998421      -272.0709 
  22   2.0000      -9.998338      -272.0686 
  23   2.0000      -9.998067      -272.0612 
  24   2.0000      -9.997021      -272.0328 
  25   2.0000      -9.995970      -272.0042 
  26   2.0000      -9.994788      -271.9720 
  27   2.0000      -9.994587      -271.9665 
  28   2.0000      -9.994319      -271.9592 
  29   2.0000      -0.955816       -26.0091 
  30   2.0000      -0.806922       -21.9575 
  31   2.0000      -0.790977       -21.5236 
  32   2.0000      -0.769242       -20.9321 
  33   2.0000      -0.755947       -20.5704 
  34   2.0000      -0.733780       -19.9672 
  35   2.0000      -0.727115       -19.7858 
  36   2.0000      -0.708251       -19.2725 
  37   2.0000      -0.707915       -19.2633 
  38   2.0000      -0.693533       -18.8720 
  39   2.0000      -0.675285       -18.3754 
  40   2.0000      -0.660278       -17.9671 
  41   2.0000      -0.654506       -17.8100 
  42   2.0000      -0.634887       -17.2762 
  43   2.0000      -0.629555       -17.1311 
  44   2.0000      -0.622720       -16.9451 
  45   2.0000      -0.616033       -16.7631 
  46   2.0000      -0.589882       -16.0515 
  47   2.0000      -0.583900       -15.8887 
  48   2.0000      -0.558318       -15.1926 
  49   2.0000      -0.548973       -14.9383 
  50   2.0000      -0.547307       -14.8930 
  51   2.0000      -0.536774       -14.6064 
  52   2.0000      -0.526451       -14.3254 
  53   2.0000      -0.516604       -14.0575 
  54   2.0000      -0.493597       -13.4315 
  55   2.0000      -0.478830       -13.0296 
  56   2.0000      -0.472479       -12.8568 
  57   2.0000      -0.463910       -12.6236 
  58   2.0000      -0.451212       -12.2781 
  59   2.0000      -0.441675       -12.0186 
  60   2.0000      -0.433955       -11.8085 
  61   2.0000      -0.428993       -11.6735 
  62   2.0000      -0.415848       -11.3158 
  63   2.0000      -0.414289       -11.2734 
  64   2.0000      -0.412840       -11.2340 
  65   2.0000      -0.407574       -11.0906 
  66   2.0000      -0.399844       -10.8803 
  67   2.0000      -0.395597       -10.7648 
  68   2.0000      -0.395416       -10.7598 
  69   2.0000      -0.391634       -10.6569 
  70   2.0000      -0.386524       -10.5179 
  71   2.0000      -0.379074       -10.3151 
  72   2.0000      -0.375677       -10.2227 
  73   2.0000      -0.371807       -10.1174 
  74   2.0000      -0.371324       -10.1042 
  75   2.0000      -0.366967        -9.9857 
  76   2.0000      -0.357275        -9.7219 
  77   2.0000      -0.356620        -9.7041 
  78   2.0000      -0.353056        -9.6071 
  79   2.0000      -0.350490        -9.5373 
  80   2.0000      -0.346419        -9.4265 
  81   2.0000      -0.344523        -9.3749 
  82   2.0000      -0.342290        -9.3142 
  83   2.0000      -0.336369        -9.1531 
  84   2.0000      -0.335959        -9.1419 
  85   2.0000      -0.330666        -8.9979 
  86   2.0000      -0.324351        -8.8260 
  87   2.0000      -0.323521        -8.8034 
  88   2.0000      -0.320270        -8.7150 
  89   2.0000      -0.315346        -8.5810 
  90   2.0000      -0.309798        -8.4300 
  91   2.0000      -0.306376        -8.3369 
  92   2.0000      -0.303481        -8.2581 
  93   2.0000      -0.294271        -8.0075 
  94   2.0000      -0.289653        -7.8819 
  95   2.0000      -0.286856        -7.8057 
  96   2.0000      -0.284240        -7.7346 
  97   2.0000      -0.284169        -7.7326 
  98   2.0000      -0.279061        -7.5936 
  99   2.0000      -0.276960        -7.5365 
 100   2.0000      -0.276131        -7.5139 
 101   2.0000      -0.271676        -7.3927 
 102   2.0000      -0.267670        -7.2837 
 103   2.0000      -0.265584        -7.2269 
 104   2.0000      -0.260811        -7.0970 
 105   2.0000      -0.247467        -6.7339 
 106   2.0000      -0.233315        -6.3488 
 107   2.0000      -0.227297        -6.1851 
 108   2.0000      -0.212082        -5.7711 
 109   2.0000      -0.180616        -4.9148 
 110   0.0000      -0.056203        -1.5294 
 111   0.0000      -0.013101        -0.3565 
 112   0.0000      -0.005488        -0.1493 
 113   0.0000       0.032250         0.8776 
 114   0.0000       0.036405         0.9906 
 115   0.0000       0.043602         1.1865 
 116   0.0000       0.045490         1.2378 
 117   0.0000       0.048811         1.3282 
 118   0.0000       0.051662         1.4058 
 119   0.0000       0.056379         1.5341 
 120   0.0000       0.061201         1.6654 
 121   0.0000       0.068197         1.8557 
 122   0.0000       0.071046         1.9333 
 123   0.0000       0.072508         1.9730 
 124   0.0000       0.075039         2.0419 
 125   0.0000       0.077701         2.1144 
 126   0.0000       0.085102         2.3157 
 127   0.0000       0.086406         2.3512 
 128   0.0000       0.089521         2.4360 
 129   0.0000       0.093611         2.5473 
 130   0.0000       0.099663         2.7120 
 131   0.0000       0.100948         2.7469 
 132   0.0000       0.103790         2.8243 
 133   0.0000       0.104997         2.8571 
 134   0.0000       0.107680         2.9301 
 135   0.0000       0.114154         3.1063 
 136   0.0000       0.115109         3.1323 
 137   0.0000       0.117731         3.2036 
 138   0.0000       0.124306         3.3825 
 139   0.0000       0.125182         3.4064 
 140   0.0000       0.127894         3.4802 
 141   0.0000       0.129504         3.5240 
 142   0.0000       0.130398         3.5483 
 143   0.0000       0.135415         3.6848 
 144   0.0000       0.136388         3.7113 
 145   0.0000       0.141533         3.8513 
 146   0.0000       0.144227         3.9246 
 147   0.0000       0.145776         3.9668 
 148   0.0000       0.145903         3.9702 
 149   0.0000       0.151039         4.1100 
 150   0.0000       0.156101         4.2477 
 151   0.0000       0.159467         4.3393 
 152   0.0000       0.162065         4.4100 
 153   0.0000       0.163778         4.4566 
 154   0.0000       0.167912         4.5691 
 155   0.0000       0.172102         4.6831 
 156   0.0000       0.173241         4.7141 
 157   0.0000       0.178730         4.8635 
 158   0.0000       0.179579         4.8866 
 159   0.0000       0.182331         4.9615 
 160   0.0000       0.186295         5.0693 
 161   0.0000       0.191220         5.2034 
 162   0.0000       0.197794         5.3823 
 163   0.0000       0.198421         5.3993 
 164   0.0000       0.202090         5.4992 
 165   0.0000       0.204288         5.5590 
 166   0.0000       0.210522         5.7286 
 167   0.0000       0.211367         5.7516 
 168   0.0000       0.213871         5.8197 
 169   0.0000       0.219052         5.9607 
 170   0.0000       0.223104         6.0710 
 171   0.0000       0.229097         6.2341 
 172   0.0000       0.229784         6.2527 
 173   0.0000       0.234416         6.3788 
 174   0.0000       0.243137         6.6161 
 175   0.0000       0.245952         6.6927 
 176   0.0000       0.249740         6.7958 
 177   0.0000       0.255980         6.9656 
 178   0.0000       0.268687         7.3113 
 179   0.0000       0.270374         7.3572 
 180   0.0000       0.273660         7.4467 
 181   0.0000       0.280972         7.6456 
 182   0.0000       0.285182         7.7602 
 183   0.0000       0.294452         8.0124 
 184   0.0000       0.299048         8.1375 
 185   0.0000       0.331981         9.0337 
 186   0.0000       0.338768         9.2183 
 187   0.0000       0.340090         9.2543 
 188   0.0000       0.343174         9.3382 
 189   0.0000       0.350442         9.5360 
 190   0.0000       0.355361         9.6699 
 191   0.0000       0.359952         9.7948 
 192   0.0000       0.361833         9.8460 
 193   0.0000       0.368284        10.0215 
 194   0.0000       0.372993        10.1496 
 195   0.0000       0.376741        10.2516 
 196   0.0000       0.379509        10.3270 
 197   0.0000       0.385599        10.4927 
 198   0.0000       0.389238        10.5917 
 199   0.0000       0.394091        10.7238 
 200   0.0000       0.399842        10.8802 
 201   0.0000       0.408088        11.1047 
 202   0.0000       0.408486        11.1155 
 203   0.0000       0.413805        11.2602 
 204   0.0000       0.420867        11.4524 
 205   0.0000       0.431264        11.7353 
 206   0.0000       0.435902        11.8615 
 207   0.0000       0.437957        11.9174 
 208   0.0000       0.452036        12.3005 
 209   0.0000       0.455344        12.3906 
 210   0.0000       0.458814        12.4850 
 211   0.0000       0.466209        12.6862 
 212   0.0000       0.473776        12.8921 
 213   0.0000       0.477991        13.0068 
 214   0.0000       0.482507        13.1297 
 215   0.0000       0.483883        13.1671 
 216   0.0000       0.489130        13.3099 
 217   0.0000       0.491018        13.3613 
 218   0.0000       0.494586        13.4584 
 219   0.0000       0.505216        13.7476 
 220   0.0000       0.508553        13.8384 
 221   0.0000       0.514795        14.0083 
 222   0.0000       0.518512        14.1094 
 223   0.0000       0.522247        14.2111 
 224   0.0000       0.529314        14.4034 
 225   0.0000       0.535056        14.5596 
 226   0.0000       0.539153        14.6711 
 227   0.0000       0.541463        14.7339 
 228   0.0000       0.545634        14.8474 
 229   0.0000       0.546811        14.8795 
 230   0.0000       0.549792        14.9606 
 231   0.0000       0.552343        15.0300 
 232   0.0000       0.556509        15.1434 
 233   0.0000       0.562356        15.3025 
 234   0.0000       0.565133        15.3781 
 235   0.0000       0.569240        15.4898 
 236   0.0000       0.571608        15.5542 
 237   0.0000       0.573848        15.6152 
 238   0.0000       0.576791        15.6953 
 239   0.0000       0.577346        15.7104 
 240   0.0000       0.581284        15.8175 
 241   0.0000       0.584128        15.8949 
 242   0.0000       0.586513        15.9598 
 243   0.0000       0.589910        16.0523 
 244   0.0000       0.591805        16.1038 
 245   0.0000       0.592682        16.1277 
 246   0.0000       0.595191        16.1960 
 247   0.0000       0.599468        16.3124 
 248   0.0000       0.601212        16.3598 
 249   0.0000       0.604309        16.4441 
 250   0.0000       0.606907        16.5148 
 251   0.0000       0.610094        16.6015 
 252   0.0000       0.615234        16.7414 
 253   0.0000       0.617113        16.7925 
 254   0.0000       0.617838        16.8122 
 255   0.0000       0.622159        16.9298 
 256   0.0000       0.623843        16.9756 
 257   0.0000       0.628403        17.0997 
 258   0.0000       0.628896        17.1131 
 259   0.0000       0.631119        17.1736 
 260   0.0000       0.632722        17.2173 
 261   0.0000       0.636416        17.3177 
 262   0.0000       0.639682        17.4066 
 263   0.0000       0.643385        17.5074 
 264   0.0000       0.645733        17.5713 
 265   0.0000       0.646784        17.5999 
 266   0.0000       0.648623        17.6499 
 267   0.0000       0.651362        17.7244 
 268   0.0000       0.654752        17.8167 
 269   0.0000       0.659219        17.9383 
 270   0.0000       0.661521        18.0009 
 271   0.0000       0.663565        18.0565 
 272   0.0000       0.668174        18.1819 
 273   0.0000       0.670262        18.2387 
 274   0.0000       0.674774        18.3615 
 275   0.0000       0.677815        18.4443 
 276   0.0000       0.680892        18.5280 
 277   0.0000       0.682037        18.5592 
 278   0.0000       0.688610        18.7380 
 279   0.0000       0.691551        18.8181 
 280   0.0000       0.693461        18.8700 
 281   0.0000       0.703124        19.1330 
 282   0.0000       0.706072        19.2132 
 283   0.0000       0.707460        19.2510 
 284   0.0000       0.708654        19.2835 
 285   0.0000       0.713861        19.4252 
 286   0.0000       0.718123        19.5411 
 287   0.0000       0.721867        19.6430 
 288   0.0000       0.728997        19.8370 
 289   0.0000       0.733773        19.9670 
 290   0.0000       0.740206        20.1420 
 291   0.0000       0.745550        20.2875 
 292   0.0000       0.746779        20.3209 
 293   0.0000       0.755803        20.5665 
 294   0.0000       0.756654        20.5896 
 295   0.0000       0.761133        20.7115 
 296   0.0000       0.763950        20.7881 
 297   0.0000       0.779700        21.2167 
 298   0.0000       0.784259        21.3408 
 299   0.0000       0.793019        21.5791 
 300   0.0000       0.799343        21.7512 
 301   0.0000       0.808433        21.9986 
 302   0.0000       0.811969        22.0948 
 303   0.0000       0.834756        22.7149 
 304   0.0000       0.838218        22.8091 
 305   0.0000       0.846619        23.0377 
 306   0.0000       0.853473        23.2242 
 307   0.0000       0.883574        24.0433 
 308   0.0000       0.891867        24.2689 
 309   0.0000       0.912628        24.8339 
 310   0.0000       0.916943        24.9513 
 311   0.0000       0.927925        25.2501 
 312   0.0000       0.938287        25.5321 
 313   0.0000       0.952103        25.9080 
 314   0.0000       0.959076        26.0978 
 315   0.0000       0.970578        26.4108 
 316   0.0000       0.986768        26.8513 
 317   0.0000       1.017093        27.6765 
 318   0.0000       1.031353        28.0645 
 319   0.0000       1.042736        28.3743 
 320   0.0000       1.051540        28.6138 
 321   0.0000       1.063311        28.9342 
 322   0.0000       1.067816        29.0567 
 323   0.0000       1.109630        30.1946 
 324   0.0000       1.122376        30.5414 
 325   0.0000       1.124492        30.5990 
 326   0.0000       1.142871        31.0991 
 327   0.0000       1.146948        31.2100 
 328   0.0000       1.178411        32.0662 
 329   0.0000       1.185386        32.2560 
 330   0.0000       1.196019        32.5453 
 331   0.0000       1.220439        33.2098 
 332   0.0000       1.232622        33.5413 
 333   0.0000       1.252304        34.0769 
 334   0.0000       1.259978        34.2858 
 335   0.0000       1.265178        34.4272 
 336   0.0000       1.275629        34.7116 
 337   0.0000       1.283222        34.9182 
 338   0.0000       1.291011        35.1302 
 339   0.0000       1.301676        35.4204 
 340   0.0000       1.319490        35.9052 
 341   0.0000       1.334383        36.3104 
 342   0.0000       1.340484        36.4764 
 343   0.0000       1.348424        36.6925 
 344   0.0000       1.361551        37.0497 
 345   0.0000       1.370220        37.2856 
 346   0.0000       1.388069        37.7713 
 347   0.0000       1.394461        37.9452 
 348   0.0000       1.399851        38.0919 
 349   0.0000       1.409138        38.3446 
 350   0.0000       1.417758        38.5791 
 351   0.0000       1.434681        39.0396 
 352   0.0000       1.443581        39.2818 
 353   0.0000       1.455100        39.5953 
 354   0.0000       1.461325        39.7647 
 355   0.0000       1.470579        40.0165 
 356   0.0000       1.483724        40.3742 
 357   0.0000       1.495646        40.6986 
 358   0.0000       1.507659        41.0255 
 359   0.0000       1.515213        41.2310 
 360   0.0000       1.520238        41.3678 
 361   0.0000       1.529994        41.6332 
 362   0.0000       1.536318        41.8053 
 363   0.0000       1.548591        42.1393 
 364   0.0000       1.555138        42.3175 
 365   0.0000       1.562195        42.5095 
 366   0.0000       1.575379        42.8682 
 367   0.0000       1.578294        42.9476 
 368   0.0000       1.585862        43.1535 
 369   0.0000       1.589917        43.2639 
 370   0.0000       1.601331        43.5744 
 371   0.0000       1.612353        43.8743 
 372   0.0000       1.619842        44.0781 
 373   0.0000       1.625988        44.2454 
 374   0.0000       1.635462        44.5032 
 375   0.0000       1.640474        44.6396 
 376   0.0000       1.652647        44.9708 
 377   0.0000       1.665732        45.3269 
 378   0.0000       1.666404        45.3452 
 379   0.0000       1.676418        45.6177 
 380   0.0000       1.687314        45.9142 
 381   0.0000       1.695711        46.1426 
 382   0.0000       1.702593        46.3299 
 383   0.0000       1.702705        46.3330 
 384   0.0000       1.708973        46.5035 
 385   0.0000       1.721457        46.8432 
 386   0.0000       1.723359        46.8950 
 387   0.0000       1.728400        47.0321 
 388   0.0000       1.730895        47.1001 
 389   0.0000       1.735279        47.2193 
 390   0.0000       1.739680        47.3391 
 391   0.0000       1.748165        47.5700 
 392   0.0000       1.751909        47.6719 
 393   0.0000       1.753642        47.7190 
 394   0.0000       1.768837        48.1325 
 395   0.0000       1.770979        48.1908 
 396   0.0000       1.779383        48.4195 
 397   0.0000       1.784071        48.5470 
 398   0.0000       1.786128        48.6030 
 399   0.0000       1.789356        48.6909 
 400   0.0000       1.799262        48.9604 
 401   0.0000       1.800383        48.9909 
 402   0.0000       1.805651        49.1343 
 403   0.0000       1.810180        49.2575 
 404   0.0000       1.821068        49.5538 
 405   0.0000       1.826403        49.6989 
 406   0.0000       1.836389        49.9707 
 407   0.0000       1.841206        50.1018 
 408   0.0000       1.848119        50.2899 
 409   0.0000       1.850056        50.3426 
 410   0.0000       1.863607        50.7113 
 411   0.0000       1.868747        50.8512 
 412   0.0000       1.877279        51.0834 
 413   0.0000       1.882033        51.2127 
 414   0.0000       1.889445        51.4144 
 415   0.0000       1.895505        51.5793 
 416   0.0000       1.896610        51.6094 
 417   0.0000       1.905389        51.8483 
 418   0.0000       1.911074        52.0030 
 419   0.0000       1.919615        52.2354 
 420   0.0000       1.926596        52.4253 
 421   0.0000       1.936557        52.6964 
 422   0.0000       1.938964        52.7619 
 423   0.0000       1.946844        52.9763 
 424   0.0000       1.949003        53.0351 
 425   0.0000       1.952782        53.1379 
 426   0.0000       1.962588        53.4047 
 427   0.0000       1.966508        53.5114 
 428   0.0000       1.977925        53.8221 
 429   0.0000       1.979330        53.8603 
 430   0.0000       1.979627        53.8684 
 431   0.0000       1.984860        54.0108 
 432   0.0000       1.990265        54.1579 
 433   0.0000       1.997520        54.3553 
 434   0.0000       1.998912        54.3932 
 435   0.0000       2.002434        54.4890 
 436   0.0000       2.007941        54.6389 
 437   0.0000       2.012599        54.7656 
 438   0.0000       2.014897        54.8281 
 439   0.0000       2.023422        55.0601 
 440   0.0000       2.026695        55.1492 
 441   0.0000       2.032384        55.3040 
 442   0.0000       2.039981        55.5107 
 443   0.0000       2.042877        55.5895 
[...]

 --------------
 Nucleus  47H :
 --------------

Diamagnetic contribution to the shielding tensor (ppm) : 
            31.191          3.764        -0.323
             0.676         47.872        -2.491
            -0.228         -1.560        43.604

Paramagnetic contribution to the shielding tensor (ppm): 
            -2.413         -3.268         1.061
             0.128        -14.356        -0.843
             0.203         -1.858       -12.003

Total shielding tensor (ppm): 
            28.778          0.496         0.738
             0.804         33.516        -3.334
            -0.025         -3.418        31.601


 Diagonalized sT*s matrix:
 
 sDSO            34.816           39.422           48.428  iso=      40.889
 sPSO            -6.599           -9.824          -12.348  iso=      -9.590
        ---------------  ---------------  ---------------
 Total           28.217           29.598           36.081  iso=      31.298

 --------------
 Nucleus  48H :
 --------------

Diamagnetic contribution to the shielding tensor (ppm) : 
            36.537          0.265        -1.780
            -6.944         37.067         0.552
            -5.228         -1.013        46.978

Paramagnetic contribution to the shielding tensor (ppm): 
            -4.437          0.784         1.819
             8.317         -8.552        -1.954
             4.394         -0.878       -17.221

Total shielding tensor (ppm): 
            32.100          1.049         0.039
             1.373         28.515        -1.403
            -0.834         -1.892        29.757


 Diagonalized sT*s matrix:
 
 sDSO            41.126           42.037           37.419  iso=      40.194
 sPSO           -13.880          -11.674           -4.657  iso=     -10.070
        ---------------  ---------------  ---------------
 Total           27.246           30.364           32.762  iso=      30.124

 --------------
 Nucleus  52H :
 --------------

Diamagnetic contribution to the shielding tensor (ppm) : 
            40.100         -0.140         3.686
             8.368         30.617        -9.051
             7.559         -7.557        45.574

Paramagnetic contribution to the shielding tensor (ppm): 
            -8.871          4.560        -2.222
            -4.834         -5.192        10.691
            -4.510         10.681       -23.186

Total shielding tensor (ppm): 
            31.230          4.420         1.463
             3.534         25.424         1.640
             3.049          3.123        22.388


 Diagonalized sT*s matrix:
 
 sDSO            49.225           25.059           42.008  iso=      38.764
 sPSO           -28.138           -1.173           -7.938  iso=     -12.416
        ---------------  ---------------  ---------------
 Total           21.087           23.885           34.070  iso=      26.347

 --------------
 Nucleus  53H :
 --------------

Diamagnetic contribution to the shielding tensor (ppm) : 
            35.515          1.316         3.372
             3.299         36.375        -8.115
            -7.881         -5.141        55.476

Paramagnetic contribution to the shielding tensor (ppm): 
            -5.812          2.388        -3.680
            -0.200        -10.542         6.971
             7.756          4.368       -31.592

Total shielding tensor (ppm): 
            29.703          3.704        -0.309
             3.099         25.833        -1.144
            -0.126         -0.773        23.884


 Diagonalized sT*s matrix:
 
 sDSO            40.032           48.474           38.858  iso=      42.455
 sPSO           -16.908          -23.917           -7.120  iso=     -15.982
        ---------------  ---------------  ---------------
 Total           23.124           24.557           31.738  iso=      26.473

 --------------
 Nucleus  57H :
 --------------

Diamagnetic contribution to the shielding tensor (ppm) : 
            32.193         -0.933         0.541
            10.992         42.861        -6.750
            -0.856         -2.804        31.531

Paramagnetic contribution to the shielding tensor (ppm): 
            -4.340         -0.529        -0.937
           -12.123         -9.139         6.145
             1.162          2.171        -4.139

Total shielding tensor (ppm): 
            27.853         -1.462        -0.396
            -1.131         33.722        -0.605
             0.307         -0.633        27.392


 Diagonalized sT*s matrix:
 
 sDSO            31.183           34.224           41.178  iso=      35.528
 sPSO            -3.933           -6.556           -7.128  iso=      -5.872
        ---------------  ---------------  ---------------
 Total           27.250           27.668           34.050  iso=      29.656

 --------------
 Nucleus  58H :
 --------------

Diamagnetic contribution to the shielding tensor (ppm) : 
            36.367          5.991         5.020
            16.273         30.098         1.780
            13.946         -0.696        17.009

Paramagnetic contribution to the shielding tensor (ppm): 
            -4.857         -1.384        -3.890
           -11.721          0.397        -0.249
           -12.294          2.205        11.705

Total shielding tensor (ppm): 
            31.509          4.607         1.130
             4.552         30.495         1.531
             1.652          1.509        28.714


 Diagonalized sT*s matrix:
 
 sDSO            22.890           14.119           46.465  iso=      27.825
 sPSO             3.483           14.053          -10.291  iso=       2.415
        ---------------  ---------------  ---------------
 Total           26.372           28.173           36.173  iso=      30.239

 --------------
 Nucleus  61H :
 --------------

Diamagnetic contribution to the shielding tensor (ppm) : 
            28.164         -0.149        -0.225
             7.669         21.157       -11.289
           -20.157         -8.974        35.315

Paramagnetic contribution to the shielding tensor (ppm): 
             0.759          0.864        -0.931
            -7.166          6.337         7.906
            19.824          4.823        -0.156

Total shielding tensor (ppm): 
            28.923          0.716        -1.156
             0.503         27.493        -3.383
            -0.333         -4.152        35.159


 Diagonalized sT*s matrix:
 
 sDSO            16.267           25.729           42.640  iso=      28.212
 sPSO             9.659            3.114           -5.833  iso=       2.313
        ---------------  ---------------  ---------------
 Total           25.925           28.843           36.807  iso=      30.525

 --------------
 Nucleus  62H :
 --------------

Diamagnetic contribution to the shielding tensor (ppm) : 
            32.784         -4.954        -5.059
            -4.676         31.306         4.768
           -11.473          2.821        20.946

Paramagnetic contribution to the shielding tensor (ppm): 
            -2.431          2.555         2.648
             2.220          0.166        -3.696
             8.595         -1.271         9.604

Total shielding tensor (ppm): 
            30.353         -2.398        -2.411
            -2.456         31.473         1.072
            -2.878          1.550        30.550


 Diagonalized sT*s matrix:
 
 sDSO            20.881           24.023           40.133  iso=      28.346
 sPSO             6.663            5.738           -5.062  iso=       2.447
        ---------------  ---------------  ---------------
 Total           27.544           29.762           35.071  iso=      30.792

 --------------
 Nucleus  63H :
 --------------

Diamagnetic contribution to the shielding tensor (ppm) : 
            39.496          6.090         0.171
            14.787         22.986        -2.913
            -5.046          1.476         9.492

Paramagnetic contribution to the shielding tensor (ppm): 
            -4.308         -0.912        -0.696
           -10.007          5.945         2.217
             3.432         -2.420        18.838

Total shielding tensor (ppm): 
            35.188          5.178        -0.525
             4.780         28.932        -0.695
            -1.613         -0.943        28.331


 Diagonalized sT*s matrix:
 
 sDSO            18.015            9.441           44.518  iso=      23.991
 sPSO             8.144           18.728           -6.397  iso=       6.825
        ---------------  ---------------  ---------------
 Total           26.160           28.170           38.120  iso=      30.817

 --------------
 Nucleus  64H :
 --------------

Diamagnetic contribution to the shielding tensor (ppm) : 
            28.967         -2.918         8.791
            -5.019         17.631        -7.531
            19.500        -10.989        24.535

Paramagnetic contribution to the shielding tensor (ppm): 
             1.921          0.329        -3.963
             2.568         11.048         4.792
           -15.360          8.953         8.948

Total shielding tensor (ppm): 
            30.887         -2.588         4.827
            -2.451         28.680        -2.739
             4.140         -2.036        33.483


 Diagonalized sT*s matrix:
 
 sDSO            18.106            9.485           43.543  iso=      23.711
 sPSO             8.824           18.536           -5.444  iso=       7.305
        ---------------  ---------------  ---------------
 Total           26.929           28.021           38.100  iso=      31.017

 --------------
 Nucleus  65H :
 --------------

Diamagnetic contribution to the shielding tensor (ppm) : 
            38.167         -7.171        -3.945
            -5.250         21.100         2.083
             5.100          3.284        13.722

Paramagnetic contribution to the shielding tensor (ppm): 
            -4.284          3.810         0.783
             1.041          7.176        -2.076
            -7.672         -4.249        15.778

Total shielding tensor (ppm): 
            33.883         -3.361        -3.163
            -4.209         28.276         0.007
            -2.572         -0.965        29.500


 Diagonalized sT*s matrix:
 
 sDSO            21.200           14.333           37.457  iso=      24.330
 sPSO             4.314           15.215           -0.860  iso=       6.223
        ---------------  ---------------  ---------------
 Total           25.514           29.548           36.597  iso=      30.553

 --------------
 Nucleus  66H :
 --------------

Diamagnetic contribution to the shielding tensor (ppm) : 
            34.704          1.290         3.710
            -3.406         34.006        -8.749
             9.531         -4.506        20.078

Paramagnetic contribution to the shielding tensor (ppm): 
            -2.983          0.830        -0.482
             6.283          0.219         8.452
            -7.204          4.930         5.902

Total shielding tensor (ppm): 
            31.721          2.120         3.228
             2.877         34.225        -0.297
             2.328          0.424        25.980


 Diagonalized sT*s matrix:
 
 sDSO            16.567           39.814           32.406  iso=      29.596
 sPSO             8.202           -8.676            3.613  iso=       1.046
        ---------------  ---------------  ---------------
 Total           24.769           31.138           36.019  iso=      30.642

 --------------
 Nucleus  67H :
 --------------

Diamagnetic contribution to the shielding tensor (ppm) : 
            37.489          7.139        -5.380
            17.434         35.768         0.494
            12.066         -1.241        43.088

Paramagnetic contribution to the shielding tensor (ppm): 
            -4.034         -2.501         5.181
           -13.078         -8.091         1.208
           -12.152          1.848       -13.416

Total shielding tensor (ppm): 
            33.455          4.638        -0.200
             4.356         27.677         1.702
            -0.085          0.607        29.671


 Diagonalized sT*s matrix:
 
 sDSO            27.520           40.918           47.906  iso=      38.781
 sPSO            -2.549          -11.027          -11.965  iso=      -8.514
        ---------------  ---------------  ---------------
 Total           24.972           29.891           35.940  iso=      30.268

 --------------
 Nucleus  68H :
 --------------

Diamagnetic contribution to the shielding tensor (ppm) : 
            30.323         -4.468        -3.332
             3.277         39.924        -1.288
            12.345         -0.672        39.148

Paramagnetic contribution to the shielding tensor (ppm): 
            -0.066          0.603         2.768
            -6.291         -6.599         3.509
           -13.596          3.573       -10.291

Total shielding tensor (ppm): 
            30.257         -3.865        -0.564
            -3.013         33.325         2.221
            -1.251          2.901        28.857


 Diagonalized sT*s matrix:
 
 sDSO            35.106           38.209           36.080  iso=      36.465
 sPSO            -7.724           -9.630            0.398  iso=      -5.652
        ---------------  ---------------  ---------------
 Total           27.382           28.579           36.478  iso=      30.813

 --------------
 Nucleus  69H :
 --------------

Diamagnetic contribution to the shielding tensor (ppm) : 
            24.360          1.965         3.241
             9.781         27.506        -1.771
            22.089         -5.885        42.812

Paramagnetic contribution to the shielding tensor (ppm): 
             4.134         -1.879        -2.110
           -10.029         -1.064         3.436
           -19.990          7.222        -5.771

Total shielding tensor (ppm): 
            28.494          0.086         1.130
            -0.248         26.443         1.665
             2.099          1.336        37.041


 Diagonalized sT*s matrix:
 
 sDSO            30.029           18.929           45.721  iso=      31.560
 sPSO            -3.839            9.331           -8.192  iso=      -0.900
        ---------------  ---------------  ---------------
 Total           26.190           28.259           37.528  iso=      30.659

 --------------
 Nucleus  70H :
 --------------

Diamagnetic contribution to the shielding tensor (ppm) : 
            34.240         -7.448        -8.006
           -14.090         25.418         3.827
           -16.639          4.783        33.703

Paramagnetic contribution to the shielding tensor (ppm): 
            -0.230          6.199         3.355
            12.475          3.984        -0.915
            12.161         -1.935        -4.258

Total shielding tensor (ppm): 
            34.009         -1.249        -4.651
            -1.615         29.401         2.912
            -4.478          2.848        29.445


 Diagonalized sT*s matrix:
 
 sDSO            25.188           17.801           50.372  iso=      31.120
 sPSO             0.492           11.622          -12.619  iso=      -0.168
        ---------------  ---------------  ---------------
 Total           25.680           29.423           37.753  iso=      30.952

 --------------
 Nucleus  71H :
 --------------

Diamagnetic contribution to the shielding tensor (ppm) : 
            31.187          1.649         5.028
            -6.755         37.319        10.775
            -3.482          8.573        38.912

Paramagnetic contribution to the shielding tensor (ppm): 
             1.202         -0.871        -4.610
             8.780         -7.237        -5.507
             4.283         -3.876       -10.724

Total shielding tensor (ppm): 
            32.389          0.778         0.418
             2.026         30.082         5.268
             0.801          4.697        28.188


 Diagonalized sT*s matrix:
 
 sDSO            28.915           36.402           42.100  iso=      35.806
 sPSO            -4.874           -4.813           -7.072  iso=      -5.586
        ---------------  ---------------  ---------------
 Total           24.041           31.589           35.028  iso=      30.220

 --------------
 Nucleus  72H :
 --------------

Diamagnetic contribution to the shielding tensor (ppm) : 
            27.310         -6.706         0.784
           -11.558         39.439        -1.198
            -3.679         -5.998        35.249

Paramagnetic contribution to the shielding tensor (ppm): 
             3.352          4.380        -0.101
             9.716         -5.905        -1.894
             3.961          4.156        -6.592

Total shielding tensor (ppm): 
            30.662         -2.326         0.683
            -1.842         33.535        -3.092
             0.282         -1.842        28.656


 Diagonalized sT*s matrix:
 
 sDSO            31.592           25.496           44.910  iso=      33.999
 sPSO            -4.017            4.293           -9.421  iso=      -3.048
        ---------------  ---------------  ---------------
 Total           27.575           29.790           35.488  iso=      30.951



--------------------------------
CHEMICAL SHIELDING SUMMARY (ppm)
--------------------------------


  Nucleus  Element    Isotropic     Anisotropy
  -------  -------  ------------   ------------
      3       H           29.639          5.435 
      4       H           29.134          5.300 
      8       H           29.573          6.432 
      9       H           29.429          7.744 
     10       H           29.631          8.797 
     11       H           30.533          6.225 
     13       H           28.187          2.738 
     16       H           26.861          5.112 
     17       H           26.522          4.990 
     19       H           25.454         10.752 
     21       H           25.714         15.041 
     24       H           28.895          9.979 
     25       H           29.998          9.412 
     27       H           30.228          7.159 
     28       H           30.153         11.767 
     30       H           29.748          8.057 
     31       H           30.402          6.888 
     33       H           29.768          4.047 
     35       H           31.120         14.870 
     37       H           30.397         10.715 
     38       H           30.304          9.486 
     40       H           30.025         10.478 
     41       H           30.538          8.261 
     42       H           30.557          5.465 
     45       H           31.062          8.275 
     46       H           31.334          9.268 
     47       H           31.298          7.173 
     48       H           30.124          3.957 
     52       H           26.347         11.583 
     53       H           26.473          7.898 
     57       H           29.656          6.590 
     58       H           30.239          8.901 
     61       H           30.525          9.423 
     62       H           30.792          6.418 
     63       H           30.817         10.956 
     64       H           31.017         10.625 
     65       H           30.553          9.066 
     66       H           30.642          8.066 
     67       H           30.268          8.509 
     68       H           30.813          8.497 
     69       H           30.659         10.303 
     70       H           30.952         10.201 
     71       H           30.220          7.213 
     72       H           30.951          6.806 



Maximum memory used throughout the entire EPRNMR-calculation: 140.8 MB

Timings for individual modules:

Sum of individual times         ...      139.108 sec (=   2.318 min)
GTO integral calculation        ...        0.770 sec (=   0.013 min)   0.6 %
SCF iterations                  ...       93.164 sec (=   1.553 min)  67.0 %
EPR/NMR calculation             ...       45.174 sec (=   0.753 min)  32.5 %
                             ****ORCA TERMINATED NORMALLY****
TOTAL RUN TIME: 0 days 0 hours 2 minutes 19 seconds 588 msec
