
                                 *****************
                                 * O   R   C   A *
                                 *****************

                                            #,                                       
                                            ###                                      
                                            ####                                     
                                            #####                                    
                                            ######                                   
                                           ########,                                 
                                     ,,################,,,,,                         
                               ,,#################################,,                 
                          ,,##########################################,,             
                       ,#########################################, ''#####,          
                    ,#############################################,,   '####,        
                  ,##################################################,,,,####,       
                ,###########''''           ''''###############################       
              ,#####''   ,,,,##########,,,,          '''####'''          '####       
            ,##' ,,,,###########################,,,                        '##       
           ' ,,###''''                  '''############,,,                           
         ,,##''                                '''############,,,,        ,,,,,,###''
      ,#''                                            '''#######################'''  
     '                                                          ''''####''''         
             ,#######,   #######,   ,#######,      ##                                
            ,#'     '#,  ##    ##  ,#'     '#,    #''#        ######   ,####,        
            ##       ##  ##   ,#'  ##            #'  '#       #        #'  '#        
            ##       ##  #######   ##           ,######,      #####,   #    #        
            '#,     ,#'  ##    ##  '#,     ,#' ,#      #,         ##   #,  ,#        
             '#######'   ##     ##  '#######'  #'      '#     #####' # '####'        



                  #######################################################
                  #                        -***-                        #
                  #          Department of theory and spectroscopy      #
                  #    Directorship and core code : Frank Neese         #
                  #        Max Planck Institute fuer Kohlenforschung    #
                  #                Kaiser Wilhelm Platz 1               #
                  #                 D-45470 Muelheim/Ruhr               #
                  #                      Germany                        #
                  #                                                     #
                  #                  All rights reserved                #
                  #                        -***-                        #
                  #######################################################


                         Program Version 5.0.2 -  RELEASE  -


 With contributions from (in alphabetic order):
   Daniel Aravena         : Magnetic Suceptibility
   Michael Atanasov       : Ab Initio Ligand Field Theory (pilot matlab implementation)
   Alexander A. Auer      : GIAO ZORA, VPT2 properties, NMR spectrum
   Ute Becker             : Parallelization
   Giovanni Bistoni       : ED, misc. LED, open-shell LED, HFLD
   Martin Brehm           : Molecular dynamics
   Dmytro Bykov           : SCF Hessian
   Vijay G. Chilkuri      : MRCI spin determinant printing, contributions to CSF-ICE
   Dipayan Datta          : RHF DLPNO-CCSD density
   Achintya Kumar Dutta   : EOM-CC, STEOM-CC
   Dmitry Ganyushin       : Spin-Orbit,Spin-Spin,Magnetic field MRCI
   Miquel Garcia          : C-PCM and meta-GGA Hessian, CC/C-PCM, Gaussian charge scheme
   Yang Guo               : DLPNO-NEVPT2, F12-NEVPT2, CIM, IAO-localization
   Andreas Hansen         : Spin unrestricted coupled pair/coupled cluster methods
   Benjamin Helmich-Paris : MC-RPA, TRAH-SCF, COSX integrals
   Lee Huntington         : MR-EOM, pCC
   Robert Izsak           : Overlap fitted RIJCOSX, COSX-SCS-MP3, EOM
   Marcus Kettner         : VPT2
   Christian Kollmar      : KDIIS, OOCD, Brueckner-CCSD(T), CCSD density, CASPT2, CASPT2-K
   Simone Kossmann        : Meta GGA functionals, TD-DFT gradient, OOMP2, MP2 Hessian
   Martin Krupicka        : Initial AUTO-CI
   Lucas Lang             : DCDCAS
   Marvin Lechner         : AUTO-CI (C++ implementation), FIC-MRCC
   Dagmar Lenk            : GEPOL surface, SMD
   Dimitrios Liakos       : Extrapolation schemes; Compound Job, initial MDCI parallelization
   Dimitrios Manganas     : Further ROCIS development; embedding schemes
   Dimitrios Pantazis     : SARC Basis sets
   Anastasios Papadopoulos: AUTO-CI, single reference methods and gradients
   Taras Petrenko         : DFT Hessian,TD-DFT gradient, ASA, ECA, R-Raman, ABS, FL, XAS/XES, NRVS
   Peter Pinski           : DLPNO-MP2, DLPNO-MP2 Gradient
   Christoph Reimann      : Effective Core Potentials
   Marius Retegan         : Local ZFS, SOC
   Christoph Riplinger    : Optimizer, TS searches, QM/MM, DLPNO-CCSD(T), (RO)-DLPNO pert. Triples
   Tobias Risthaus        : Range-separated hybrids, TD-DFT gradient, RPA, STAB
   Michael Roemelt        : Original ROCIS implementation
   Masaaki Saitow         : Open-shell DLPNO-CCSD energy and density
   Barbara Sandhoefer     : DKH picture change effects
   Avijit Sen             : IP-ROCIS
   Kantharuban Sivalingam : CASSCF convergence, NEVPT2, FIC-MRCI
   Bernardo de Souza      : ESD, SOC TD-DFT
   Georgi Stoychev        : AutoAux, RI-MP2 NMR, DLPNO-MP2 response
   Willem Van den Heuvel  : Paramagnetic NMR
   Boris Wezisla          : Elementary symmetry handling
   Frank Wennmohs         : Technical directorship


 We gratefully acknowledge several colleagues who have allowed us to
 interface, adapt or use parts of their codes:
   Stefan Grimme, W. Hujo, H. Kruse, P. Pracht,  : VdW corrections, initial TS optimization,
                  C. Bannwarth, S. Ehlert          DFT functionals, gCP, sTDA/sTD-DF
   Ed Valeev, F. Pavosevic, A. Kumar             : LibInt (2-el integral package), F12 methods
   Garnet Chan, S. Sharma, J. Yang, R. Olivares  : DMRG
   Ulf Ekstrom                                   : XCFun DFT Library
   Mihaly Kallay                                 : mrcc  (arbitrary order and MRCC methods)
   Jiri Pittner, Ondrej Demel                    : Mk-CCSD
   Frank Weinhold                                : gennbo (NPA and NBO analysis)
   Christopher J. Cramer and Donald G. Truhlar   : smd solvation model
   Lars Goerigk                                  : TD-DFT with DH, B97 family of functionals
   V. Asgeirsson, H. Jonsson                     : NEB implementation
   FAccTs GmbH                                   : IRC, NEB, NEB-TS, DLPNO-Multilevel, CI-OPT
                                                   MM, QMMM, 2- and 3-layer-ONIOM, Crystal-QMMM,
                                                   LR-CPCM, SF, NACMEs, symmetry and pop. for TD-DFT,
                                                   nearIR, NL-DFT gradient (VV10), updates on ESD,
                                                   ML-optimized integration grids
   S Lehtola, MJT Oliveira, MAL Marques          : LibXC Library
   Liviu Ungur et al                             : ANISO software


 Your calculation uses the libint2 library for the computation of 2-el integrals
 For citations please refer to: http://libint.valeyev.net

 Your ORCA version has been built with support for libXC version: 5.1.0
 For citations please refer to: https://tddft.org/programs/libxc/

 This ORCA versions uses:
   CBLAS   interface :  Fast vector & matrix operations
   LAPACKE interface :  Fast linear algebra routines
   SCALAPACK package :  Parallel linear algebra routines
   Shared memory     :  Shared parallel matrices
   BLAS/LAPACK       :  OpenBLAS 0.3.15  USE64BITINT DYNAMIC_ARCH NO_AFFINITY Zen SINGLE_THREADED
        Core in use  :  Zen
   Copyright (c) 2011-2014, The OpenBLAS Project


Your calculation utilizes the atom-pairwise dispersion correction
based on tight binding partial charges (D4)
Cite in your paper:
E.Caldeweyher, C.Bannwarth, S.Grimme, J.Chem.Phys., (2017), 147, 034112.
E.Caldeweyher, S.Ehlert, A.Hansen, H.Neugebauer, S.Grimme, J.Chem.Phys., (2018), in progress.
   

================================================================================

----- Orbital basis set information -----
Your calculation utilizes the basis: pcJ-0
   F. Jensen, Theor. Chem. Acc. 126, 371 (2010).

----- AuxJ basis set information -----
Your calculation utilizes the auxiliary basis: def2/J
   F. Weigend, Phys. Chem. Chem. Phys. 8, 1057 (2006).

================================================================================
                                        WARNINGS
                       Please study these warnings very carefully!
================================================================================


INFO   : the flag for use of the SHARK integral package has been found!

================================================================================
                                       INPUT FILE
================================================================================
NAME = inpJ
|  1> ! pbe0
|  2> ! D4
|  3> ! pcJ-0
|  4> ! def2/J RIJCOSX
|  5> ! DEFGRID2
|  6> ! scfconv7
|  7> ! smallprint printgap noloewdin
|  8> ! NOSOSCF
|  9> %MaxCore 4000
| 10> %output
| 11>        print[P_BondOrder_M] 1
| 12>        print[P_Mayer] 1
| 13>        print[P_basis] 2
| 14> end
| 15> %pal
| 16>     nprocs 4
| 17> end
| 18> ! CPCM(chloroform)
| 19> *xyz 0 1
| 20> C   -5.0516992600   0.3152708800   0.3181971200
| 21> C   -6.4658130800  -0.0792751000  -0.0372494200
| 22> C   -7.0039495400   0.7367043100  -1.2189554700
| 23> H   -7.1275913100   0.1177204600   0.8233337300
| 24> H   -6.5234458800  -1.1493577700  -0.2649682000
| 25> C   -4.8529720000   1.7703467300   0.4884143300
| 26> C   -5.4343420900   2.6150098400  -0.6228408400
| 27> C   -6.8879049100   2.2288551100  -0.9283482500
| 28> H   -4.8343677600   2.4537028700  -1.5313143200
| 29> H   -5.3622999700   3.6775610500  -0.3678662600
| 30> H   -7.2614157900   2.8022345000  -1.7849406700
| 31> H   -7.5236201700   2.4692575700  -0.0627825500
| 32> O   -8.3491457100   0.3591106000  -1.5406446700
| 33> H   -6.4199045900   0.4935495600  -2.1176059700
| 34> C   -4.0739717900  -0.6163990200   0.4167798600
| 35> C   -4.2521630200   2.3116015600   1.5543325900
| 36> H   -3.8632153100   1.6941943600   2.3592625200
| 37> H   -4.1464472400   3.3897481500   1.6487943700
| 38> C   -2.6713627200  -0.3665885900   0.6560466400
| 39> H   -4.3781153800  -1.6503191400   0.2593704800
| 40> C   -1.7101580800  -1.2980158700   0.8350623400
| 41> H   -2.3728077600   0.6788982600   0.6830918800
| 42> C   -1.9272512800  -2.7895756600   0.8787122800
| 43> C   -0.9919160900  -3.5332611300  -0.0930539500
| 44> H   -2.9665720900  -3.0641848800   0.6789231800
| 45> H   -1.7000207200  -3.1309598300   1.9014150100
| 46> C    0.4785183100  -3.1267725400   0.0739095900
| 47> H   -1.3163182500  -3.3369208000  -1.1228296500
| 48> H   -1.0944187700  -4.6138833800   0.0649844500
| 49> C    0.6648497500  -1.6068113400  -0.0296152300
| 50> H    1.0801787000  -3.6539215200  -0.6737349600
| 51> H    0.8347746500  -3.4546108200   1.0622580700
| 52> C   -0.2674391900  -0.9472265500   1.0352219800
| 53> H    0.0340838400  -1.4138698800   1.9914251400
| 54> C    0.1900217500   0.5078242000   1.0832177000
| 55> H   -8.9009747400   0.5652569500  -0.7742805300
| 56> C    1.7210360300   0.4144427500   0.8699204400
| 57> H   -0.0806545300   0.9936221800   2.0266322200
| 58> H   -0.2742764200   1.0870029300   0.2771747200
| 59> C    2.0362493500  -1.0509544100   0.4442712700
| 60> H    2.2779230100   0.6819555500   1.7737149300
| 61> H    2.0506292800   1.1097705400   0.0890017900
| 62> H    2.3099140900  -1.6251751100   1.3449669800
| 63> C    3.2412585700  -1.1142360100  -0.5164552600
| 64> C    0.3307731500  -1.1053510000  -1.4412320800
| 65> H   -0.7331385500  -1.2250356800  -1.6680583900
| 66> H    0.9009891900  -1.6618765200  -2.1934066000
| 67> H    0.5722838400  -0.0443925200  -1.5603758300
| 68> H    3.0003594400  -0.5254436200  -1.4141441700
| 69> C    3.6049311000  -2.5431175800  -0.9466670100
| 70> C    4.4344818000  -0.4789852000   0.1487174000
| 71> C    5.0842652300   0.5846102600  -0.3226049900
| 72> H    4.7486126100  -0.9609450800   1.0736204700
| 73> H    4.7144812100   1.0119148600  -1.2604521100
| 74> C    6.2879031600   1.3156176200   0.2199154800
| 75> C    7.4141509100   1.2617474100  -0.8289456200
| 76> C    6.8063880300   0.9597126400   1.6323793800
| 77> H    5.9816316100   2.3740872300   0.2847763500
| 78> H    7.6066124800   1.6937087900   1.8175238200
| 79> C    7.4579150000  -0.4227354200   1.7572655400
| 80> C    5.7525100600   1.1855842600   2.7226535600
| 81> H    7.0812924100   1.6969238800  -1.7773483300
| 82> H    7.7193952500   0.2291536700  -1.0278324000
| 83> H    8.2919221800   1.8217183900  -0.4858726400
| 84> H    7.8573710400  -0.5534943700   2.7695129400
| 85> H    8.2910980900  -0.5410284100   1.0574204400
| 86> H    6.7512385300  -1.2371944200   1.5742446700
| 87> H    4.9649876300   0.4271060900   2.7000060500
| 88> H    5.2741146000   2.1652145900   2.6076186100
| 89> H    6.2180933900   1.1510679200   3.7140909600
| 90> H    4.5392156500  -2.5394998700  -1.5182945100
| 91> H    2.8287045600  -2.9873284600  -1.5748467300
| 92> H    3.7455328700  -3.1884782500  -0.0707912400
| 93> *
| 94> %eprnmr
| 95>  Nuclei = all H { ssfc }
| 96>  SpinSpinRThresh 8.0
| 97> end
| 98> 
| 99>                          ****END OF INPUT****
================================================================================

                       ****************************
                       * Single Point Calculation *
                       ****************************

---------------------------------
CARTESIAN COORDINATES (ANGSTROEM)
---------------------------------
  C     -5.051699    0.315271    0.318197
  C     -6.465813   -0.079275   -0.037249
  C     -7.003950    0.736704   -1.218955
  H     -7.127591    0.117720    0.823334
  H     -6.523446   -1.149358   -0.264968
  C     -4.852972    1.770347    0.488414
  C     -5.434342    2.615010   -0.622841
  C     -6.887905    2.228855   -0.928348
  H     -4.834368    2.453703   -1.531314
  H     -5.362300    3.677561   -0.367866
  H     -7.261416    2.802234   -1.784941
  H     -7.523620    2.469258   -0.062783
  O     -8.349146    0.359111   -1.540645
  H     -6.419905    0.493550   -2.117606
  C     -4.073972   -0.616399    0.416780
  C     -4.252163    2.311602    1.554333
  H     -3.863215    1.694194    2.359263
  H     -4.146447    3.389748    1.648794
  C     -2.671363   -0.366589    0.656047
  H     -4.378115   -1.650319    0.259370
  C     -1.710158   -1.298016    0.835062
  H     -2.372808    0.678898    0.683092
  C     -1.927251   -2.789576    0.878712
  C     -0.991916   -3.533261   -0.093054
  H     -2.966572   -3.064185    0.678923
  H     -1.700021   -3.130960    1.901415
  C      0.478518   -3.126773    0.073910
  H     -1.316318   -3.336921   -1.122830
  H     -1.094419   -4.613883    0.064984
  C      0.664850   -1.606811   -0.029615
  H      1.080179   -3.653922   -0.673735
  H      0.834775   -3.454611    1.062258
  C     -0.267439   -0.947227    1.035222
  H      0.034084   -1.413870    1.991425
  C      0.190022    0.507824    1.083218
  H     -8.900975    0.565257   -0.774281
  C      1.721036    0.414443    0.869920
  H     -0.080655    0.993622    2.026632
  H     -0.274276    1.087003    0.277175
  C      2.036249   -1.050954    0.444271
  H      2.277923    0.681956    1.773715
  H      2.050629    1.109771    0.089002
  H      2.309914   -1.625175    1.344967
  C      3.241259   -1.114236   -0.516455
  C      0.330773   -1.105351   -1.441232
  H     -0.733139   -1.225036   -1.668058
  H      0.900989   -1.661877   -2.193407
  H      0.572284   -0.044393   -1.560376
  H      3.000359   -0.525444   -1.414144
  C      3.604931   -2.543118   -0.946667
  C      4.434482   -0.478985    0.148717
  C      5.084265    0.584610   -0.322605
  H      4.748613   -0.960945    1.073620
  H      4.714481    1.011915   -1.260452
  C      6.287903    1.315618    0.219915
  C      7.414151    1.261747   -0.828946
  C      6.806388    0.959713    1.632379
  H      5.981632    2.374087    0.284776
  H      7.606612    1.693709    1.817524
  C      7.457915   -0.422735    1.757266
  C      5.752510    1.185584    2.722654
  H      7.081292    1.696924   -1.777348
  H      7.719395    0.229154   -1.027832
  H      8.291922    1.821718   -0.485873
  H      7.857371   -0.553494    2.769513
  H      8.291098   -0.541028    1.057420
  H      6.751239   -1.237194    1.574245
  H      4.964988    0.427106    2.700006
  H      5.274115    2.165215    2.607619
  H      6.218093    1.151068    3.714091
  H      4.539216   -2.539500   -1.518295
  H      2.828705   -2.987328   -1.574847
  H      3.745533   -3.188478   -0.070791

----------------------------
CARTESIAN COORDINATES (A.U.)
----------------------------
  NO LB      ZA    FRAG     MASS         X           Y           Z
   0 C     6.0000    0    12.011   -9.546328    0.595776    0.601305
   1 C     6.0000    0    12.011  -12.218616   -0.149808   -0.070391
   2 C     6.0000    0    12.011  -13.235546    1.392169   -2.303492
   3 H     1.0000    0     1.008  -13.469196    0.222459    1.555875
   4 H     1.0000    0     1.008  -12.327526   -2.171971   -0.500717
   5 C     6.0000    0    12.011   -9.170788    3.345470    0.922969
   6 C     6.0000    0    12.011  -10.269418    4.941652   -1.176999
   7 C     6.0000    0    12.011  -13.016254    4.211926   -1.754324
   8 H     1.0000    0     1.008   -9.135631    4.636826   -2.893765
   9 H     1.0000    0     1.008  -10.133278    6.949583   -0.695166
  10 H     1.0000    0     1.008  -13.722087    5.295456   -3.373049
  11 H     1.0000    0     1.008  -14.217582    4.666221   -0.118642
  12 O     8.0000    0    15.999  -15.777599    0.678621   -2.911396
  13 H     1.0000    0     1.008  -12.131861    0.932674   -4.001695
  14 C     6.0000    0    12.011   -7.698691   -1.164825    0.787600
  15 C     6.0000    0    12.011   -8.035424    4.368294    2.937263
  16 H     1.0000    0     1.008   -7.300419    3.201563    4.458360
  17 H     1.0000    0     1.008   -7.835650    6.405696    3.115770
  18 C     6.0000    0    12.011   -5.048144   -0.692752    1.239748
  19 H     1.0000    0     1.008   -8.273439   -3.118651    0.490139
  20 C     6.0000    0    12.011   -3.231730   -2.452895    1.578039
  21 H     1.0000    0     1.008   -4.483957    1.282932    1.290857
  22 C     6.0000    0    12.011   -3.641977   -5.271534    1.660526
  23 C     6.0000    0    12.011   -1.874450   -6.676896   -0.175846
  24 H     1.0000    0     1.008   -5.606009   -5.790470    1.282979
  25 H     1.0000    0     1.008   -3.212574   -5.916657    3.593154
  26 C     6.0000    0    12.011    0.904269   -5.908744    0.139669
  27 H     1.0000    0     1.008   -2.487481   -6.305866   -2.121841
  28 H     1.0000    0     1.008   -2.068152   -8.718976    0.122803
  29 C     6.0000    0    12.011    1.256384   -3.036433   -0.055965
  30 H     1.0000    0     1.008    2.041242   -6.904911   -1.273175
  31 H     1.0000    0     1.008    1.577495   -6.528268    2.007377
  32 C     6.0000    0    12.011   -0.505387   -1.789999    1.956286
  33 H     1.0000    0     1.008    0.064409   -2.671827    3.763248
  34 C     6.0000    0    12.011    0.359089    0.959649    2.046985
  35 H     1.0000    0     1.008  -16.820405    1.068181   -1.463178
  36 C     6.0000    0    12.011    3.252287    0.783183    1.643911
  37 H     1.0000    0     1.008   -0.152415    1.877674    3.829780
  38 H     1.0000    0     1.008   -0.518307    2.054138    0.523784
  39 C     6.0000    0    12.011    3.847954   -1.986016    0.839551
  40 H     1.0000    0     1.008    4.304651    1.288709    3.351835
  41 H     1.0000    0     1.008    3.875128    2.097162    0.168189
  42 H     1.0000    0     1.008    4.365105   -3.071136    2.541619
  43 C     6.0000    0    12.011    6.125091   -2.105601   -0.975959
  44 C     6.0000    0    12.011    0.625071   -2.088811   -2.723534
  45 H     1.0000    0     1.008   -1.385431   -2.314982   -3.152174
  46 H     1.0000    0     1.008    1.702623   -3.140491   -4.144938
  47 H     1.0000    0     1.008    1.081460   -0.083890   -2.948683
  48 H     1.0000    0     1.008    5.669858   -0.992945   -2.672345
  49 C     6.0000    0    12.011    6.812333   -4.805796   -1.788941
  50 C     6.0000    0    12.011    8.379956   -0.905151    0.281035
  51 C     6.0000    0    12.011    9.607869    1.104753   -0.609635
  52 H     1.0000    0     1.008    8.973577   -1.815923    2.028849
  53 H     1.0000    0     1.008    8.909078    1.912242   -2.381909
  54 C     6.0000    0    12.011   11.882415    2.486157    0.415580
  55 C     6.0000    0    12.011   14.010715    2.384357   -1.566480
  56 C     6.0000    0    12.011   12.862209    1.813594    3.084750
  57 H     1.0000    0     1.008   11.303646    4.486375    0.538149
  58 H     1.0000    0     1.008   14.374414    3.200646    3.434622
  59 C     6.0000    0    12.011   14.093417   -0.798854    3.320751
  60 C     6.0000    0    12.011   10.870669    2.240430    5.145070
  61 H     1.0000    0     1.008   13.381703    3.206721   -3.358702
  62 H     1.0000    0     1.008   14.587543    0.433038   -1.942322
  63 H     1.0000    0     1.008   15.669462    3.442549   -0.918166
  64 H     1.0000    0     1.008   14.848279   -1.045953    5.233621
  65 H     1.0000    0     1.008   15.667905   -1.022396    1.998235
  66 H     1.0000    0     1.008   12.757992   -2.337959    2.974891
  67 H     1.0000    0     1.008    9.382467    0.807114    5.102272
  68 H     1.0000    0     1.008    9.966632    4.091663    4.927685
  69 H     1.0000    0     1.008   11.750494    2.175203    7.018615
  70 H     1.0000    0     1.008    8.577874   -4.798959   -2.869161
  71 H     1.0000    0     1.008    5.345477   -5.645233   -2.976029
  72 H     1.0000    0     1.008    7.078031   -6.025351   -0.133776

--------------------------------
INTERNAL COORDINATES (ANGSTROEM)
--------------------------------
 C      0   0   0     0.000000000000     0.00000000     0.00000000
 C      1   0   0     1.510538536101     0.00000000     0.00000000
 C      2   1   0     1.533571790211   111.76796753     0.00000000
 H      2   1   3     1.103340851426   109.34978233   241.47609576
 H      2   1   3     1.095561181785   110.68804383   122.91394416
 C      1   2   3     1.478415419191   114.20503144    50.40763764
 C      6   1   2     1.512063161311   114.42484420   312.07660306
 C      3   2   1     1.524609104790   110.31397366   305.07571849
 H      7   6   1     1.100596746812   108.37077389   290.05571996
 H      7   6   1     1.095087748709   110.21893938   172.82759086
 H      8   3   2     1.096368950836   109.69368064   179.16959026
 H      8   3   2     1.100514068782   108.64749235   296.61863740
 O      3   2   1     1.433741150630   111.22270484   180.38030388
 H      3   2   1     1.099002027850   109.01882310    65.20867238
 C      1   2   3     1.354133806086   120.88819378   232.50077433
 C      6   1   2     1.337949908796   123.38353778   129.84050065
 H     16   6   1     1.086454860515   121.40678854     0.67171629
 H     16   6   1     1.087427663594   120.92718336   181.35063944
 C     15   1   2     1.444633533528   126.44928658   175.40245846
 H     15   1   2     1.089161076605   116.16628568   358.00870422
 C     19  15   1     1.350376895068   126.42573664   175.67899560
 H     19  15   1     1.087616321443   115.90382724   355.08218317
 C     21  19  15     1.507907617161   125.70659923   357.19314634
 C     23  21  19     1.540210895206   111.83397863   128.05188349
 H     23  21  19     1.093395470215   112.33307451     3.90109726
 H     23  21  19     1.101861040637   107.67659087   246.67611537
 C     24  23  21     1.534694471937   112.66356799    50.91162783
 H     24  23  21     1.097371531847   109.03553683   288.80665758
 H     24  23  21     1.096917217695   109.14892261   172.85282050
 C     27  24  23     1.534835119286   111.79455446   306.10912788
 H     27  24  23     1.094921752983   108.94655166   182.62119485
 H     27  24  23     1.100558601594   109.20518985    66.10776304
 C     21  19  15     1.498183841881   122.79690808   177.99728441
 H     33  21  19     1.105891775106   106.21700345   123.75390422
 C     33  21  19     1.526023193087   121.07306067     1.61168058
 H     13   3   2     0.966605188817   107.55250522    62.79734918
 C     35  33  21     1.548618914353   103.56439775   196.46915092
 H     35  33  21     1.095123866270   112.08433453    74.42459507
 H     35  33  21     1.095776472442   110.72109524   314.86843883
 C     30  27  24     1.553796062677   116.15835671   166.35827630
 H     37  35  33     1.094774262947   111.99054996   248.95964683
 H     37  35  33     1.096333153704   110.92089845   130.41638260
 H     40  30  27     1.102667023285   106.37230674   320.54525119
 C     40  30  27     1.542416042003   119.00556516    81.38855256
 C     30  27  24     1.534839333111   111.04878356   294.21412005
 H     45  30  27     1.094386907328   111.49954744    66.66355697
 H     45  30  27     1.095734226545   110.61791061   306.53249690
 H     45  30  27     1.094602915596   111.63914336   186.71393322
 H     44  40  30     1.100251902290   108.37214795    60.91440315
 C     44  40  30     1.535917445698   113.42935334   300.06797386
 C     44  40  30     1.506578884702   109.05347460   178.17564412
 C     51  44  40     1.332515892495   124.51359175   240.49650376
 H     51  44  40     1.089224118635   114.62939420    60.62355555
 H     52  51  44     1.094936830653   116.72911727   359.79539025
 C     52  51  44     1.509120434981   130.42156378   180.61131658
 C     55  52  51     1.539949869638   108.75444592   120.06574455
 C     55  52  51     1.546140091975   118.97129826   350.77109841
 H     55  52  51     1.103796679688   105.32666248   233.38329434
 H     57  55  52     1.101538915452   104.10944669   185.52918373
 C     57  55  52     1.533377508703   115.11401831    69.75413708
 C     57  55  52     1.533093132183   112.65865005   300.34278755
 H     56  55  52     1.095281261320   110.70799650    57.57678008
 H     56  55  52     1.094979401746   111.13569536   298.07675546
 H     56  55  52     1.096243116505   110.76765801   177.53448342
 H     60  57  55     1.096041892313   109.73265610   175.86886921
 H     60  57  55     1.094518367566   111.64212612    56.82785251
 H     60  57  55     1.093723792732   112.53241901   295.55400970
 H     61  57  55     1.093614933068   112.21656863    73.23549373
 H     61  57  55     1.096253090908   110.91703877   312.77835678
 H     61  57  55     1.095859175725   110.28558792   193.21669867
 H     50  44  40     1.095289325681   110.18690098   187.33846197
 H     50  44  40     1.092913861167   111.77409505    67.38351585
 H     50  44  40     1.097003927333   110.73244826   306.78035771

---------------------------
INTERNAL COORDINATES (A.U.)
---------------------------
 C      0   0   0     0.000000000000     0.00000000     0.00000000
 C      1   0   0     2.854504147966     0.00000000     0.00000000
 C      2   1   0     2.898030690207   111.76796753     0.00000000
 H      2   1   3     2.085012041563   109.34978233   241.47609576
 H      2   1   3     2.070310596529   110.68804383   122.91394416
 C      1   2   3     2.793800254437   114.20503144    50.40763764
 C      6   1   2     2.857385272069   114.42484420   312.07660306
 C      3   2   1     2.881093669336   110.31397366   305.07571849
 H      7   6   1     2.079826435359   108.37077389   290.05571996
 H      7   6   1     2.069415937673   110.21893938   172.82759086
 H      8   3   2     2.071837058814   109.69368064   179.16959026
 H      8   3   2     2.079670196526   108.64749235   296.61863740
 O      3   2   1     2.709378121625   111.22270484   180.38030388
 H      3   2   1     2.076812853261   109.01882310    65.20867238
 C      1   2   3     2.558942042187   120.88819378   232.50077433
 C      6   1   2     2.528358908530   123.38353778   129.84050065
 H     16   6   1     2.053102143240   121.40678854     0.67171629
 H     16   6   1     2.054940474643   120.92718336   181.35063944
 C     15   1   2     2.729961742248   126.44928658   175.40245846
 H     15   1   2     2.058216150510   116.16628568   358.00870422
 C     19  15   1     2.551842509253   126.42573664   175.67899560
 H     19  15   1     2.055296986311   115.90382724   355.08218317
 C     21  19  15     2.849532431689   125.70659923   357.19314634
 C     23  21  19     2.910576780420   111.83397863   128.05188349
 H     23  21  19     2.066217994777   112.33307451     3.90109726
 H     23  21  19     2.082215604442   107.67659087   246.67611537
 C     24  23  21     2.900152251203   112.66356799    50.91162783
 H     24  23  21     2.073731662352   109.03553683   288.80665758
 H     24  23  21     2.072873133027   109.14892261   172.85282050
 C     27  24  23     2.900418036175   111.79455446   306.10912788
 H     27  24  23     2.069102251210   108.94655166   182.62119485
 H     27  24  23     2.079754351343   109.20518985    66.10776304
 C     21  19  15     2.831157159421   122.79690808   177.99728441
 H     33  21  19     2.089832588707   106.21700345   123.75390422
 C     33  21  19     2.883765908947   121.07306067     1.61168058
 H     13   3   2     1.826619086490   107.55250522    62.79734918
 C     35  33  21     2.926465633937   103.56439775   196.46915092
 H     35  33  21     2.069484189971   112.08433453    74.42459507
 H     35  33  21     2.070717436909   110.72109524   314.86843883
 C     30  27  24     2.936249026425   116.15835671   166.35827630
 H     37  35  33     2.068823535436   111.99054996   248.95964683
 H     37  35  33     2.071769412038   110.92089845   130.41638260
 H     40  30  27     2.083738690915   106.37230674   320.54525119
 C     40  30  27     2.914743903953   119.00556516    81.38855256
 C     30  27  24     2.900425999150   111.04878356   294.21412005
 H     45  30  27     2.068091539400   111.49954744    66.66355697
 H     45  30  27     2.070637603734   110.61791061   306.53249690
 H     45  30  27     2.068499735869   111.63914336   186.71393322
 H     44  40  30     2.079174773655   108.37214795    60.91440315
 C     44  40  30     2.902463336682   113.42935334   300.06797386
 C     44  40  30     2.847021491235   109.05347460   178.17564412
 C     51  44  40     2.518090105912   124.51359175   240.49650376
 H     51  44  40     2.058335282682   114.62939420    60.62355555
 H     52  51  44     2.069130743878   116.72911727   359.79539025
 C     52  51  44     2.851824325219   130.42156378   180.61131658
 C     55  52  51     2.910083513584   108.75444592   120.06574455
 C     55  52  51     2.921781338508   118.97129826   350.77109841
 H     55  52  51     2.085873432142   105.32666248   233.38329434
 H     57  55  52     2.081606876061   104.10944669   185.52918373
 C     57  55  52     2.897663551362   115.11401831    69.75413708
 C     57  55  52     2.897126157622   112.65865005   300.34278755
 H     56  55  52     2.069781623511   110.70799650    57.57678008
 H     56  55  52     2.069211191585   111.13569536   298.07675546
 H     56  55  52     2.071599266392   110.76765801   177.53448342
 H     60  57  55     2.071219007776   109.73265610   175.86886921
 H     60  57  55     2.068339963246   111.64212612    56.82785251
 H     60  57  55     2.066838434417   112.53241901   295.55400970
 H     61  57  55     2.066632719465   112.21656863    73.23549373
 H     61  57  55     2.071618115281   110.91703877   312.77835678
 H     61  57  55     2.070873723464   110.28558792   193.21669867
 H     50  44  40     2.069796862944   110.18690098   187.33846197
 H     50  44  40     2.065307885571   111.77409505    67.38351585
 H     50  44  40     2.073036990495   110.73244826   306.78035771

---------------------
BASIS SET INFORMATION
---------------------
There are 3 groups of distinct atoms

 Group   1 Type C   : 7s4p contracted to 4s3p pattern {4111/211}
 Group   2 Type H   : 5s contracted to 3s pattern {311}
 Group   3 Type O   : 7s4p contracted to 4s3p pattern {4111/211}

Atom   0C    basis set group =>   1
Atom   1C    basis set group =>   1
Atom   2C    basis set group =>   1
Atom   3H    basis set group =>   2
Atom   4H    basis set group =>   2
Atom   5C    basis set group =>   1
Atom   6C    basis set group =>   1
Atom   7C    basis set group =>   1
Atom   8H    basis set group =>   2
Atom   9H    basis set group =>   2
Atom  10H    basis set group =>   2
Atom  11H    basis set group =>   2
Atom  12O    basis set group =>   3
Atom  13H    basis set group =>   2
Atom  14C    basis set group =>   1
Atom  15C    basis set group =>   1
Atom  16H    basis set group =>   2
Atom  17H    basis set group =>   2
Atom  18C    basis set group =>   1
Atom  19H    basis set group =>   2
Atom  20C    basis set group =>   1
Atom  21H    basis set group =>   2
Atom  22C    basis set group =>   1
Atom  23C    basis set group =>   1
Atom  24H    basis set group =>   2
Atom  25H    basis set group =>   2
Atom  26C    basis set group =>   1
Atom  27H    basis set group =>   2
Atom  28H    basis set group =>   2
Atom  29C    basis set group =>   1
Atom  30H    basis set group =>   2
Atom  31H    basis set group =>   2
Atom  32C    basis set group =>   1
Atom  33H    basis set group =>   2
Atom  34C    basis set group =>   1
Atom  35H    basis set group =>   2
Atom  36C    basis set group =>   1
Atom  37H    basis set group =>   2
Atom  38H    basis set group =>   2
Atom  39C    basis set group =>   1
Atom  40H    basis set group =>   2
Atom  41H    basis set group =>   2
Atom  42H    basis set group =>   2
Atom  43C    basis set group =>   1
Atom  44C    basis set group =>   1
Atom  45H    basis set group =>   2
Atom  46H    basis set group =>   2
Atom  47H    basis set group =>   2
Atom  48H    basis set group =>   2
Atom  49C    basis set group =>   1
Atom  50C    basis set group =>   1
Atom  51C    basis set group =>   1
Atom  52H    basis set group =>   2
Atom  53H    basis set group =>   2
Atom  54C    basis set group =>   1
Atom  55C    basis set group =>   1
Atom  56C    basis set group =>   1
Atom  57H    basis set group =>   2
Atom  58H    basis set group =>   2
Atom  59C    basis set group =>   1
Atom  60C    basis set group =>   1
Atom  61H    basis set group =>   2
Atom  62H    basis set group =>   2
Atom  63H    basis set group =>   2
Atom  64H    basis set group =>   2
Atom  65H    basis set group =>   2
Atom  66H    basis set group =>   2
Atom  67H    basis set group =>   2
Atom  68H    basis set group =>   2
Atom  69H    basis set group =>   2
Atom  70H    basis set group =>   2
Atom  71H    basis set group =>   2
Atom  72H    basis set group =>   2

-------------------------
BASIS SET IN INPUT FORMAT
-------------------------

 # Basis set for element : H 
 NewGTO H 
 S 3 
   1    1357.7500000000      0.0012928364
   2      54.3100000000      0.0588280685
   3       4.3448000000      0.9761499708
 S 1 
   1       0.6604910000      1.0000000000
 S 1 
   1       0.1366870000      1.0000000000
  end;

 # Basis set for element : C 
 NewGTO C 
 S 4 
   1  139534.0000000000      0.0001655246
   2    5581.3600000000      0.0074486101
   3     446.5090000000      0.1285821065
   4      67.4620000000      0.9218029311
 S 1 
   1      15.0674000000      1.0000000000
 S 1 
   1       3.9387600000      1.0000000000
 S 1 
   1       0.2999150000      1.0000000000
 P 2 
   1      28.3900000000      0.0816325586
   2       4.3676900000      0.9660360576
 P 1 
   1       0.8698170000      1.0000000000
 P 1 
   1       0.1889340000      1.0000000000
  end;

 # Basis set for element : O 
 NewGTO O 
 S 4 
   1  253789.0000000000      0.0001641076
   2   10151.6000000000      0.0074010921
   3     812.1250000000      0.1277711901
   4     122.6930000000      0.9223372164
 S 1 
   1      27.5608000000      1.0000000000
 S 1 
   1       7.3172600000      1.0000000000
 S 1 
   1       0.5792400000      1.0000000000
 P 2 
   1      53.4157000000      0.0793786106
   2       8.2177900000      0.9670506337
 P 1 
   1       1.6754400000      1.0000000000
 P 1 
   1       0.3506720000      1.0000000000
  end;

---------------------------------
AUXILIARY/J BASIS SET INFORMATION
---------------------------------
There are 3 groups of distinct atoms

 Group   1 Type C   : 12s5p4d2f1g contracted to 6s4p3d1f1g pattern {711111/2111/211/2/1}
 Group   2 Type H   : 5s2p1d contracted to 3s1p1d pattern {311/2/1}
 Group   3 Type O   : 12s5p4d2f1g contracted to 6s4p3d1f1g pattern {711111/2111/211/2/1}

Atom   0C    basis set group =>   1
Atom   1C    basis set group =>   1
Atom   2C    basis set group =>   1
Atom   3H    basis set group =>   2
Atom   4H    basis set group =>   2
Atom   5C    basis set group =>   1
Atom   6C    basis set group =>   1
Atom   7C    basis set group =>   1
Atom   8H    basis set group =>   2
Atom   9H    basis set group =>   2
Atom  10H    basis set group =>   2
Atom  11H    basis set group =>   2
Atom  12O    basis set group =>   3
Atom  13H    basis set group =>   2
Atom  14C    basis set group =>   1
Atom  15C    basis set group =>   1
Atom  16H    basis set group =>   2
Atom  17H    basis set group =>   2
Atom  18C    basis set group =>   1
Atom  19H    basis set group =>   2
Atom  20C    basis set group =>   1
Atom  21H    basis set group =>   2
Atom  22C    basis set group =>   1
Atom  23C    basis set group =>   1
Atom  24H    basis set group =>   2
Atom  25H    basis set group =>   2
Atom  26C    basis set group =>   1
Atom  27H    basis set group =>   2
Atom  28H    basis set group =>   2
Atom  29C    basis set group =>   1
Atom  30H    basis set group =>   2
Atom  31H    basis set group =>   2
Atom  32C    basis set group =>   1
Atom  33H    basis set group =>   2
Atom  34C    basis set group =>   1
Atom  35H    basis set group =>   2
Atom  36C    basis set group =>   1
Atom  37H    basis set group =>   2
Atom  38H    basis set group =>   2
Atom  39C    basis set group =>   1
Atom  40H    basis set group =>   2
Atom  41H    basis set group =>   2
Atom  42H    basis set group =>   2
Atom  43C    basis set group =>   1
Atom  44C    basis set group =>   1
Atom  45H    basis set group =>   2
Atom  46H    basis set group =>   2
Atom  47H    basis set group =>   2
Atom  48H    basis set group =>   2
Atom  49C    basis set group =>   1
Atom  50C    basis set group =>   1
Atom  51C    basis set group =>   1
Atom  52H    basis set group =>   2
Atom  53H    basis set group =>   2
Atom  54C    basis set group =>   1
Atom  55C    basis set group =>   1
Atom  56C    basis set group =>   1
Atom  57H    basis set group =>   2
Atom  58H    basis set group =>   2
Atom  59C    basis set group =>   1
Atom  60C    basis set group =>   1
Atom  61H    basis set group =>   2
Atom  62H    basis set group =>   2
Atom  63H    basis set group =>   2
Atom  64H    basis set group =>   2
Atom  65H    basis set group =>   2
Atom  66H    basis set group =>   2
Atom  67H    basis set group =>   2
Atom  68H    basis set group =>   2
Atom  69H    basis set group =>   2
Atom  70H    basis set group =>   2
Atom  71H    basis set group =>   2
Atom  72H    basis set group =>   2

-------------------------------------
AUXILIARY/J BASIS SET IN INPUT FORMAT
-------------------------------------

 # Auxiliary/J basis set for element : H 
 NewAuxJGTO H 
 S 3 
   1      15.6752927000      0.1007184237
   2       3.6063578000      0.3404257499
   3       1.2080016000      0.6491996172
 S 1 
   1       0.4726794000      1.0000000000
 S 1 
   1       0.2018100000      1.0000000000
 P 2 
   1       2.0281365000      0.5596620919
   2       0.5358730000      0.5596620919
 D 1 
   1       2.2165124000      1.0000000000
  end;

 # Auxiliary/J basis set for element : C 
 NewAuxJGTO C 
 S 7 
   1    1861.0916331000      0.0134602335
   2     642.9939764000      0.0299160374
   3     235.1105725000      0.1008649584
   4      90.7028894000      0.2370970548
   5      36.7794552000      0.3924037254
   6      15.6046273000      0.3195862154
   7       6.8907294000      0.0530104441
 S 1 
   1       3.1478850000     -1.0000000000
 S 1 
   1       1.4777287000      1.0000000000
 S 1 
   1       0.7076466000      1.0000000000
 S 1 
   1       0.3430122000      1.0000000000
 S 1 
   1       0.1669453000      1.0000000000
 P 2 
   1      13.5472892000     -0.6769313712
   2       5.4669419000     -0.3779500978
 P 1 
   1       2.1751721000      1.0000000000
 P 1 
   1       0.8582194000      1.0000000000
 P 1 
   1       0.3376720000      1.0000000000
 D 2 
   1       5.9287253000     -0.3533329857
   2       1.9809209000     -0.7456525731
 D 1 
   1       0.8055417000     -1.0000000000
 D 1 
   1       0.3531244000     -1.0000000000
 F 2 
   1       1.6755626000      0.6311076882
   2       0.5997536000      0.4968166032
 G 1 
   1       1.0024600000     -1.0000000000
  end;

 # Auxiliary/J basis set for element : O 
 NewAuxJGTO O 
 S 7 
   1    2876.8216605000      0.0168151159
   2    1004.7443032000      0.0340137548
   3     369.7579954000      0.1194951309
   4     142.9442404000      0.2664627624
   5      57.8366425000      0.4202764046
   6      24.3864983000      0.2765077335
   7      10.6622662000      0.0057008815
 S 1 
   1       4.8070437000     -1.0000000000
 S 1 
   1       2.2210770000      1.0000000000
 S 1 
   1       1.0447795000      1.0000000000
 S 1 
   1       0.4968425000      1.0000000000
 S 1 
   1       0.2371384000      1.0000000000
 P 2 
   1      64.2613382000     -0.2731534179
   2      16.3006076000     -0.8168011598
 P 1 
   1       4.3550542000      1.0000000000
 P 1 
   1       1.2019554000      1.0000000000
 P 1 
   1       0.3354196000      1.0000000000
 D 2 
   1       9.2146611000     -0.4661230638
   2       2.8435251000     -0.6600908911
 D 1 
   1       0.9955759000     -1.0000000000
 D 1 
   1       0.3649441000     -1.0000000000
 F 2 
   1       2.6420115000      0.5931563945
   2       0.7345613000      0.5931563945
 G 1 
   1       1.3931000000     -1.0000000000
  end;



           ************************************************************
           *        Program running with 4 parallel MPI-processes     *
           *              working on a common directory               *
           ************************************************************
------------------------------------------------------------------------------
                           ORCA GTO INTEGRAL CALCULATION
                           -- RI-GTO INTEGRALS CHOSEN --
------------------------------------------------------------------------------
------------------------------------------------------------------------------
                   ___                                                        
                  /   \      - P O W E R E D   B Y -                         
                 /     \                                                     
                 |  |  |   _    _      __       _____    __    __             
                 |  |  |  | |  | |    /  \     |  _  \  |  |  /  |          
                  \  \/   | |  | |   /    \    | | | |  |  | /  /          
                 / \  \   | |__| |  /  /\  \   | |_| |  |  |/  /          
                |  |  |   |  __  | /  /__\  \  |    /   |      \           
                |  |  |   | |  | | |   __   |  |    \   |  |\   \          
                \     /   | |  | | |  |  |  |  | |\  \  |  | \   \       
                 \___/    |_|  |_| |__|  |__|  |_| \__\ |__|  \__/        
                                                                              
                      - O R C A' S   B I G   F R I E N D -                    
                                      &                                       
                       - I N T E G R A L  F E E D E R -                       
                                                                              
 v1 FN, 2020, v2 2021                                                         
------------------------------------------------------------------------------


Reading SHARK input file inpJ.SHARKINP.tmp ... ok
----------------------
SHARK INTEGRAL PACKAGE
----------------------

Number of atoms                             ...     73
Number of basis functions                   ...    509
Number of shells                            ...    335
Maximum angular momentum                    ...      1
Integral batch strategy                     ... SHARK/LIBINT Hybrid
RI-J (if used) integral strategy            ... SPLIT-RIJ (Revised 2003 algorithm where possible)
Printlevel                                  ...      1
Contraction scheme used                     ... SEGMENTED contraction
Coulomb Range Separation                    ... NOT USED
Exchange Range Separation                   ... NOT USED
Finite Nucleus Model                        ... NOT USED
Auxiliary Coulomb fitting basis             ... AVAILABLE
   # of basis functions in Aux-J            ...   1905
   # of shells in Aux-J                     ...    655
   Maximum angular momentum in Aux-J        ...      4
Auxiliary J/K fitting basis                 ... NOT available
Auxiliary Correlation fitting basis         ... NOT available
Auxiliary 'external' fitting basis          ... NOT available
Integral threshold                          ...     3.000000e-11
Primitive cut-off                           ...     1.000000e-12
Primitive pair pre-selection threshold      ...     1.000000e-12

Calculating pre-screening integrals         ... done (  0.0 sec) Dimension = 335
Organizing shell pair data                  ... done (  0.1 sec)
Shell pair information
Total number of shell pairs                 ...     56280
Shell pairs after pre-screening             ...     21868
Total number of primitive shell pairs       ...    145865
Primitive shell pairs kept                  ...     37556
          la=0 lb=0:  11014 shell pairs
          la=1 lb=0:   8985 shell pairs
          la=1 lb=1:   1869 shell pairs

Calculating one electron integrals          ... done (  0.0 sec)
Calculating RI/J V-Matrix + Cholesky decomp.... done (  0.2 sec)
Calculating Nuclear repulsion               ... done (  0.0 sec) ENN=   2776.082974179149 Eh

SHARK setup successfully completed in   0.5 seconds

Maximum memory used throughout the entire GTOINT-calculation: 46.3 MB


           ************************************************************
           *        Program running with 4 parallel MPI-processes     *
           *              working on a common directory               *
           ************************************************************
-------------------------------------------------------------------------------
                                 ORCA SCF
-------------------------------------------------------------------------------

------------
SCF SETTINGS
------------
Hamiltonian:
 Density Functional     Method          .... DFT(GTOs)
 Exchange Functional    Exchange        .... PBE
   PBE kappa parameter   XKappa         ....  0.804000
   PBE mue parameter    XMuePBE         ....  0.219520
 Correlation Functional Correlation     .... PBE
   PBE beta parameter  CBetaPBE         ....  0.066725
 LDA part of GGA corr.  LDAOpt          .... PW91-LDA
 Gradients option       PostSCFGGA      .... off
 Hybrid DFT is turned on
   Fraction HF Exchange ScalHFX         ....  0.250000
   Scaling of DF-GGA-X  ScalDFX         ....  0.750000
   Scaling of DF-GGA-C  ScalDFC         ....  1.000000
   Scaling of DF-LDA-C  ScalLDAC        ....  1.000000
   Perturbative correction              ....  0.000000
   Density functional embedding theory  .... OFF
   NL short-range parameter             ....  6.900000
 RI-approximation to the Coulomb term is turned on
   Number of AuxJ basis functions       .... 1905
   RIJ-COSX (HFX calculated with COS-X)).... on


General Settings:
 Integral files         IntName         .... inpJ
 Hartree-Fock type      HFTyp           .... RHF
 Total Charge           Charge          ....    0
 Multiplicity           Mult            ....    1
 Number of Electrons    NEL             ....  220
 Basis Dimension        Dim             ....  509
 Nuclear Repulsion      ENuc            ....   2776.0829741791 Eh

Convergence Acceleration:
 DIIS                   CNVDIIS         .... on
   Start iteration      DIISMaxIt       ....    12
   Startup error        DIISStart       ....  0.200000
   # of expansion vecs  DIISMaxEq       ....     5
   Bias factor          DIISBfac        ....   1.050
   Max. coefficient     DIISMaxC        ....  10.000
 Trust-Rad. Augm. Hess. CNVTRAH         .... auto
   Auto Start mean grad. ratio tolernc. ....  1.125000
   Auto Start start iteration           ....    20
   Auto Start num. interpolation iter.  ....    10
   Max. Number of Micro iterations      ....    16
   Max. Number of Macro iterations      .... Maxiter - #DIIS iter
   Number of Davidson start vectors     ....     2
   Converg. threshold I  (grad. norm)   ....   1.000e-04
   Converg. threshold II (energy diff.) ....   1.000e-07
   Grad. Scal. Fac. for Micro threshold ....   0.100
   Minimum threshold for Micro iter.    ....   0.010
   NR start threshold (gradient norm)   ....   0.001
   Initial trust radius                 ....   0.400
   Minimum AH scaling param. (alpha)    ....   1.000
   Maximum AH scaling param. (alpha)    .... 1000.000
   Orbital update algorithm             .... Taylor
   White noise on init. David. guess    .... on
   Maximum white noise                  ....   0.010
   Quad. conv. algorithm                .... NR
 SOSCF                  CNVSOSCF        .... off
 Level Shifting         CNVShift        .... on
   Level shift para.    LevelShift      ....    0.2500
   Turn off err/grad.   ShiftErr        ....    0.0010
 Zerner damping         CNVZerner       .... off
 Static damping         CNVDamp         .... on
   Fraction old density DampFac         ....    0.7000
   Max. Damping (<1)    DampMax         ....    0.9800
   Min. Damping (>=0)   DampMin         ....    0.0000
   Turn off err/grad.   DampErr         ....    0.1000
 Fernandez-Rico         CNVRico         .... off

SCF Procedure:
 Maximum # iterations   MaxIter         ....   125
 SCF integral mode      SCFMode         .... Direct
   Integral package                     .... SHARK and LIBINT hybrid scheme
 Reset frequency        DirectResetFreq ....    20
 Integral Threshold     Thresh          ....  3.000e-11 Eh
 Primitive CutOff       TCut            ....  1.000e-12 Eh

Convergence Tolerance:
 Convergence Check Mode ConvCheckMode   .... Total+1el-Energy
 Convergence forced     ConvForced      .... 0
 Energy Change          TolE            ....  1.000e-07 Eh
 1-El. energy change                    ....  1.000e-04 Eh
 DIIS Error             TolErr          ....  1.000e-07


Diagonalization of the overlap matrix:
Smallest eigenvalue                        ... 7.553e-03
Time for diagonalization                   ...    0.042 sec
Threshold for overlap eigenvalues          ... 1.000e-08
Number of eigenvalues below threshold      ... 0
Time for construction of square roots      ...    0.033 sec
Total time needed                          ...    0.077 sec

Time for model grid setup =    0.775 sec

------------------------------
INITIAL GUESS: MODEL POTENTIAL
------------------------------
Loading Hartree-Fock densities                     ... done
Calculating cut-offs                               ... done
Initializing the effective Hamiltonian             ... done
Setting up the integral package (SHARK)            ... done
Starting the Coulomb interaction                   ... done (   0.4 sec)
Reading the grid                                   ... done
Mapping shells                                     ... done
Starting the XC term evaluation                    ... done (   0.2 sec)
  promolecular density results
     # of electrons  =    219.990855266
     EX              =   -164.430874399
     EC              =     -7.323879250
     EX+EC           =   -171.754753649
Transforming the Hamiltonian                       ... done (   0.0 sec)
Diagonalizing the Hamiltonian                      ... done (   0.0 sec)
Back transforming the eigenvectors                 ... done (   0.0 sec)
Now organizing SCF variables                       ... done
                      ------------------
                      INITIAL GUESS DONE (   1.4 sec)
                      ------------------
-------------------
DFT GRID GENERATION
-------------------

General Integration Accuracy     IntAcc      ... 4.388
Radial Grid Type                 RadialGrid  ... OptM3 with GC (2021)
Angular Grid (max. ang.)         AngularGrid ... 4 (Lebedev-302)
Angular grid pruning method      GridPruning ... 4 (adaptive)
Weight generation scheme         WeightScheme... Becke
Basis function cutoff            BFCut       ... 1.0000e-11
Integration weight cutoff        WCut        ... 1.0000e-14
Angular grids for H and He will be reduced by one unit
Partially contracted basis set               ... off
Rotationally invariant grid construction     ... off

Total number of grid points                  ...   309870
Total number of batches                      ...     4876
Average number of points per batch           ...       63
Average number of grid points per atom       ...     4245
Time for grid setup =    2.817 sec

--------------------
COSX GRID GENERATION
--------------------

GRIDX 1
-------
General Integration Accuracy     IntAcc      ... 3.816
Radial Grid Type                 RadialGrid  ... OptM3 with GC (2021)
Angular Grid (max. ang.)         AngularGrid ... 1 (Lebedev-50)
Angular grid pruning method      GridPruning ... 4 (adaptive)
Weight generation scheme         WeightScheme... Becke
Basis function cutoff            BFCut       ... 1.0000e-11
Integration weight cutoff        WCut        ... 1.0000e-14
Angular grids for H and He will be reduced by one unit
Partially contracted basis set               ... on
Rotationally invariant grid construction     ... off

Total number of grid points                  ...    39425
Total number of batches                      ...      657
Average number of points per batch           ...       60
Average number of grid points per atom       ...      540
UseSFitting                                  ... on

GRIDX 2
-------
General Integration Accuracy     IntAcc      ... 4.020
Radial Grid Type                 RadialGrid  ... OptM3 with GC (2021)
Angular Grid (max. ang.)         AngularGrid ... 2 (Lebedev-110)
Angular grid pruning method      GridPruning ... 4 (adaptive)
Weight generation scheme         WeightScheme... Becke
Basis function cutoff            BFCut       ... 1.0000e-11
Integration weight cutoff        WCut        ... 1.0000e-14
Angular grids for H and He will be reduced by one unit
Partially contracted basis set               ... on
Rotationally invariant grid construction     ... off

Total number of grid points                  ...    81411
Total number of batches                      ...     1310
Average number of points per batch           ...       62
Average number of grid points per atom       ...     1115
UseSFitting                                  ... on

GRIDX 3
-------
General Integration Accuracy     IntAcc      ... 4.338
Radial Grid Type                 RadialGrid  ... OptM3 with GC (2021)
Angular Grid (max. ang.)         AngularGrid ... 3 (Lebedev-194)
Angular grid pruning method      GridPruning ... 4 (adaptive)
Weight generation scheme         WeightScheme... Becke
Basis function cutoff            BFCut       ... 1.0000e-11
Integration weight cutoff        WCut        ... 1.0000e-14
Angular grids for H and He will be reduced by one unit
Partially contracted basis set               ... on
Rotationally invariant grid construction     ... off

Total number of grid points                  ...   176306
Total number of batches                      ...     2787
Average number of points per batch           ...       63
Average number of grid points per atom       ...     2415
UseSFitting                                  ... on

Time for X-Grid setup             =    2.774 sec


--------------------
CPCM SOLVATION MODEL
--------------------
CPCM parameters:
  Epsilon                                         ...       4.9000
  Refrac                                          ...       1.4500
  Rsolv                                           ...       1.3000
  Surface type                                    ... GAUSSIAN VDW
  Epsilon function type                           ...         CPCM
Radii:
 Radius for C  used is    3.8550 Bohr (=   2.0400 Ang.)
 Radius for H  used is    2.4944 Bohr (=   1.3200 Ang.)
 Radius for O  used is    3.4469 Bohr (=   1.8240 Ang.)
Calculating surface                               ...        done! (  0.0s)
GEPOL surface points                              ...         3644
GEPOL Volume                                      ...    3600.8891
GEPOL Surface-area                                ...    1789.2657
Calculating surface distance matrix               ...        done! (  0.1s)
Performing Cholesky decomposition & store         ...        done! (  0.4s)
Overall time for CPCM initialization              ...                 0.5s
--------------
SCF ITERATIONS
--------------
ITER       Energy         Delta-E        Max-DP      RMS-DP      [F,P]     Damp
               ***  Starting incremental Fock matrix formation  ***

  HOMO= 109 E= -3.881 eV LUMO=  7.793 eV gap=  11.674 eV
  0  -1165.0040022671   0.000000000000 0.09758359  0.00106150  0.1936954 0.7000

  HOMO= 109 E= -4.731 eV LUMO=  7.097 eV gap=  11.828 eV
  1  -1165.2224158919  -0.218413624790 0.06543208  0.00078192  0.0942824 0.7000
                               ***Turning on DIIS***

  HOMO= 109 E= -5.331 eV LUMO=  6.539 eV gap=  11.870 eV
  2  -1165.3232682965  -0.100852404667 0.10339679  0.00138624  0.0376739 0.0000

  HOMO= 109 E= -5.899 eV LUMO=  5.995 eV gap=  11.894 eV
  3  -1165.4674365024  -0.144168205846 0.05169892  0.00057039  0.0453822 0.0000

  HOMO= 109 E= -5.979 eV LUMO=  5.915 eV gap=  11.894 eV
  4  -1165.5029651841  -0.035528681767 0.01170392  0.00013370  0.0061444 0.0000

  HOMO= 109 E= -5.925 eV LUMO=  5.976 eV gap=  11.902 eV
  5  -1165.5038264121  -0.000861227954 0.00285056  0.00003797  0.0044200 0.0000

  HOMO= 109 E= -5.912 eV LUMO=  5.990 eV gap=  11.902 eV
  6  -1165.5039021620  -0.000075749957 0.00115956  0.00001153  0.0010885 0.0000

  HOMO= 109 E= -5.914 eV LUMO= -0.814 eV gap=   5.099 eV
  7  -1165.5039069542  -0.000004792168 0.00050957  0.00000596  0.0002311 0.0000
               *** Restarting incremental Fock matrix formation ***
                                   *** Resetting DIIS ***

  HOMO= 109 E= -5.913 eV LUMO= -0.813 eV gap=   5.100 eV
  8  -1165.5039948864  -0.000087932214 0.00041056  0.00000277  0.0001099 0.0000

  HOMO= 109 E= -5.913 eV LUMO= -0.813 eV gap=   5.100 eV
  9  -1165.5039949520  -0.000000065626 0.00013080  0.00000124  0.0001445 0.0000

  HOMO= 109 E= -5.913 eV LUMO= -0.813 eV gap=   5.100 eV
 10  -1165.5039950740  -0.000000121945 0.00006265  0.00000040  0.0000393 0.0000

  HOMO= 109 E= -5.913 eV LUMO= -0.813 eV gap=   5.100 eV
 11  -1165.5039951047  -0.000000030666 0.00002422  0.00000017  0.0000215 0.0000

  HOMO= 109 E= -5.913 eV LUMO= -0.813 eV gap=   5.100 eV
 12  -1165.5039950897   0.000000014978 0.00000702  0.00000005  0.0000036 0.0000
                 **** Energy Check signals convergence ****

               *****************************************************
               *                     SUCCESS                       *
               *           SCF CONVERGED AFTER  13 CYCLES          *
               *****************************************************

Old exchange energy                            =    -42.066699737 Eh
New exchange energy                            =    -42.066786286 Eh
Exchange energy change after final integration =     -0.000086549 Eh
Total energy after final integration           =  -1165.504081638 Eh
Final COS-X integration done in                =    13.257 sec

----------------
TOTAL SCF ENERGY
----------------

Total Energy       :        -1165.50408164 Eh          -31714.97842 eV

Components:
Nuclear Repulsion  :         2776.08297418 Eh           75541.05816 eV
Electronic Energy  :        -3941.58705582 Eh         -107256.03658 eV
One Electron Energy:        -7094.27947135 Eh         -193045.15864 eV
Two Electron Energy:         3152.69241553 Eh           85789.12206 eV
Max COSX asymmetry :            0.00000155 Eh               0.00004 eV
CPCM Dielectric    :           -0.01563693 Eh              -0.42550 eV

Virial components:
Potential Energy   :        -2322.40263203 Eh          -63195.78843 eV
Kinetic Energy     :         1156.89855039 Eh           31480.81001 eV
Virial Ratio       :            2.00743845


DFT components:
N(Alpha)           :      110.000232995625 electrons
N(Beta)            :      110.000232995625 electrons
N(Total)           :      220.000465991249 electrons
E(X)               :     -125.744420288362 Eh       
E(C)               :       -7.325453206333 Eh       
E(XC)              :     -133.069873494694 Eh       
DFET-embed. en.    :        0.000000000000 Eh       
CPCM Solvation Model Properties:
Surface-charge          :           -0.03440653
Charge-correction       :           -0.00006614 Eh              -0.00180 eV
Free-energy (cav+disp)  :  This term is not implemented in the current solvation scheme

---------------
SCF CONVERGENCE
---------------

  Last Energy change         ...    5.6616e-10  Tolerance :   1.0000e-07
  Last MAX-Density change    ...    0.0000e+00  Tolerance :   1.0000e-05
  Last RMS-Density change    ...    0.0000e+00  Tolerance :   1.0000e-06
  Last DIIS Error            ...    2.6178e-06  Tolerance :   1.0000e-07

             **** THE GBW FILE WAS UPDATED (inpJ.gbw) ****
             **** DENSITY inpJ.scfp WAS UPDATED ****
             **** ENERGY FILE WAS UPDATED (inpJ.en.tmp) ****
             **** THE GBW FILE WAS UPDATED (inpJ.gbw) ****
             **** DENSITY inpJ.scfp WAS UPDATED ****
----------------
ORBITAL ENERGIES
----------------

  NO   OCC          E(Eh)            E(eV) 
   0   2.0000     -19.214987      -522.8664 
   1   2.0000     -10.301275      -280.3120 
   2   2.0000     -10.269323      -279.4425 
   3   2.0000     -10.266544      -279.3669 
   4   2.0000     -10.261526      -279.2303 
   5   2.0000     -10.255841      -279.0756 
   6   2.0000     -10.253210      -279.0040 
   7   2.0000     -10.252623      -278.9881 
   8   2.0000     -10.249160      -278.8938 
   9   2.0000     -10.249105      -278.8923 
  10   2.0000     -10.249103      -278.8923 
  11   2.0000     -10.245971      -278.8070 
  12   2.0000     -10.244980      -278.7801 
  13   2.0000     -10.244915      -278.7783 
  14   2.0000     -10.244291      -278.7613 
  15   2.0000     -10.243803      -278.7481 
  16   2.0000     -10.242827      -278.7215 
  17   2.0000     -10.241721      -278.6914 
  18   2.0000     -10.241592      -278.6879 
  19   2.0000     -10.240896      -278.6689 
  20   2.0000     -10.238902      -278.6147 
  21   2.0000     -10.233531      -278.4685 
  22   2.0000     -10.233399      -278.4649 
  23   2.0000     -10.232090      -278.4293 
  24   2.0000     -10.227611      -278.3074 
  25   2.0000     -10.225414      -278.2477 
  26   2.0000     -10.223108      -278.1849 
  27   2.0000     -10.222985      -278.1816 
  28   2.0000     -10.220041      -278.1015 
  29   2.0000      -1.045688       -28.4546 
  30   2.0000      -0.900295       -24.4983 
  31   2.0000      -0.883488       -24.0409 
  32   2.0000      -0.858596       -23.3636 
  33   2.0000      -0.844898       -22.9908 
  34   2.0000      -0.821645       -22.3581 
  35   2.0000      -0.813233       -22.1292 
  36   2.0000      -0.794637       -21.6232 
  37   2.0000      -0.794556       -21.6210 
  38   2.0000      -0.776532       -21.1305 
  39   2.0000      -0.757253       -20.6059 
  40   2.0000      -0.741950       -20.1895 
  41   2.0000      -0.735546       -20.0152 
  42   2.0000      -0.713353       -19.4113 
  43   2.0000      -0.703374       -19.1398 
  44   2.0000      -0.698783       -19.0148 
  45   2.0000      -0.693165       -18.8620 
  46   2.0000      -0.668718       -18.1967 
  47   2.0000      -0.657089       -17.8803 
  48   2.0000      -0.631712       -17.1898 
  49   2.0000      -0.621493       -16.9117 
  50   2.0000      -0.619298       -16.8520 
  51   2.0000      -0.607942       -16.5429 
  52   2.0000      -0.596405       -16.2290 
  53   2.0000      -0.587511       -15.9870 
  54   2.0000      -0.560807       -15.2603 
  55   2.0000      -0.548895       -14.9362 
  56   2.0000      -0.539130       -14.6705 
  57   2.0000      -0.529509       -14.4087 
  58   2.0000      -0.514924       -14.0118 
  59   2.0000      -0.505980       -13.7684 
  60   2.0000      -0.499140       -13.5823 
  61   2.0000      -0.490573       -13.3492 
  62   2.0000      -0.479970       -13.0606 
  63   2.0000      -0.477727       -12.9996 
  64   2.0000      -0.475605       -12.9419 
  65   2.0000      -0.468896       -12.7593 
  66   2.0000      -0.460320       -12.5259 
  67   2.0000      -0.457568       -12.4511 
  68   2.0000      -0.456652       -12.4261 
  69   2.0000      -0.451131       -12.2759 
  70   2.0000      -0.447910       -12.1882 
  71   2.0000      -0.437460       -11.9039 
  72   2.0000      -0.433376       -11.7928 
  73   2.0000      -0.430533       -11.7154 
  74   2.0000      -0.428895       -11.6708 
  75   2.0000      -0.422958       -11.5093 
  76   2.0000      -0.415603       -11.3091 
  77   2.0000      -0.413219       -11.2443 
  78   2.0000      -0.407557       -11.0902 
  79   2.0000      -0.403540       -10.9809 
  80   2.0000      -0.401717       -10.9313 
  81   2.0000      -0.399481       -10.8704 
  82   2.0000      -0.396821       -10.7981 
  83   2.0000      -0.390177       -10.6172 
  84   2.0000      -0.389721       -10.6048 
  85   2.0000      -0.384972       -10.4756 
  86   2.0000      -0.377753       -10.2792 
  87   2.0000      -0.375182       -10.2092 
  88   2.0000      -0.369400       -10.0519 
  89   2.0000      -0.367228        -9.9928 
  90   2.0000      -0.363215        -9.8836 
  91   2.0000      -0.358766        -9.7625 
  92   2.0000      -0.352925        -9.6036 
  93   2.0000      -0.343333        -9.3426 
  94   2.0000      -0.340742        -9.2721 
  95   2.0000      -0.339308        -9.2330 
  96   2.0000      -0.338006        -9.1976 
  97   2.0000      -0.332623        -9.0511 
  98   2.0000      -0.329642        -8.9700 
  99   2.0000      -0.328131        -8.9289 
 100   2.0000      -0.326018        -8.8714 
 101   2.0000      -0.318581        -8.6690 
 102   2.0000      -0.315884        -8.5957 
 103   2.0000      -0.312445        -8.5021 
 104   2.0000      -0.311224        -8.4688 
 105   2.0000      -0.298356        -8.1187 
 106   2.0000      -0.279863        -7.6155 
 107   2.0000      -0.274630        -7.4731 
 108   2.0000      -0.255605        -6.9554 
 109   2.0000      -0.217303        -5.9131 
 110   0.0000      -0.029882        -0.8131 
 111   0.0000       0.021456         0.5839 
 112   0.0000       0.028752         0.7824 
 113   0.0000       0.079628         2.1668 
 114   0.0000       0.089296         2.4299 
 115   0.0000       0.101304         2.7566 
 116   0.0000       0.103058         2.8043 
 117   0.0000       0.107088         2.9140 
 118   0.0000       0.108984         2.9656 
 119   0.0000       0.117501         3.1974 
 120   0.0000       0.118754         3.2315 
 121   0.0000       0.119282         3.2458 
 122   0.0000       0.128330         3.4920 
 123   0.0000       0.131103         3.5675 
 124   0.0000       0.134534         3.6608 
 125   0.0000       0.139289         3.7902 
 126   0.0000       0.140847         3.8326 
 127   0.0000       0.142500         3.8776 
 128   0.0000       0.146305         3.9812 
 129   0.0000       0.148831         4.0499 
 130   0.0000       0.154338         4.1997 
 131   0.0000       0.155578         4.2335 
 132   0.0000       0.159460         4.3391 
 133   0.0000       0.164476         4.4756 
 134   0.0000       0.164558         4.4778 
 135   0.0000       0.166572         4.5327 
 136   0.0000       0.171099         4.6558 
 137   0.0000       0.174367         4.7448 
 138   0.0000       0.177058         4.8180 
 139   0.0000       0.182623         4.9694 
 140   0.0000       0.183577         4.9954 
 141   0.0000       0.186461         5.0739 
 142   0.0000       0.188008         5.1160 
 143   0.0000       0.189677         5.1614 
 144   0.0000       0.192753         5.2451 
 145   0.0000       0.197010         5.3609 
 146   0.0000       0.200083         5.4445 
 147   0.0000       0.202640         5.5141 
 148   0.0000       0.203237         5.5303 
 149   0.0000       0.210421         5.7259 
 150   0.0000       0.214989         5.8501 
 151   0.0000       0.221659         6.0316 
 152   0.0000       0.223341         6.0774 
 153   0.0000       0.226413         6.1610 
 154   0.0000       0.234896         6.3918 
 155   0.0000       0.236857         6.4452 
 156   0.0000       0.242737         6.6052 
 157   0.0000       0.244976         6.6661 
 158   0.0000       0.250570         6.8183 
 159   0.0000       0.254392         6.9224 
 160   0.0000       0.257913         7.0182 
 161   0.0000       0.260639         7.0923 
 162   0.0000       0.263627         7.1737 
 163   0.0000       0.264386         7.1943 
 164   0.0000       0.267501         7.2791 
 165   0.0000       0.272233         7.4078 
 166   0.0000       0.282209         7.6793 
 167   0.0000       0.287061         7.8113 
 168   0.0000       0.291108         7.9215 
 169   0.0000       0.295970         8.0537 
 170   0.0000       0.296697         8.0735 
 171   0.0000       0.303448         8.2572 
 172   0.0000       0.308913         8.4060 
 173   0.0000       0.311405         8.4738 
 174   0.0000       0.317133         8.6296 
 175   0.0000       0.322634         8.7793 
 176   0.0000       0.328781         8.9466 
 177   0.0000       0.339241         9.2312 
 178   0.0000       0.356242         9.6938 
 179   0.0000       0.361712         9.8427 
 180   0.0000       0.367386         9.9971 
 181   0.0000       0.375769        10.2252 
 182   0.0000       0.379489        10.3264 
 183   0.0000       0.404360        11.0032 
 184   0.0000       0.419526        11.4159 
 185   0.0000       0.463619        12.6157 
 186   0.0000       0.481778        13.1098 
 187   0.0000       0.491227        13.3670 
 188   0.0000       0.514247        13.9934 
 189   0.0000       0.521040        14.1782 
 190   0.0000       0.524248        14.2655 
 191   0.0000       0.534542        14.5456 
 192   0.0000       0.541158        14.7257 
 193   0.0000       0.546155        14.8616 
 194   0.0000       0.558341        15.1932 
 195   0.0000       0.570577        15.5262 
 196   0.0000       0.575777        15.6677 
 197   0.0000       0.584137        15.8952 
 198   0.0000       0.586723        15.9655 
 199   0.0000       0.595991        16.2177 
 200   0.0000       0.607815        16.5395 
 201   0.0000       0.612690        16.6721 
 202   0.0000       0.621227        16.9045 
 203   0.0000       0.626534        17.0489 
 204   0.0000       0.632885        17.2217 
 205   0.0000       0.641202        17.4480 
 206   0.0000       0.648136        17.6367 
 207   0.0000       0.658100        17.9078 
 208   0.0000       0.665395        18.1063 
 209   0.0000       0.666688        18.1415 
 210   0.0000       0.678630        18.4665 
 211   0.0000       0.686679        18.6855 
 212   0.0000       0.691934        18.8285 
 213   0.0000       0.695179        18.9168 
 214   0.0000       0.704211        19.1626 
 215   0.0000       0.710236        19.3265 
 216   0.0000       0.712359        19.3843 
 217   0.0000       0.717438        19.5225 
 218   0.0000       0.720819        19.6145 
 219   0.0000       0.726674        19.7738 
 220   0.0000       0.731855        19.9148 
 221   0.0000       0.732867        19.9423 
 222   0.0000       0.736531        20.0420 
 223   0.0000       0.739850        20.1324 
 224   0.0000       0.745083        20.2747 
 225   0.0000       0.749066        20.3831 
 226   0.0000       0.752777        20.4841 
 227   0.0000       0.756956        20.5978 
 228   0.0000       0.761290        20.7158 
 229   0.0000       0.766017        20.8444 
 230   0.0000       0.772094        21.0098 
 231   0.0000       0.775842        21.1117 
 232   0.0000       0.777763        21.1640 
 233   0.0000       0.779974        21.2242 
 234   0.0000       0.787412        21.4266 
 235   0.0000       0.796777        21.6814 
 236   0.0000       0.802610        21.8401 
 237   0.0000       0.803677        21.8692 
 238   0.0000       0.814354        22.1597 
 239   0.0000       0.821679        22.3590 
 240   0.0000       0.824519        22.4363 
 241   0.0000       0.827350        22.5133 
 242   0.0000       0.839284        22.8381 
 243   0.0000       0.843720        22.9588 
 244   0.0000       0.850244        23.1363 
 245   0.0000       0.855871        23.2894 
 246   0.0000       0.859573        23.3902 
 247   0.0000       0.864017        23.5111 
 248   0.0000       0.864501        23.5243 
 249   0.0000       0.869680        23.6652 
 250   0.0000       0.873389        23.7661 
 251   0.0000       0.874581        23.7986 
 252   0.0000       0.877734        23.8843 
 253   0.0000       0.879757        23.9394 
 254   0.0000       0.882995        24.0275 
 255   0.0000       0.885756        24.1026 
 256   0.0000       0.888306        24.1720 
 257   0.0000       0.893642        24.3172 
 258   0.0000       0.894617        24.3438 
 259   0.0000       0.896953        24.4073 
 260   0.0000       0.900208        24.4959 
 261   0.0000       0.903854        24.5951 
 262   0.0000       0.906523        24.6678 
 263   0.0000       0.916253        24.9325 
 264   0.0000       0.921900        25.0862 
 265   0.0000       0.924715        25.1628 
 266   0.0000       0.927930        25.2503 
 267   0.0000       0.930314        25.3151 
 268   0.0000       0.937664        25.5151 
 269   0.0000       0.941380        25.6163 
 270   0.0000       0.941802        25.6277 
 271   0.0000       0.943556        25.6755 
 272   0.0000       0.947268        25.7765 
 273   0.0000       0.948487        25.8096 
 274   0.0000       0.957717        26.0608 
 275   0.0000       0.968410        26.3518 
 276   0.0000       0.972436        26.4613 
 277   0.0000       0.974283        26.5116 
 278   0.0000       0.978168        26.6173 
 279   0.0000       0.985372        26.8133 
 280   0.0000       0.986816        26.8526 
 281   0.0000       0.994059        27.0497 
 282   0.0000       1.008895        27.4534 
 283   0.0000       1.011001        27.5107 
 284   0.0000       1.017858        27.6973 
 285   0.0000       1.028062        27.9750 
 286   0.0000       1.030277        28.0353 
 287   0.0000       1.048839        28.5404 
 288   0.0000       1.057662        28.7805 
 289   0.0000       1.061935        28.8967 
 290   0.0000       1.073846        29.2208 
 291   0.0000       1.077855        29.3299 
 292   0.0000       1.085456        29.5368 
 293   0.0000       1.090912        29.6852 
 294   0.0000       1.092737        29.7349 
 295   0.0000       1.109328        30.1863 
 296   0.0000       1.131019        30.7766 
 297   0.0000       1.133582        30.8463 
 298   0.0000       1.139146        30.9977 
 299   0.0000       1.153468        31.3875 
 300   0.0000       1.160366        31.5752 
 301   0.0000       1.167813        31.7778 
 302   0.0000       1.192694        32.4548 
 303   0.0000       1.211458        32.9655 
 304   0.0000       1.223652        33.2973 
 305   0.0000       1.234612        33.5955 
 306   0.0000       1.243613        33.8404 
 307   0.0000       1.256756        34.1981 
 308   0.0000       1.272337        34.6221 
 309   0.0000       1.299911        35.3724 
 310   0.0000       1.323537        36.0153 
 311   0.0000       1.334222        36.3060 
 312   0.0000       1.371273        37.3142 
 313   0.0000       1.383453        37.6457 
 314   0.0000       1.406136        38.2629 
 315   0.0000       1.512304        41.1519 
 316   0.0000       1.525678        41.5158 
 317   0.0000       1.573045        42.8047 
 318   0.0000       1.605991        43.7012 
 319   0.0000       1.657462        45.1018 
 320   0.0000       6.207927       168.9263 
 321   0.0000       6.239980       169.7985 
 322   0.0000       6.263675       170.4432 
 323   0.0000       6.270245       170.6220 
 324   0.0000       6.280862       170.9109 
 325   0.0000       6.289654       171.1502 
 326   0.0000       6.299085       171.4068 
 327   0.0000       6.302783       171.5074 
 328   0.0000       6.313824       171.8079 
 329   0.0000       6.340337       172.5293 
 330   0.0000       6.346251       172.6903 
 331   0.0000       6.348551       172.7528 
 332   0.0000       6.356526       172.9699 
 333   0.0000       6.365840       173.2233 
 334   0.0000       6.384946       173.7432 
 335   0.0000       6.391375       173.9182 
 336   0.0000       6.397972       174.0977 
 337   0.0000       6.412747       174.4997 
 338   0.0000       6.420846       174.7201 
 339   0.0000       6.427434       174.8994 
 340   0.0000       6.431378       175.0067 
 341   0.0000       6.438779       175.2081 
 342   0.0000       6.452398       175.5787 
 343   0.0000       6.459407       175.7694 
 344   0.0000       6.468002       176.0033 
 345   0.0000       6.471762       176.1056 
 346   0.0000       6.482624       176.4012 
 347   0.0000       6.500941       176.8996 
 348   0.0000       6.504125       176.9862 
 349   0.0000       6.515129       177.2857 
 350   0.0000       6.523253       177.5067 
 351   0.0000       6.525741       177.5744 
 352   0.0000       6.536688       177.8723 
 353   0.0000       6.543214       178.0499 
 354   0.0000       6.550590       178.2506 
 355   0.0000       6.554873       178.3671 
 356   0.0000       6.560794       178.5283 
 357   0.0000       6.563169       178.5929 
 358   0.0000       6.569072       178.7535 
 359   0.0000       6.576067       178.9439 
 360   0.0000       6.584387       179.1703 
 361   0.0000       6.585445       179.1991 
 362   0.0000       6.588878       179.2925 
 363   0.0000       6.595733       179.4790 
 364   0.0000       6.602589       179.6656 
 365   0.0000       6.605149       179.7352 
 366   0.0000       6.607558       179.8008 
 367   0.0000       6.613707       179.9681 
 368   0.0000       6.615400       180.0142 
 369   0.0000       6.619283       180.1198 
 370   0.0000       6.620298       180.1475 
 371   0.0000       6.625374       180.2856 
 372   0.0000       6.627337       180.3390 
 373   0.0000       6.635527       180.5619 
 374   0.0000       6.640170       180.6882 
[...]
     69 H        0.000      0.000      0.000      0.000      0.000      0.000
     70 H        0.000      0.000      0.000      0.000      0.003      0.036
     71 H        0.000      0.000      0.000     -0.000      0.001      0.020
     72 H        0.000      0.000      0.000      0.000      0.001      0.009
                 25 H       27 H       28 H       30 H       31 H       33 H  
      3 H        2.498     -0.106      0.067      0.000      0.000      2.432
      4 H        0.113     -0.004      0.004      0.000      0.000      0.101
      8 H       -0.340      0.012      0.000      0.000      0.000     -0.312
      9 H        0.000      0.000      0.000      0.000      0.000      0.137
     10 H        0.000      0.000      0.000      0.000      0.000      0.000
     11 H        0.000      0.000      0.000      0.000      0.000      0.000
     13 H       -0.101      0.004     -0.004      0.000      0.000     -0.105
     16 H       -0.374      0.012     -0.006     -0.022     -0.001     -0.347
     17 H       -0.366      0.011      0.000      0.000      0.000     -0.323
     19 H        0.945     -0.048      0.021      0.086      0.006      1.160
     21 H       -2.844      0.198      0.639     -0.214     -0.026     -2.623
     24 H      -14.056      4.322      2.300      0.723     -0.502     -0.123
     25 H        0.000     13.031      5.232     -0.627     -0.352     -2.374
     27 H       13.031      0.000    -13.573      3.977     12.994      0.069
     28 H        5.232    -13.573      0.000      2.658      4.098      0.283
     30 H       -0.627      3.977      2.658      0.000    -12.933      0.016
     31 H       -0.352     12.994      4.098    -12.933      0.000     -0.322
     33 H       -2.374      0.069      0.283      0.016     -0.322      0.000
     35 H        0.000      0.000      0.000      0.000      0.000      0.000
     37 H        0.270      0.005     -0.035      0.514     -0.036      6.515
     38 H        0.193      0.001     -0.029     -0.014      0.125     12.135
     40 H       -0.014      0.019      0.147     -0.004     -0.033     -0.240
     41 H        0.014      0.022     -0.025      0.013      0.077     -0.423
     42 H       -0.018      0.013     -0.011     -0.259     -0.367     -0.209
     45 H       -0.019     -0.226      0.013     -0.208     -0.485     -0.189
     46 H        0.012      0.049      0.070     -0.341      0.031      0.925
     47 H       -0.058     -0.125     -0.145     -0.152      1.823     -0.472
     48 H       -0.015      0.030      0.022      0.028      0.009     -0.003
     52 H        0.001      0.001      0.002     -0.002      0.001      0.003
     53 H        0.000     -0.000      0.000      0.000     -0.002     -0.003
     57 H        0.000      0.000      0.000     -0.000      0.003      0.006
     58 H        0.000      0.000      0.000      0.000      0.000      0.000
     61 H        0.000      0.000      0.000      0.000      0.000      0.000
     62 H        0.000      0.000      0.000      0.000      0.000      0.000
     63 H        0.000      0.000      0.000      0.000      0.000      0.000
     64 H        0.000      0.000      0.000      0.000     -0.000      0.000
     65 H        0.000      0.000      0.000      0.000      0.000      0.000
     66 H        0.000      0.000      0.000      0.000      0.000      0.000
     67 H       -0.000      0.000      0.000     -0.000     -0.000     -0.000
     68 H        0.000      0.000      0.000      0.000      0.000      0.000
     69 H        0.000      0.000      0.000      0.000     -0.000     -0.000
     70 H        0.000     -0.010     -0.011      0.084     -0.041      0.003
     71 H        0.004     -0.010     -0.009     -0.451     -0.074      0.004
     72 H        0.000     -0.001     -0.003      0.077      0.015     -0.001
                 35 H       37 H       38 H       40 H       41 H       42 H  
      3 H       -0.075     -0.044     -0.038      0.000      0.000      0.000
      4 H       -0.166     -0.002     -0.002      0.000      0.000      0.000
      8 H        0.020      0.006      0.004      0.000      0.001      0.000
      9 H       -0.092     -0.002     -0.001      0.000     -0.000      0.000
     10 H       -0.179      0.000     -0.001      0.000      0.000      0.000
     11 H       -0.102     -0.000     -0.000      0.000      0.000      0.000
     13 H       13.743      0.002      0.001      0.000      0.000      0.000
     16 H        0.005      0.007      0.002     -0.001      0.001     -0.001
     17 H        0.007      0.005      0.005      0.000      0.002      0.000
     19 H       -0.005     -0.012      0.115      0.004     -0.009      0.006
     21 H       -0.004      0.042     -0.531     -0.011      0.059     -0.024
     24 H       -0.001     -0.054     -0.079     -0.019      0.068     -0.025
     25 H        0.000      0.270      0.193     -0.014      0.014     -0.018
     27 H        0.000      0.005      0.001      0.019      0.022      0.013
     28 H        0.000     -0.035     -0.029      0.147     -0.025     -0.011
     30 H        0.000      0.514     -0.014     -0.004      0.013     -0.259
     31 H        0.000     -0.036      0.125     -0.033      0.077     -0.367
     33 H        0.000      6.515     12.135     -0.240     -0.423     -0.209
     35 H        0.000      0.000      0.000      0.000      0.000      0.000
     37 H        0.000      0.000    -12.205      9.483      2.672     -0.264
     38 H        0.000    -12.205      0.000      6.630     11.625     -0.467
     40 H        0.000      9.483      6.630      0.000    -13.978      9.466
     41 H        0.000      2.672     11.625    -13.978      0.000      8.769
     42 H        0.000     -0.264     -0.467      9.466      8.769      0.000
     45 H        0.000      0.063      0.038     -0.083      0.005      1.134
     46 H        0.000     -0.174      0.010      0.050      0.044     -0.407
     47 H        0.000      0.066     -0.061     -0.112     -0.070     -0.075
     48 H        0.000      0.098     -0.009     -0.200     -0.427     10.312
     52 H        0.000     -0.001      0.003      0.082     -0.018     -0.290
     53 H        0.000      0.003      0.006     -0.118      0.015      0.077
     57 H        0.000     -0.005     -0.003      0.114     -0.015     -0.059
     58 H        0.000      0.001      0.000     -0.003     -0.001      0.001
     61 H        0.000      0.000      0.000     -0.002      0.000      0.000
     62 H        0.000      0.000      0.000     -0.006      0.001      0.002
     63 H        0.000      0.000      0.000      0.028     -0.003     -0.008
     64 H        0.000      0.000      0.000     -0.000     -0.000     -0.001
     65 H        0.000      0.000      0.000      0.000     -0.000      0.000
     66 H        0.000     -0.000     -0.000      0.002     -0.001     -0.001
     67 H        0.000      0.000      0.002     -0.054     -0.011     -0.001
     68 H        0.000     -0.000     -0.001     -0.005     -0.000      0.002
     69 H        0.000      0.000      0.002     -0.007     -0.004      0.001
     70 H        0.000      0.066      0.010     -0.026      0.004     -0.434
     71 H        0.000     -0.005      0.004      0.083      0.027     -0.198
     72 H        0.000     -0.020      0.038      0.029     -0.050     -0.343
                 45 H       46 H       47 H       48 H       52 H       53 H  
      3 H       -0.020      0.000      0.000      0.000      0.000      0.000
      4 H       -0.001     -0.001      0.001      0.000      0.000      0.000
      8 H        0.002      0.002     -0.003      0.000      0.000      0.000
      9 H       -0.001      0.000      0.001      0.000      0.000      0.000
     10 H       -0.001      0.000      0.000      0.000      0.000      0.000
     11 H       -0.000      0.000      0.000      0.000      0.000      0.000
     13 H        0.001      0.001     -0.001      0.000      0.000      0.000
     16 H        0.002      0.002     -0.004      0.000      0.000      0.000
     17 H        0.003      0.000     -0.004      0.000      0.000      0.000
     19 H       -0.009     -0.007      0.011      0.006      0.000      0.000
     21 H        0.031      0.013     -0.017     -0.017      0.002     -0.001
     24 H       -0.023     -0.016     -0.023      0.002      0.000      0.000
     25 H       -0.019      0.012     -0.058     -0.015      0.001      0.000
     27 H       -0.226      0.049     -0.125      0.030      0.001     -0.000
     28 H        0.013      0.070     -0.145      0.022      0.002      0.000
     30 H       -0.208     -0.341     -0.152      0.028     -0.002      0.000
     31 H       -0.485      0.031      1.823      0.009      0.001     -0.002
     33 H       -0.189      0.925     -0.472     -0.003      0.003     -0.003
     35 H        0.000      0.000      0.000      0.000      0.000      0.000
     37 H        0.063     -0.174      0.066      0.098     -0.001      0.003
     38 H        0.038      0.010     -0.061     -0.009      0.003      0.006
     40 H       -0.083      0.050     -0.112     -0.200      0.082     -0.118
     41 H        0.005      0.044     -0.070     -0.427     -0.018      0.015
     42 H        1.134     -0.407     -0.075     10.312     -0.290      0.077
     45 H        0.000    -12.846    -13.557     -0.102      0.243     -0.001
     46 H      -12.846      0.000    -12.991     -0.050      0.073     -0.002
     47 H      -13.557    -12.991      0.000     -0.168      0.072     -0.002
     48 H       -0.102     -0.050     -0.168      0.000      9.508     -0.678
     52 H        0.243      0.073      0.072      9.508      0.000     17.371
     53 H       -0.001     -0.002     -0.002     -0.678     17.371      0.000
     57 H        0.004      0.001      0.002      0.102     -2.639      4.918
     58 H        0.000      0.000     -0.000      0.002      0.105      0.992
     61 H        0.000     -0.000     -0.000      0.002      0.032     -0.191
     62 H        0.000     -0.000     -0.000     -0.005      0.159     -0.227
     63 H        0.000      0.000      0.000      0.029     -0.328      0.105
     64 H        0.000      0.000      0.000      0.004      0.103      0.292
     65 H        0.000      0.000      0.000      0.001     -0.092      0.026
     66 H        0.000     -0.000     -0.000     -0.024     -0.448      0.059
     67 H        0.000      0.000     -0.000     -0.015     -0.357      0.021
     68 H        0.000     -0.000      0.000     -0.001     -0.080      0.020
     69 H        0.000      0.000      0.000      0.005      0.122      0.123
     70 H       -0.027     -0.015     -0.011      2.346     -0.161      0.122
     71 H       -0.048     -0.186     -0.017      4.403     -0.096     -0.361
     72 H       -0.030     -0.033      0.035     12.660     -0.267      0.091
                 57 H       58 H       61 H       62 H       63 H       64 H  
      3 H        0.000      0.000      0.000      0.000      0.000      0.000
      4 H        0.000      0.000      0.000      0.000      0.000      0.000
      8 H        0.000      0.000      0.000      0.000      0.000      0.000
      9 H        0.000      0.000      0.000      0.000      0.000      0.000
     10 H        0.000      0.000      0.000      0.000      0.000      0.000
     11 H        0.000      0.000      0.000      0.000      0.000      0.000
     13 H        0.000      0.000      0.000      0.000      0.000      0.000
     16 H        0.000      0.000      0.000      0.000      0.000      0.000
     17 H        0.000      0.000      0.000      0.000      0.000      0.000
     19 H        0.000      0.000      0.000      0.000      0.000      0.000
     21 H        0.000      0.000      0.000      0.000      0.000      0.000
     24 H        0.000      0.000      0.000      0.000      0.000      0.000
     25 H        0.000      0.000      0.000      0.000      0.000      0.000
     27 H        0.000      0.000      0.000      0.000      0.000      0.000
     28 H        0.000      0.000      0.000      0.000      0.000      0.000
     30 H       -0.000      0.000      0.000      0.000      0.000      0.000
     31 H        0.003      0.000      0.000      0.000      0.000     -0.000
     33 H        0.006      0.000      0.000      0.000      0.000      0.000
     35 H        0.000      0.000      0.000      0.000      0.000      0.000
     37 H       -0.005      0.001      0.000      0.000      0.000      0.000
     38 H       -0.003      0.000      0.000      0.000      0.000      0.000
     40 H        0.114     -0.003     -0.002     -0.006      0.028     -0.000
     41 H       -0.015     -0.001      0.000      0.001     -0.003     -0.000
     42 H       -0.059      0.001      0.000      0.002     -0.008     -0.001
     45 H        0.004      0.000      0.000      0.000      0.000      0.000
     46 H        0.001      0.000     -0.000     -0.000      0.000      0.000
     47 H        0.002     -0.000     -0.000     -0.000      0.000      0.000
     48 H        0.102      0.002      0.002     -0.005      0.029      0.004
     52 H       -2.639      0.105      0.032      0.159     -0.328      0.103
     53 H        4.918      0.992     -0.191     -0.227      0.105      0.292
     57 H        0.000      4.049      4.384     13.445      3.344      0.458
     58 H        4.049      0.000     -0.214     -0.274     -0.297      3.761
     61 H        4.384     -0.214      0.000    -12.971    -12.835     -0.120
     62 H       13.445     -0.274    -12.971      0.000    -11.751     -0.086
     63 H        3.344     -0.297    -12.835    -11.751      0.000      0.003
     64 H        0.458      3.761     -0.120     -0.086      0.003      0.000
     65 H       -0.416      3.898     -0.103     -0.288     -0.026    -13.323
     66 H       -0.582     13.903      0.023      0.004      0.052    -12.926
     67 H       -0.274     13.539     -0.054      0.050      0.032     -0.190
     68 H       -0.333      2.600      0.007      0.009      0.020      0.082
     69 H       -0.305      5.166      0.538     -0.044     -0.003     -0.233
     70 H       -0.077      0.003     -0.001     -0.000      0.005      0.000
     71 H        0.290     -0.018     -0.012     -0.025      0.173     -0.002
     72 H       -0.096      0.003      0.001      0.003     -0.021     -0.001
                 65 H       66 H       67 H       68 H       69 H       70 H  
      3 H        0.000      0.000      0.000      0.000      0.000      0.000
      4 H        0.000      0.000      0.000      0.000      0.000      0.000
      8 H        0.000      0.000      0.000      0.000      0.000      0.000
      9 H        0.000      0.000      0.000      0.000      0.000      0.000
     10 H        0.000      0.000      0.000      0.000      0.000      0.000
     11 H        0.000      0.000      0.000      0.000      0.000      0.000
     13 H        0.000      0.000      0.000      0.000      0.000      0.000
     16 H        0.000      0.000      0.000      0.000      0.000      0.000
     17 H        0.000      0.000      0.000      0.000      0.000      0.000
     19 H        0.000      0.000      0.000      0.000      0.000      0.000
     21 H        0.000      0.000     -0.000      0.000      0.000      0.003
     24 H        0.000      0.000      0.000      0.000      0.000      0.036
     25 H        0.000      0.000     -0.000      0.000      0.000      0.000
     27 H        0.000      0.000      0.000      0.000      0.000     -0.010
     28 H        0.000      0.000      0.000      0.000      0.000     -0.011
     30 H        0.000      0.000     -0.000      0.000      0.000      0.084
     31 H        0.000      0.000     -0.000      0.000     -0.000     -0.041
     33 H        0.000      0.000     -0.000      0.000     -0.000      0.003
     35 H        0.000      0.000      0.000      0.000      0.000      0.000
     37 H        0.000     -0.000      0.000     -0.000      0.000      0.066
     38 H        0.000     -0.000      0.002     -0.001      0.002      0.010
     40 H        0.000      0.002     -0.054     -0.005     -0.007     -0.026
     41 H       -0.000     -0.001     -0.011     -0.000     -0.004      0.004
     42 H        0.000     -0.001     -0.001      0.002      0.001     -0.434
     45 H        0.000      0.000      0.000      0.000      0.000     -0.027
     46 H        0.000     -0.000      0.000     -0.000      0.000     -0.015
     47 H        0.000     -0.000     -0.000      0.000      0.000     -0.011
     48 H        0.001     -0.024     -0.015     -0.001      0.005      2.346
     52 H       -0.092     -0.448     -0.357     -0.080      0.122     -0.161
     53 H        0.026      0.059      0.021      0.020      0.123      0.122
     57 H       -0.416     -0.582     -0.274     -0.333     -0.305     -0.077
     58 H        3.898     13.903     13.539      2.600      5.166      0.003
     61 H       -0.103      0.023     -0.054      0.007      0.538     -0.001
     62 H       -0.288      0.004      0.050      0.009     -0.044     -0.000
     63 H       -0.026      0.052      0.032      0.020     -0.003      0.005
     64 H      -13.323    -12.926     -0.190      0.082     -0.233      0.000
     65 H        0.000    -12.539     -0.314      2.590     -0.169     -0.000
     66 H      -12.539      0.000     -0.293     -0.396     -0.183     -0.001
     67 H       -0.314     -0.293      0.000    -12.626    -12.834      0.002
     68 H        2.590     -0.396    -12.626      0.000    -12.754     -0.000
     69 H       -0.169     -0.183    -12.834    -12.754      0.000      0.001
     70 H       -0.000     -0.001      0.002     -0.000      0.001      0.000
     71 H       -0.000     -0.001      0.005      0.000     -0.004    -13.180
     72 H       -0.000     -0.004     -0.000      0.000     -0.000    -12.513
                 71 H       72 H  
      3 H        0.000      0.000
      4 H        0.000      0.000
      8 H        0.000      0.000
      9 H        0.000      0.000
     10 H        0.000      0.000
     11 H        0.000      0.000
     13 H        0.000      0.000
     16 H        0.000      0.000
     17 H        0.000      0.000
     19 H       -0.000      0.000
     21 H        0.001      0.001
     24 H        0.020      0.009
     25 H        0.004      0.000
     27 H       -0.010     -0.001
     28 H       -0.009     -0.003
     30 H       -0.451      0.077
     31 H       -0.074      0.015
     33 H        0.004     -0.001
     35 H        0.000      0.000
     37 H       -0.005     -0.020
     38 H        0.004      0.038
     40 H        0.083      0.029
     41 H        0.027     -0.050
     42 H       -0.198     -0.343
     45 H       -0.048     -0.030
     46 H       -0.186     -0.033
     47 H       -0.017      0.035
     48 H        4.403     12.660
     52 H       -0.096     -0.267
     53 H       -0.361      0.091
     57 H        0.290     -0.096
     58 H       -0.018      0.003
     61 H       -0.012      0.001
     62 H       -0.025      0.003
     63 H        0.173     -0.021
     64 H       -0.002     -0.001
     65 H       -0.000     -0.000
     66 H       -0.001     -0.004
     67 H        0.005     -0.000
     68 H        0.000      0.000
     69 H       -0.004     -0.000
     70 H      -13.180    -12.513
     71 H        0.000    -12.441
     72 H      -12.441      0.000

Maximum memory used throughout the entire EPRNMR-calculation: 967.6 MB

Timings for individual modules:

Sum of individual times         ...      391.542 sec (=   6.526 min)
GTO integral calculation        ...        0.713 sec (=   0.012 min)   0.2 %
SCF iterations                  ...      104.796 sec (=   1.747 min)  26.8 %
EPR/NMR calculation             ...      286.032 sec (=   4.767 min)  73.1 %
                             ****ORCA TERMINATED NORMALLY****
TOTAL RUN TIME: 0 days 0 hours 6 minutes 31 seconds 940 msec
