
                                 *****************
                                 * O   R   C   A *
                                 *****************

                                            #,                                       
                                            ###                                      
                                            ####                                     
                                            #####                                    
                                            ######                                   
                                           ########,                                 
                                     ,,################,,,,,                         
                               ,,#################################,,                 
                          ,,##########################################,,             
                       ,#########################################, ''#####,          
                    ,#############################################,,   '####,        
                  ,##################################################,,,,####,       
                ,###########''''           ''''###############################       
              ,#####''   ,,,,##########,,,,          '''####'''          '####       
            ,##' ,,,,###########################,,,                        '##       
           ' ,,###''''                  '''############,,,                           
         ,,##''                                '''############,,,,        ,,,,,,###''
      ,#''                                            '''#######################'''  
     '                                                          ''''####''''         
             ,#######,   #######,   ,#######,      ##                                
            ,#'     '#,  ##    ##  ,#'     '#,    #''#        ,####,   ,####,        
            ##       ##  ##   ,#'  ##            #'  '#       #'       #'  '#        
            ##       ##  #######   ##           ,######,      #####,   #    #        
            '#,     ,#'  ##    ##  '#,     ,#' ,#      #,     #,   #   #,  ,#        
             '#######'   ##     ##  '#######'  #'      '#     '####' # '####'        



                #########################################################
                #                        -***-                          #
                #          Department of theory and spectroscopy        #
                #                                                       #
                #                      Frank Neese                      #
                #                                                       #
                #     Directorship, Architecture, Infrastructure        #
                #                    SHARK, DRIVERS                     #
                #        Core code/Algorithms in most modules           #
                #                                                       #
                #        Max Planck Institute fuer Kohlenforschung      #
                #                Kaiser Wilhelm Platz 1                 #
                #                 D-45470 Muelheim/Ruhr                 #
                #                      Germany                          #
                #                                                       #
                #                  All rights reserved                  #
                #                        -***-                          #
                #########################################################


                         Program Version 6.0.0  -   RELEASE  -


 With contributions from (in alphabetic order):
   Daniel Aravena         : Magnetic Suceptibility
   Michael Atanasov       : Ab Initio Ligand Field Theory (pilot matlab implementation)
   Alexander A. Auer      : GIAO ZORA, VPT2 properties, NMR spectrum
   Ute Becker             : All parallelization in ORCA, NUMFREQ, NUMCALC
   Giovanni Bistoni       : ED, misc. LED, open-shell LED, HFLD
   Martin Brehm           : Molecular dynamics
   Dmytro Bykov           : pre 5.0 version of the SCF Hessian
   Marcos Casanova-Páez   : Triplet and SCS-CIS(D). UHF-(DLPNO)-IP/EA/STEOM-CCSD. UHF-CVS-IP/STEOM-CCSD
   Vijay G. Chilkuri      : MRCI spin determinant printing, contributions to CSF-ICE
   Pauline Colinet        : FMM embedding
   Dipayan Datta          : RHF DLPNO-CCSD density
   Achintya Kumar Dutta   : EOM-CC, STEOM-CC
   Nicolas Foglia         : Exact transition moments, OPA infrastructure, MCD improvements
   Dmitry Ganyushin       : Spin-Orbit,Spin-Spin,Magnetic field MRCI
   Miquel Garcia          : C-PCM and meta-GGA Hessian, CCSD/C-PCM, Gaussian charge scheme
   Tiago L. C. Gouveia    : GS-ROHF, GS-ROCIS
   Yang Guo               : DLPNO-NEVPT2, F12-NEVPT2, CIM, IAO-localization
   Andreas Hansen         : Spin unrestricted coupled pair/coupled cluster methods
   Ingolf Harden          : AUTO-CI MPn and infrastructure 
   Benjamin Helmich-Paris : MC-RPA, TRAH-(SCF,CASSCF), AVAS, COSX integrals, SCF dyn. polar.
   Lee Huntington         : MR-EOM, pCC
   Robert Izsak           : Overlap fitted RIJCOSX, COSX-SCS-MP3, EOM
   Riya Kayal             : Wick's Theorem for AUTO-CI, AUTO-CI UHF-CCSDT
   Emily Kempfer          : AUTO-CI, RHF CISDT and CCSDT
   Christian Kollmar      : KDIIS, OOCD, Brueckner-CCSD(T), CCSD density, CASPT2, CASPT2-K, improved NEVPT2
   Axel Koslowski         : Symmetry handling
   Simone Kossmann        : Meta GGA functionals, TD-DFT gradient, OOMP2, (MP2 Hessian; deprecated post 5.0)
   Lucas Lang             : DCDCAS
   Marvin Lechner         : AUTO-CI (C++ implementation), FIC-MRCC
   Spencer Leger          : CASSCF response
   Dagmar Lenk            : GEPOL surface, SMD, ORCA-2-JSON
   Dimitrios Liakos       : Extrapolation schemes; Compound Job, initial MDCI parallelization
   Dimitrios Manganas     : Further ROCIS development; embedding schemes. LFT, Crystal Embedding
   Dimitrios Pantazis     : SARC Basis sets
   Anastasios Papadopoulos: AUTO-CI, single reference methods and gradients
   Taras Petrenko         : pre 6.0 DFT Hessian and TD-DFT gradient, (ASA, deprecated), ECA, 1-Electron XAS/XES, NRVS
   Peter Pinski           : DLPNO-MP2, DLPNO-MP2 Gradient
   Christoph Reimann      : Effective Core Potentials
   Marius Retegan         : Local ZFS, SOC
   Christoph Riplinger    : Optimizer, TS searches, QM/MM, DLPNO-CCSD(T), (RO)-DLPNO pert. Triples
   Michael Roemelt        : Original ROCIS implementation
   Masaaki Saitow         : Open-shell DLPNO-CCSD energy and density
   Barbara Sandhoefer     : DKH picture change effects
   Kantharuban Sivalingam : CASSCF convergence/infrastructure, NEVPT2 and variants, FIC-MRCI
   Bernardo de Souza      : ESD, SOC TD-DFT
   Georgi Stoychev        : AutoAux, RI-MP2 NMR, DLPNO-MP2 response, X2C
   Van Anh Tran           : RI-MP2 g-tensors
   Willem Van den Heuvel  : Paramagnetic NMR
   Zikuan Wang            : NOTCH, Electric field optimization 
   Frank Wennmohs         : Technical directorship and infrastructure
   Hang Xu                : AUTO-CI-Response properties 


 We gratefully acknowledge several colleagues who have allowed us to
 interface, adapt or use parts of their codes:
   Stefan Grimme, W. Hujo, H. Kruse, P. Pracht,  : VdW corrections, initial TS optimization,
                  C. Bannwarth, S. Ehlert,         DFT functionals, gCP, sTDA/sTD-DF
                  L. Wittmann, M. Mueller
   Ed Valeev, F. Pavosevic, A. Kumar             : LibInt (2-el integral package), F12 methods
   Garnet Chan, S. Sharma, J. Yang, R. Olivares  : DMRG
   Ulf Ekstrom                                   : XCFun DFT Library
   Mihaly Kallay                                 : mrcc  (arbitrary order and MRCC methods)
   Frank Weinhold                                : gennbo (NPA and NBO analysis)
   Simon Mueller                                 : openCOSMO-RS
   Christopher J. Cramer and Donald G. Truhlar   : smd solvation model
   Lars Goerigk                                  : TD-DFT with DH, B97 family of functionals
   V. Asgeirsson, H. Jonsson                     : NEB implementation
   FAccTs GmbH                                   : IRC, NEB, NEB-TS, DLPNO-Multilevel, CI-OPT
                                                   MM, QMMM, 2- and 3-layer-ONIOM, Crystal-QMMM,
                                                   LR-CPCM, SF, NACMEs, symmetry and pop. for TD-DFT,
                                                   nearIR, NL-DFT gradient (VV10), updates on ESD,
                                                   ML-optimized integration grids, MBIS, APM,
                                                   GOAT, DOCKER, SOLVATOR, interface openCOSMO-RS
   S Lehtola, MJT Oliveira, MAL Marques          : LibXC Library
   Liviu Ungur et al                             : ANISO software


 Your calculation uses the libint2 library for the computation of 2-el integrals
 For citations please refer to: http://libint.valeyev.net

 Your ORCA version has been built with support for libXC version: 6.2.2
 For citations please refer to: https://libxc.gitlab.io

 This ORCA versions uses:
   CBLAS   interface :  Fast vector & matrix operations
   LAPACKE interface :  Fast linear algebra routines
   SCALAPACK package :  Parallel linear algebra routines
   Shared memory     :  Shared parallel matrices
   BLAS/LAPACK       :  OpenBLAS 0.3.27  USE64BITINT DYNAMIC_ARCH NO_AFFINITY Zen SINGLE_THREADED
        Core in use  :  Zen
   Copyright (c) 2011-2014, The OpenBLAS Project


NOTE: MaxCore=8000 MB was set to SCF,MP2,MDCI,CIPSI,MRCI and CIS
      => If you want to overwrite this, your respective input block should be placed after the MaxCore statement
Your calculation utilizes the atom-pairwise dispersion correction
based on EEQ partial charges (D4)


================================================================================

----- Orbital basis set information -----
Your calculation utilizes the basis: def2-SVP
   F. Weigend and R. Ahlrichs, Phys. Chem. Chem. Phys. 7, 3297 (2005).

----- AuxJ basis set information -----
Your calculation utilizes the auxiliary basis: def2/J
   F. Weigend, Phys. Chem. Chem. Phys. 8, 1057 (2006).

================================================================================
                                        WARNINGS
                       Please study these warnings very carefully!
================================================================================


================================================================================
                                       INPUT FILE
================================================================================
NAME = inpS
|  1> ! wb97x-d4
|  2> ! def2-svp
|  3> ! def2/J RIJCOSX
|  4> ! DEFGRID2
|  5> ! scfconv7
|  6> ! smallprint printgap noloewdin
|  7> ! NOSOSCF
|  8> %MaxCore 8000
|  9> %output
| 10>        print[P_BondOrder_M] 1
| 11>        print[P_Mayer] 1
| 12>        print[P_basis] 2
| 13> end
| 14> %pal
| 15>     nprocs 4
| 16> end
| 17> ! CPCM(chloroform)
| 18> *xyz 0 1
| 19> C   -5.1682158400  -0.0413341800   0.4119159700
| 20> C   -6.5177278800  -0.5814046400   0.0013448200
| 21> C   -7.1675803900   0.2816213800  -1.0871835700
| 22> H   -7.1958951300  -0.5747742100   0.8716511700
| 23> H   -6.4312066400  -1.6169455200  -0.3457287300
| 24> C   -5.1676993900   1.3986068900   0.7460774700
| 25> C   -5.8645774300   2.2773565400  -0.2679739800
| 26> C   -7.2528739000   1.7340850800  -0.6326460000
| 27> H   -5.2509078900   2.3068996100  -1.1813216400
| 28> H   -5.9383588200   3.3032960600   0.1079168800
| 29> H   -7.7028021200   2.3432352900  -1.4254599800
| 30> H   -7.9131787800   1.7906090900   0.2459483100
| 31> O   -8.4514143200  -0.2358735200  -1.4615098100
| 32> H   -6.5605158600   0.2214861200  -2.0012877200
| 33> C   -4.0717397900  -0.8358148300   0.4110175200
| 34> C   -4.6389066100   1.8917043300   1.8718132900
| 35> H   -4.1645529800   1.2453719700   2.6050780400
| 36> H   -4.6793746200   2.9565002200   2.0888809700
| 37> C   -2.7125971800  -0.4246500600   0.6765315100
| 38> H   -4.2339891100  -1.8774347400   0.1372061900
| 39> C   -1.6310186000  -1.2304382500   0.7439563800
| 40> H   -2.5579801100   0.6429888200   0.8160358900
| 41> C   -1.6466147000  -2.7332412900   0.6246958200
| 42> C   -0.6596131900  -3.2322252000  -0.4466698000
| 43> H   -2.6474595500  -3.1234348900   0.4204797700
| 44> H   -1.3369652100  -3.1501546200   1.5964779600
| 45> C    0.7482481000  -2.6491768700  -0.2675760500
| 46> H   -1.0451374400  -2.9710832100  -1.4403612600
| 47> H   -0.6107863400  -4.3274678500  -0.4096239900
| 48> C    0.7274324700  -1.1150931500  -0.2022146900
| 49> H    1.3870958800  -3.0066541100  -1.0817430100
| 50> H    1.1805631600  -3.0297182200   0.6702792300
| 51> C   -0.2422670100  -0.7093053000   0.9533376600
| 52> H    0.1577754100  -1.2285318900   1.8439969000
| 53> C    0.0186731600   0.7801457000   1.1447002100
| 54> H   -9.0183637000  -0.2031020100  -0.6791461600
| 55> C    1.5454517500   0.9082841800   0.9195706900
| 56> H   -0.2938408300   1.1328691700   2.1333921700
| 57> H   -0.5330380000   1.3681789000   0.4027207100
| 58> C    2.0360118400  -0.4376384200   0.2988905400
| 59> H    2.0666019100   1.1208676800   1.8569521000
| 60> H    1.7768232500   1.7388873900   0.2420882400
| 61> H    2.4187190900  -1.0839049800   1.1047330300
| 62> C    3.1680091700  -0.2215715100  -0.7147525100
| 63> C    0.2632547500  -0.5111472300  -1.5352551300
| 64> H   -0.7905554200  -0.7357131300  -1.7263700500
| 65> H    0.8494773700  -0.9090174500  -2.3705129900
| 66> H    0.3706667100   0.5781148500  -1.5440672700
| 67> H    2.7886333600   0.4645205200  -1.4886990200
| 68> C    3.6294502500  -1.5068318700  -1.4271512000
| 69> C    4.4000678200   0.4292699900  -0.1236391000
| 70> C    4.7656668200   0.4478906200   1.1583190100
| 71> H    5.0705347500   0.8583961700  -0.8701664100
| 72> H    4.0993094700   0.0107871000   1.8997741500
| 73> C    6.0522364800   1.0109877900   1.7113869500
| 74> C    6.7701263600   1.9412078600   0.7313463600
| 75> C    6.9824652600  -0.1315717800   2.2088081400
| 76> H    5.7853167900   1.5985917100   2.6071439900
| 77> H    7.2682868300  -0.7172088400   1.3204764000
| 78> C    6.2707553200  -1.0662292800   3.1927464600
| 79> C    8.2569008200   0.4175016500   2.8584910100
| 80> H    6.0757688300   2.6794045400   0.3169952200
| 81> H    7.2038771500   1.3782992200  -0.1039816800
| 82> H    7.5796380700   2.4855284200   1.2238663500
| 83> H    6.9705610800  -1.8123724200   3.5843904900
| 84> H    5.4385296800  -1.6023978600   2.7275865800
| 85> H    5.8761088800  -0.4986522300   4.0457833600
| 86> H    8.0054201700   1.0887935400   3.6901295800
| 87> H    8.8808035900   0.9715525900   2.1519220100
| 88> H    8.8619034000  -0.4017136200   3.2624247300
| 89> H    4.5272622600  -1.3094800000  -2.0236000400
| 90> H    2.8639493200  -1.9014425200  -2.0999881000
| 91> H    3.8799466200  -2.2792692000  -0.6905265000
| 92> *
| 93> %eprnmr
| 94>  Nuclei = all C { shift }
| 95>  origin giao
| 96>  giao_2el giao_2el_same_as_scf
| 97>  giao_1el giao_1el_analytic
| 98> end
| 99> 
|100>                          ****END OF INPUT****
================================================================================

                       ****************************
                       * Single Point Calculation *
                       ****************************

---------------------------------
CARTESIAN COORDINATES (ANGSTROEM)
---------------------------------
  C     -5.168216   -0.041334    0.411916
  C     -6.517728   -0.581405    0.001345
  C     -7.167580    0.281621   -1.087184
  H     -7.195895   -0.574774    0.871651
  H     -6.431207   -1.616946   -0.345729
  C     -5.167699    1.398607    0.746077
  C     -5.864577    2.277357   -0.267974
  C     -7.252874    1.734085   -0.632646
  H     -5.250908    2.306900   -1.181322
  H     -5.938359    3.303296    0.107917
  H     -7.702802    2.343235   -1.425460
  H     -7.913179    1.790609    0.245948
  O     -8.451414   -0.235874   -1.461510
  H     -6.560516    0.221486   -2.001288
  C     -4.071740   -0.835815    0.411018
  C     -4.638907    1.891704    1.871813
  H     -4.164553    1.245372    2.605078
  H     -4.679375    2.956500    2.088881
  C     -2.712597   -0.424650    0.676532
  H     -4.233989   -1.877435    0.137206
  C     -1.631019   -1.230438    0.743956
  H     -2.557980    0.642989    0.816036
  C     -1.646615   -2.733241    0.624696
  C     -0.659613   -3.232225   -0.446670
  H     -2.647460   -3.123435    0.420480
  H     -1.336965   -3.150155    1.596478
  C      0.748248   -2.649177   -0.267576
  H     -1.045137   -2.971083   -1.440361
  H     -0.610786   -4.327468   -0.409624
  C      0.727432   -1.115093   -0.202215
  H      1.387096   -3.006654   -1.081743
  H      1.180563   -3.029718    0.670279
  C     -0.242267   -0.709305    0.953338
  H      0.157775   -1.228532    1.843997
  C      0.018673    0.780146    1.144700
  H     -9.018364   -0.203102   -0.679146
  C      1.545452    0.908284    0.919571
  H     -0.293841    1.132869    2.133392
  H     -0.533038    1.368179    0.402721
  C      2.036012   -0.437638    0.298891
  H      2.066602    1.120868    1.856952
  H      1.776823    1.738887    0.242088
  H      2.418719   -1.083905    1.104733
  C      3.168009   -0.221572   -0.714753
  C      0.263255   -0.511147   -1.535255
  H     -0.790555   -0.735713   -1.726370
  H      0.849477   -0.909017   -2.370513
  H      0.370667    0.578115   -1.544067
  H      2.788633    0.464521   -1.488699
  C      3.629450   -1.506832   -1.427151
  C      4.400068    0.429270   -0.123639
  C      4.765667    0.447891    1.158319
  H      5.070535    0.858396   -0.870166
  H      4.099309    0.010787    1.899774
  C      6.052236    1.010988    1.711387
  C      6.770126    1.941208    0.731346
  C      6.982465   -0.131572    2.208808
  H      5.785317    1.598592    2.607144
  H      7.268287   -0.717209    1.320476
  C      6.270755   -1.066229    3.192746
  C      8.256901    0.417502    2.858491
  H      6.075769    2.679405    0.316995
  H      7.203877    1.378299   -0.103982
  H      7.579638    2.485528    1.223866
  H      6.970561   -1.812372    3.584390
  H      5.438530   -1.602398    2.727587
  H      5.876109   -0.498652    4.045783
  H      8.005420    1.088794    3.690130
  H      8.880804    0.971553    2.151922
  H      8.861903   -0.401714    3.262425
  H      4.527262   -1.309480   -2.023600
  H      2.863949   -1.901443   -2.099988
  H      3.879947   -2.279269   -0.690527

----------------------------
CARTESIAN COORDINATES (A.U.)
----------------------------
  NO LB      ZA    FRAG     MASS         X           Y           Z
   0 C     6.0000    0    12.011   -9.766513   -0.078110    0.778408
   1 C     6.0000    0    12.011  -12.316721   -1.098696    0.002541
   2 C     6.0000    0    12.011  -13.544764    0.532187   -2.054479
   3 H     1.0000    0     1.008  -13.598271   -1.086166    1.647182
   4 H     1.0000    0     1.008  -12.153219   -3.055584   -0.653333
   5 C     6.0000    0    12.011   -9.765537    2.642984    1.409882
   6 C     6.0000    0    12.011  -11.082445    4.303580   -0.506397
   7 C     6.0000    0    12.011  -13.705945    3.276946   -1.195528
   8 H     1.0000    0     1.008   -9.922778    4.359408   -2.232374
   9 H     1.0000    0     1.008  -11.221872    6.242325    0.203933
  10 H     1.0000    0     1.008  -14.556186    4.428073   -2.693729
  11 H     1.0000    0     1.008  -14.953741    3.383761    0.464775
  12 O     8.0000    0    15.999  -15.970859   -0.445736   -2.761853
  13 H     1.0000    0     1.008  -12.397578    0.418548   -3.781886
  14 C     6.0000    0    12.011   -7.694473   -1.579461    0.776711
  15 C     6.0000    0    12.011   -8.766263    3.574803    3.537214
  16 H     1.0000    0     1.008   -7.869865    2.353412    4.922884
  17 H     1.0000    0     1.008   -8.842737    5.586976    3.947413
  18 C     6.0000    0    12.011   -5.126066   -0.802472    1.278459
  19 H     1.0000    0     1.008   -8.001080   -3.547837    0.259282
  20 C     6.0000    0    12.011   -3.082178   -2.325191    1.405874
  21 H     1.0000    0     1.008   -4.833882    1.215073    1.542084
  22 C     6.0000    0    12.011   -3.111651   -5.165077    1.180504
  23 C     6.0000    0    12.011   -1.246488   -6.108020   -0.844084
  24 H     1.0000    0     1.008   -5.002974   -5.902437    0.794592
  25 H     1.0000    0     1.008   -2.526498   -5.952930    3.016906
  26 C     6.0000    0    12.011    1.413984   -5.006219   -0.505645
  27 H     1.0000    0     1.008   -1.975024   -5.614534   -2.721888
  28 H     1.0000    0     1.008   -1.154219   -8.177729   -0.774077
  29 C     6.0000    0    12.011    1.374648   -2.107221   -0.382130
  30 H     1.0000    0     1.008    2.621231   -5.681753   -2.044198
  31 H     1.0000    0     1.008    2.230941   -5.725338    1.266644
  32 C     6.0000    0    12.011   -0.457818   -1.340393    1.801547
  33 H     1.0000    0     1.008    0.298152   -2.321589    3.484649
  34 C     6.0000    0    12.011    0.035287    1.474262    2.163170
  35 H     1.0000    0     1.008  -17.042238   -0.383807   -1.283400
  36 C     6.0000    0    12.011    2.920481    1.716408    1.737737
  37 H     1.0000    0     1.008   -0.555279    2.140812    4.031527
  38 H     1.0000    0     1.008   -1.007296    2.585483    0.761032
  39 C     6.0000    0    12.011    3.847505   -0.827017    0.564821
  40 H     1.0000    0     1.008    3.905312    2.118133    3.509131
  41 H     1.0000    0     1.008    3.357709    3.286021    0.457480
  42 H     1.0000    0     1.008    4.570717   -2.048284    2.087643
  43 C     6.0000    0    12.011    5.986670   -0.418709   -1.350686
  44 C     6.0000    0    12.011    0.497479   -0.965928   -2.901212
  45 H     1.0000    0     1.008   -1.493933   -1.390296   -3.262367
  46 H     1.0000    0     1.008    1.605280   -1.717794   -4.479620
  47 H     1.0000    0     1.008    0.700459    1.092479   -2.917864
  48 H     1.0000    0     1.008    5.269753    0.877817   -2.813233
  49 C     6.0000    0    12.011    6.858667   -2.847500   -2.696925
  50 C     6.0000    0    12.011    8.314923    0.811203   -0.233644
  51 C     6.0000    0    12.011    9.005805    0.846391    2.188906
  52 H     1.0000    0     1.008    9.581922    1.622134   -1.644376
  53 H     1.0000    0     1.008    7.746572    0.020385    3.590053
  54 C     6.0000    0    12.011   11.437069    1.910490    3.234053
  55 C     6.0000    0    12.011   12.793685    3.668351    1.382044
  56 C     6.0000    0    12.011   13.194947   -0.248635    4.174042
  57 H     1.0000    0     1.008   10.932664    3.020901    4.926788
  58 H     1.0000    0     1.008   13.735072   -1.355328    2.495339
  59 C     6.0000    0    12.011   11.850010   -2.014881    6.033416
  60 C     6.0000    0    12.011   15.603281    0.788964    5.401765
  61 H     1.0000    0     1.008   11.481539    5.063341    0.599034
  62 H     1.0000    0     1.008   13.613355    2.604608   -0.196497
  63 H     1.0000    0     1.008   14.323440    4.696968    2.312772
  64 H     1.0000    0     1.008   13.172451   -3.424888    6.773516
  65 H     1.0000    0     1.008   10.277332   -3.028093    5.154392
  66 H     1.0000    0     1.008   11.104237   -0.942316    7.645423
  67 H     1.0000    0     1.008   15.128052    2.057522    6.973334
  68 H     1.0000    0     1.008   16.782287    1.835968    4.066543
  69 H     1.0000    0     1.008   16.746570   -0.759129    6.165089
  70 H     1.0000    0     1.008    8.555286   -2.474559   -3.824050
  71 H     1.0000    0     1.008    5.412080   -3.593206   -3.968402
  72 H     1.0000    0     1.008    7.332037   -4.307195   -1.304906

--------------------------------
INTERNAL COORDINATES (ANGSTROEM)
--------------------------------
 C      0   0   0     0.000000000000     0.00000000     0.00000000
 C      1   0   0     1.510439511229     0.00000000     0.00000000
 C      2   1   0     1.533628459499   111.73477863     0.00000000
 H      2   1   3     1.103353037076   109.42656699   241.41123165
 H      2   1   3     1.095577878670   110.70260371   122.85610614
 C      1   2   3     1.478206501094   114.20876381    50.45413806
 C      6   1   2     1.511998774225   114.47949854   312.07233744
 C      3   2   1     1.524313020743   110.38164033   305.10384085
 H      7   6   1     1.100757487068   108.36884113   289.74589813
 H      7   6   1     1.095120783676   110.20132167   172.62403913
 H      8   3   2     1.096381953691   109.67878301   179.02231303
 H      8   3   2     1.100511453744   108.69772651   296.42530575
 O      3   2   1     1.433928403128   111.19727359   180.40214037
 H      3   2   1     1.098967692940   108.99685052    65.19938439
 C      1   2   3     1.354053189007   120.89871781   232.73083587
 C      6   1   2     1.337926764044   123.32294564   129.85032835
 H     16   6   1     1.086477832020   121.41100351     0.70247186
 H     16   6   1     1.087449458547   120.93876065   181.36150599
 C     15   1   2     1.444583947472   126.49515631   174.75313679
 H     15   1   2     1.089160008073   116.14658635   357.75168905
 C     19  15   1     1.350426949136   126.36225979   176.27753441
 H     19  15   1     1.087759480980   115.89147601   355.11068935
 C     21  19  15     1.507608469245   125.63041039   356.60579051
 C     23  21  19     1.539799082640   111.80410127   127.13972985
 H     23  21  19     1.093455830992   112.33056706     2.97910326
 H     23  21  19     1.101843935869   107.72787039   245.78832688
 C     24  23  21     1.534305490535   112.56975100    50.95410148
 H     24  23  21     1.097381794981   109.13131397   288.86838095
 H     24  23  21     1.096956205005   109.18293768   172.84411467
 C     27  24  23     1.535616572521   111.84881928   306.09050669
 H     27  24  23     1.094890086668   108.93687656   182.43844768
 H     27  24  23     1.100581917163   109.17829831    65.96998970
 C     21  19  15     1.498015704430   122.81294782   176.66388656
 H     33  21  19     1.105849931663   106.53486819   124.46006031
 C     33  21  19     1.524196076384   121.07848972     1.83246856
 H     13   3   2     0.966746322564   107.55195184    62.10667353
 C     35  33  21     1.548597957416   103.37910004   195.47333083
 H     35  33  21     1.095258249000   112.28352312    73.72795160
 H     35  33  21     1.095765406823   110.68298205   314.04451888
 C     30  27  24     1.556416181592   115.92144043   166.51534049
 H     37  35  33     1.093376943947   111.18496058   250.98088768
 H     37  35  33     1.096547734270   111.13225731   132.69564334
 H     40  30  27     1.101593130183   105.79873934   321.64741413
 C     40  30  27     1.534788290787   117.95336190    82.59590869
 C     30  27  24     1.535320306876   111.10742799   294.80736713
 H     45  30  27     1.094290012056   111.22682168    67.71455931
 H     45  30  27     1.095268626801   110.94167638   307.57655395
 H     45  30  27     1.094580678565   111.64030540   187.53200794
 H     44  40  30     1.101653974342   107.31745501    62.89842202
 C     44  40  30     1.540238279232   114.13976065   304.10181680
 C     44  40  30     1.513597779677   113.76435900   180.64964596
 C     51  44  40     1.333201392310   127.21076679    22.26685754
 H     51  44  40     1.091319479878   113.70456602   197.71347512
 H     52  51  44     1.088506926817   118.78356897   355.80564243
 C     52  51  44     1.509378699714   126.24886705   174.93568106
 C     55  52  51     1.530083271095   113.08106183    16.71620939
 C     55  52  51     1.555054916844   110.67065540   250.43849835
 H     55  52  51     1.104040380792   106.84435726   135.43935404
 H     57  55  52     1.101725018421   106.72832817    65.31371389
 C     57  55  52     1.532400175726   112.06758592   306.91304319
 C     57  55  52     1.532238708458   111.70860011   183.70353417
 H     56  55  52     1.094876059219   110.77807110    48.77938593
 H     56  55  52     1.096712733227   111.18474364   288.70778696
 H     56  55  52     1.092780866055   111.20499046   168.55273881
 H     60  57  55     1.095373330574   110.38497555   184.38262574
 H     60  57  55     1.093823557990   112.28941656    64.17788287
 H     60  57  55     1.097980634189   110.51743019   303.41504281
 H     61  57  55     1.097951743027   110.47206531    57.05774321
 H     61  57  55     1.093374072443   112.46962420   296.20011430
 H     61  57  55     1.095583967828   110.34574113   176.06819831
 H     50  44  40     1.095794408012   110.29983956   188.13622229
 H     50  44  40     1.092894657744   112.09878152    68.14885612
 H     50  44  40     1.096368463980   110.21835508   307.03325810

---------------------------
INTERNAL COORDINATES (A.U.)
---------------------------
 C      0   0   0     0.000000000000     0.00000000     0.00000000
 C      1   0   0     2.854317018077     0.00000000     0.00000000
 C      2   1   0     2.898137779641   111.73477863     0.00000000
 H      2   1   3     2.085035069104   109.42656699   241.41123165
 H      2   1   3     2.070342149069   110.70260371   122.85610614
 C      1   2   3     2.793405456449   114.20876381    50.45413806
 C      6   1   2     2.857263598109   114.47949854   312.07233744
 C      3   2   1     2.880534151575   110.38164033   305.10384085
 H      7   6   1     2.080130190422   108.36884113   289.74589813
 H      7   6   1     2.069478364713   110.20132167   172.62403913
 H      8   3   2     2.071861630649   109.67878301   179.02231303
 H      8   3   2     2.079665254821   108.69772651   296.42530575
 O      3   2   1     2.709731977563   111.19727359   180.40214037
 H      3   2   1     2.076747969685   108.99685052    65.19938439
 C      1   2   3     2.558789697986   120.89871781   232.73083587
 C      6   1   2     2.528315171287   123.32294564   129.85032835
 H     16   6   1     2.053145553093   121.41100351     0.70247186
 H     16   6   1     2.054981661135   120.93876065   181.36150599
 C     15   1   2     2.729868038180   126.49515631   174.75313679
 H     15   1   2     2.058214131277   116.14658635   357.75168905
 C     19  15   1     2.551937097734   126.36225979   176.27753441
 H     19  15   1     2.055567518629   115.89147601   355.11068935
 C     21  19  15     2.848967124054   125.63041039   356.60579051
 C     23  21  19     2.909798567453   111.80410127   127.13972985
 H     23  21  19     2.066332060114   112.33056706     2.97910326
 H     23  21  19     2.082183281115   107.72787039   245.78832688
 C     24  23  21     2.899417182883   112.56975100    50.95410148
 H     24  23  21     2.073751056865   109.13131397   288.86838095
 H     24  23  21     2.072946808365   109.18293768   172.84411467
 C     27  24  23     2.901894768776   111.84881928   306.09050669
 H     27  24  23     2.069042410548   108.93687656   182.43844768
 H     27  24  23     2.079798411384   109.17829831    65.96998970
 C     21  19  15     2.830839425685   122.81294782   176.66388656
 H     33  21  19     2.089753516059   106.53486819   124.46006031
 C     33  21  19     2.880313158762   121.07848972     1.83246856
 H     13   3   2     1.826885790622   107.55195184    62.10667353
 C     35  33  21     2.926426031067   103.37910004   195.47333083
 H     35  33  21     2.069738136529   112.28352312    73.72795160
 H     35  33  21     2.070696525921   110.68298205   314.04451888
 C     30  27  24     2.941200333613   115.92144043   166.51534049
 H     37  35  33     2.066182985203   111.18496058   250.98088768
 H     37  35  33     2.072174910542   111.13225731   132.69564334
 H     40  30  27     2.081709327055   105.79873934   321.64741413
 C     40  30  27     2.900329543137   117.95336190    82.59590869
 C     30  27  24     2.901334907843   111.10742799   294.80736713
 H     45  30  27     2.067908433871   111.22682168    67.71455931
 H     45  30  27     2.069757747730   110.94167638   307.57655395
 H     45  30  27     2.068457713970   111.64030540   187.53200794
 H     44  40  30     2.081824305853   107.31745501    62.89842202
 C     44  40  30     2.910628528731   114.13976065   304.10181680
 C     44  40  30     2.860285280501   113.76435900   180.64964596
 C     51  44  40     2.519385512828   127.21076679    22.26685754
 H     51  44  40     2.062294941583   113.70456602   197.71347512
 H     52  51  44     2.056979986560   118.78356897   355.80564243
 C     52  51  44     2.852312374834   126.24886705   174.93568106
 C     55  52  51     2.891438344464   113.08106183    16.71620939
 C     55  52  51     2.938627916042   110.67065540   250.43849835
 H     55  52  51     2.086333960486   106.84435726   135.43935404
 H     57  55  52     2.081958559705   106.72832817    65.31371389
 C     57  55  52     2.895816659695   112.06758592   306.91304319
 C     57  55  52     2.895511530778   111.70860011   183.70353417
 H     56  55  52     2.069015902510   110.77807110    48.77938593
 H     56  55  52     2.072486713384   111.18474364   288.70778696
 H     56  55  52     2.065056561233   111.20499046   168.55273881
 H     60  57  55     2.069955609186   110.38497555   184.38262574
 H     60  57  55     2.067026963433   112.28941656    64.17788287
 H     60  57  55     2.074882698965   110.51743019   303.41504281
 H     61  57  55     2.074828102582   110.47206531    57.05774321
 H     61  57  55     2.066177558847   112.46962420   296.20011430
 H     61  57  55     2.070353655909   110.34574113   176.06819831
 H     50  44  40     2.070751330225   110.29983956   188.13622229
 H     50  44  40     2.065271596362   112.09878152    68.14885612
 H     50  44  40     2.071836138791   110.21835508   307.03325810

---------------------
BASIS SET INFORMATION
---------------------
There are 3 groups of distinct atoms

 Group   1 Type C   : 7s4p1d contracted to 3s2p1d pattern {511/31/1}
 Group   2 Type H   : 4s1p contracted to 2s1p pattern {31/1}
 Group   3 Type O   : 7s4p1d contracted to 3s2p1d pattern {511/31/1}

Atom   0C    basis set group =>   1
Atom   1C    basis set group =>   1
Atom   2C    basis set group =>   1
Atom   3H    basis set group =>   2
Atom   4H    basis set group =>   2
Atom   5C    basis set group =>   1
Atom   6C    basis set group =>   1
Atom   7C    basis set group =>   1
Atom   8H    basis set group =>   2
Atom   9H    basis set group =>   2
Atom  10H    basis set group =>   2
Atom  11H    basis set group =>   2
Atom  12O    basis set group =>   3
Atom  13H    basis set group =>   2
Atom  14C    basis set group =>   1
Atom  15C    basis set group =>   1
Atom  16H    basis set group =>   2
Atom  17H    basis set group =>   2
Atom  18C    basis set group =>   1
Atom  19H    basis set group =>   2
Atom  20C    basis set group =>   1
Atom  21H    basis set group =>   2
Atom  22C    basis set group =>   1
Atom  23C    basis set group =>   1
Atom  24H    basis set group =>   2
Atom  25H    basis set group =>   2
Atom  26C    basis set group =>   1
Atom  27H    basis set group =>   2
Atom  28H    basis set group =>   2
Atom  29C    basis set group =>   1
Atom  30H    basis set group =>   2
Atom  31H    basis set group =>   2
Atom  32C    basis set group =>   1
Atom  33H    basis set group =>   2
Atom  34C    basis set group =>   1
Atom  35H    basis set group =>   2
Atom  36C    basis set group =>   1
Atom  37H    basis set group =>   2
Atom  38H    basis set group =>   2
Atom  39C    basis set group =>   1
Atom  40H    basis set group =>   2
Atom  41H    basis set group =>   2
Atom  42H    basis set group =>   2
Atom  43C    basis set group =>   1
Atom  44C    basis set group =>   1
Atom  45H    basis set group =>   2
Atom  46H    basis set group =>   2
Atom  47H    basis set group =>   2
Atom  48H    basis set group =>   2
Atom  49C    basis set group =>   1
Atom  50C    basis set group =>   1
Atom  51C    basis set group =>   1
Atom  52H    basis set group =>   2
Atom  53H    basis set group =>   2
Atom  54C    basis set group =>   1
Atom  55C    basis set group =>   1
Atom  56C    basis set group =>   1
Atom  57H    basis set group =>   2
Atom  58H    basis set group =>   2
Atom  59C    basis set group =>   1
Atom  60C    basis set group =>   1
Atom  61H    basis set group =>   2
Atom  62H    basis set group =>   2
Atom  63H    basis set group =>   2
Atom  64H    basis set group =>   2
Atom  65H    basis set group =>   2
Atom  66H    basis set group =>   2
Atom  67H    basis set group =>   2
Atom  68H    basis set group =>   2
Atom  69H    basis set group =>   2
Atom  70H    basis set group =>   2
Atom  71H    basis set group =>   2
Atom  72H    basis set group =>   2

-------------------------
BASIS SET IN INPUT FORMAT
-------------------------

 # Basis set for element : H 
 NewGTO H 
 S 3 
   1      13.0107010000      0.0334854848
   2       1.9622572000      0.2347218709
   3       0.4445379600      0.8137702853
 S 1 
   1       0.1219496200      1.0000000000
 P 1 
   1       0.8000000000      1.0000000000
  end;

 # Basis set for element : C 
 NewGTO C 
 S 5 
   1    1238.4016938000      0.0055173650
   2     186.2900499200      0.0410888285
   3      42.2511763460      0.1822538213
   4      11.6765579320      0.4682845944
   5       3.5930506482      0.4457581734
 S 1 
   1       0.4024514736      1.0000000000
 S 1 
   1       0.1309018267      1.0000000000
 P 3 
   1       9.4680970621      0.0568883320
   2       2.0103545142      0.3129405934
   3       0.5477100471      0.7606501651
 P 1 
   1       0.1526861379      1.0000000000
 D 1 
   1       0.8000000000      1.0000000000
  end;

 # Basis set for element : O 
 NewGTO O 
 S 5 
   1    2266.1767785000     -0.0053893504
   2     340.8701019100     -0.0402347214
   3      77.3631351670     -0.1800818421
   4      21.4796449400     -0.4682885766
   5       6.6589433124     -0.4469261716
 S 1 
   1       0.8097597567      1.0000000000
 S 1 
   1       0.2553077223      1.0000000000
 P 3 
   1      17.7215043170      0.0626302488
   2       3.8635505440      0.3333113849
   3       1.0480920883      0.7414863830
 P 1 
   1       0.2764154441      1.0000000000
 D 1 
   1       1.2000000000      1.0000000000
  end;

---------------------------------
AUXILIARY/J BASIS SET INFORMATION
---------------------------------
There are 3 groups of distinct atoms

 Group   1 Type C   : 12s5p4d2f1g contracted to 6s4p3d1f1g pattern {711111/2111/211/2/1}
 Group   2 Type H   : 5s2p1d contracted to 3s1p1d pattern {311/2/1}
 Group   3 Type O   : 12s5p4d2f1g contracted to 6s4p3d1f1g pattern {711111/2111/211/2/1}

Atom   0C    basis set group =>   1
Atom   1C    basis set group =>   1
Atom   2C    basis set group =>   1
Atom   3H    basis set group =>   2
Atom   4H    basis set group =>   2
Atom   5C    basis set group =>   1
Atom   6C    basis set group =>   1
Atom   7C    basis set group =>   1
Atom   8H    basis set group =>   2
Atom   9H    basis set group =>   2
Atom  10H    basis set group =>   2
Atom  11H    basis set group =>   2
Atom  12O    basis set group =>   3
Atom  13H    basis set group =>   2
Atom  14C    basis set group =>   1
Atom  15C    basis set group =>   1
Atom  16H    basis set group =>   2
Atom  17H    basis set group =>   2
Atom  18C    basis set group =>   1
Atom  19H    basis set group =>   2
Atom  20C    basis set group =>   1
Atom  21H    basis set group =>   2
Atom  22C    basis set group =>   1
Atom  23C    basis set group =>   1
Atom  24H    basis set group =>   2
Atom  25H    basis set group =>   2
Atom  26C    basis set group =>   1
Atom  27H    basis set group =>   2
Atom  28H    basis set group =>   2
Atom  29C    basis set group =>   1
Atom  30H    basis set group =>   2
Atom  31H    basis set group =>   2
Atom  32C    basis set group =>   1
Atom  33H    basis set group =>   2
Atom  34C    basis set group =>   1
Atom  35H    basis set group =>   2
Atom  36C    basis set group =>   1
Atom  37H    basis set group =>   2
Atom  38H    basis set group =>   2
Atom  39C    basis set group =>   1
Atom  40H    basis set group =>   2
Atom  41H    basis set group =>   2
Atom  42H    basis set group =>   2
Atom  43C    basis set group =>   1
Atom  44C    basis set group =>   1
Atom  45H    basis set group =>   2
Atom  46H    basis set group =>   2
Atom  47H    basis set group =>   2
Atom  48H    basis set group =>   2
Atom  49C    basis set group =>   1
Atom  50C    basis set group =>   1
Atom  51C    basis set group =>   1
Atom  52H    basis set group =>   2
Atom  53H    basis set group =>   2
Atom  54C    basis set group =>   1
Atom  55C    basis set group =>   1
Atom  56C    basis set group =>   1
Atom  57H    basis set group =>   2
Atom  58H    basis set group =>   2
Atom  59C    basis set group =>   1
Atom  60C    basis set group =>   1
Atom  61H    basis set group =>   2
Atom  62H    basis set group =>   2
Atom  63H    basis set group =>   2
Atom  64H    basis set group =>   2
Atom  65H    basis set group =>   2
Atom  66H    basis set group =>   2
Atom  67H    basis set group =>   2
Atom  68H    basis set group =>   2
Atom  69H    basis set group =>   2
Atom  70H    basis set group =>   2
Atom  71H    basis set group =>   2
Atom  72H    basis set group =>   2

-------------------------------------
AUXILIARY/J BASIS SET IN INPUT FORMAT
-------------------------------------

 # Auxiliary/J basis set for element : H 
 NewAuxJGTO H 
 S 3 
   1      15.6752927000      0.1007184237
   2       3.6063578000      0.3404257499
   3       1.2080016000      0.6491996172
 S 1 
   1       0.4726794000      1.0000000000
 S 1 
   1       0.2018100000      1.0000000000
 P 2 
   1       2.0281365000      0.5596620919
   2       0.5358730000      0.5596620919
 D 1 
   1       2.2165124000      1.0000000000
  end;

 # Auxiliary/J basis set for element : C 
 NewAuxJGTO C 
 S 7 
   1    1861.0916331000      0.0134602335
   2     642.9939764000      0.0299160374
   3     235.1105725000      0.1008649584
   4      90.7028894000      0.2370970548
   5      36.7794552000      0.3924037254
   6      15.6046273000      0.3195862154
   7       6.8907294000      0.0530104441
 S 1 
   1       3.1478850000     -1.0000000000
 S 1 
   1       1.4777287000      1.0000000000
 S 1 
   1       0.7076466000      1.0000000000
 S 1 
   1       0.3430122000      1.0000000000
 S 1 
   1       0.1669453000      1.0000000000
 P 2 
   1      13.5472892000     -0.6769313712
   2       5.4669419000     -0.3779500978
 P 1 
   1       2.1751721000      1.0000000000
 P 1 
   1       0.8582194000      1.0000000000
 P 1 
   1       0.3376720000      1.0000000000
 D 2 
   1       5.9287253000     -0.3533329857
   2       1.9809209000     -0.7456525731
 D 1 
   1       0.8055417000     -1.0000000000
 D 1 
   1       0.3531244000     -1.0000000000
 F 2 
   1       1.6755626000      0.6311076882
   2       0.5997536000      0.4968166032
 G 1 
   1       1.0024600000     -1.0000000000
  end;

 # Auxiliary/J basis set for element : O 
 NewAuxJGTO O 
 S 7 
   1    2876.8216605000      0.0168151159
   2    1004.7443032000      0.0340137548
   3     369.7579954000      0.1194951309
   4     142.9442404000      0.2664627624
   5      57.8366425000      0.4202764046
   6      24.3864983000      0.2765077335
   7      10.6622662000      0.0057008815
 S 1 
   1       4.8070437000     -1.0000000000
 S 1 
   1       2.2210770000      1.0000000000
 S 1 
   1       1.0447795000      1.0000000000
 S 1 
   1       0.4968425000      1.0000000000
 S 1 
   1       0.2371384000      1.0000000000
 P 2 
   1      64.2613382000     -0.2731534179
   2      16.3006076000     -0.8168011598
 P 1 
   1       4.3550542000      1.0000000000
 P 1 
   1       1.2019554000      1.0000000000
 P 1 
   1       0.3354196000      1.0000000000
 D 2 
   1       9.2146611000     -0.4661230638
   2       2.8435251000     -0.6600908911
 D 1 
   1       0.9955759000     -1.0000000000
 D 1 
   1       0.3649441000     -1.0000000000
 F 2 
   1       2.6420115000      0.5931563945
   2       0.7345613000      0.5931563945
 G 1 
   1       1.3931000000     -1.0000000000
  end;



           ************************************************************
           *        Program running with 4 parallel MPI-processes     *
           *              working on a common directory               *
           ************************************************************
------------------------------------------------------------------------------
                             ORCA STARTUP CALCULATIONS
                           -- RI-GTO INTEGRALS CHOSEN --
------------------------------------------------------------------------------
------------------------------------------------------------------------------
                   ___                                                        
                  /   \      - P O W E R E D   B Y -                         
                 /     \                                                     
                 |  |  |   _    _      __       _____    __    __             
                 |  |  |  | |  | |    /  \     |  _  \  |  |  /  |          
                  \  \/   | |  | |   /    \    | | | |  |  | /  /          
                 / \  \   | |__| |  /  /\  \   | |_| |  |  |/  /          
                |  |  |   |  __  | /  /__\  \  |    /   |      \           
                |  |  |   | |  | | |   __   |  |    \   |  |\   \          
                \     /   | |  | | |  |  |  |  | |\  \  |  | \   \       
                 \___/    |_|  |_| |__|  |__|  |_| \__\ |__|  \__/        
                                                                              
                      - O R C A' S   B I G   F R I E N D -                    
                                      &                                       
                       - I N T E G R A L  F E E D E R -                       
                                                                              
 v1 FN, 2020, v2 2021, v3 2022-2024                                           
------------------------------------------------------------------------------


----------------------
SHARK INTEGRAL PACKAGE
----------------------

Number of atoms                             ...     73
Number of basis functions                   ...    626
Number of shells                            ...    306
Maximum angular momentum                    ...      2
Integral batch strategy                     ... SHARK/LIBINT Hybrid
RI-J (if used) integral strategy            ... SPLIT-RIJ (Revised 2003 algorithm where possible)
Printlevel                                  ...      1
Contraction scheme used                     ... SEGMENTED contraction
Prescreening option                         ... SCHWARTZ
   Thresh                                   ... 3.000e-11
   Tcut                                     ... 1.000e-12
   Tpresel                                  ... 1.000e-12 
Coulomb Range Separation                    ... NOT USED
Exchange Range Separation                   ... Long Range
   Mu parameter                             ... 3.000e-01
   Scaling (regular/separated)              ... 1.670e-01 8.330e-01
Multipole approximations                    ... NOT USED
Finite Nucleus Model                        ... NOT USED
CABS basis                                  ... NOT available
Auxiliary Coulomb fitting basis             ... AVAILABLE
   # of basis functions in Aux-J            ...   1905
   # of shells in Aux-J                     ...    655
   Maximum angular momentum in Aux-J        ...      4
Auxiliary J/K fitting basis                 ... NOT available
Auxiliary Correlation fitting basis         ... NOT available
Auxiliary 'external' fitting basis          ... NOT available

Checking pre-screening integrals            ... done (  0.0 sec) Dimension = 306
Check shell pair data                       ... done (  0.0 sec)
Shell pair information
Shell pair cut-off parameter TPreSel        ...   1.0e-12
Total number of shell pairs                 ...     46971
Shell pairs after pre-screening             ...     27463
Total number of primitive shell pairs       ...    162105
Primitive shell pairs kept                  ...     60667
          la=0 lb=0:   9625 shell pairs
          la=1 lb=0:  10535 shell pairs
          la=1 lb=1:   2906 shell pairs
          la=2 lb=0:   2735 shell pairs
          la=2 lb=1:   1468 shell pairs
          la=2 lb=2:    194 shell pairs

Calculating one electron integrals          ... done (  0.1 sec)
Calculating RI/J V-Matrix + Cholesky decomp.... done (  0.2 sec)
Calculating Nuclear repulsion               ... done (  0.0 sec) ENN=   2770.493765773488 Eh

Diagonalization of the overlap matrix:
Smallest eigenvalue                        ... 4.534e-04
Time for diagonalization                   ...    0.046 sec
Threshold for overlap eigenvalues          ... 1.000e-07
Number of eigenvalues below threshold      ... 0
Time for construction of square roots      ...    0.025 sec
Total time needed                          ...    0.074 sec

-------------------
DFT GRID GENERATION
-------------------

General Integration Accuracy     IntAcc      ... 4.388
Radial Grid Type                 RadialGrid  ... OptM3 with GC (2021)
Angular Grid (max. ang.)         AngularGrid ... 4 (Lebedev-302)
Angular grid pruning method      GridPruning ... 4 (adaptive)
Weight generation scheme         WeightScheme... mBecke (2022)
Basis function cutoff            BFCut       ... 1.0000e-11
Integration weight cutoff        WCut        ... 1.0000e-14
Partially contracted basis set               ... off
Rotationally invariant grid construction     ... off
Angular grids for H and He will be reduced by one unit

Total number of grid points                  ...   310032
Total number of batches                      ...     4886
Average number of points per batch           ...       63
Average number of grid points per atom       ...     4247

--------------------
COSX GRID GENERATION
--------------------

GRIDX 1
-------
General Integration Accuracy     IntAcc      ... 3.816
Radial Grid Type                 RadialGrid  ... OptM3 with GC (2021)
Angular Grid (max. ang.)         AngularGrid ... 1 (Lebedev-50)
Angular grid pruning method      GridPruning ... 4 (adaptive)
Weight generation scheme         WeightScheme... mBecke (2022)
Basis function cutoff            BFCut       ... 1.0000e-11
Integration weight cutoff        WCut        ... 1.0000e-14
Partially contracted basis set               ... on
Rotationally invariant grid construction     ... off
Angular grids for H and He will be reduced by one unit

Total number of grid points                  ...    39416
Total number of batches                      ...      353
Average number of points per batch           ...      111
Average number of grid points per atom       ...      540
UseSFitting                                  ... on

GRIDX 2
-------
General Integration Accuracy     IntAcc      ... 4.020
Radial Grid Type                 RadialGrid  ... OptM3 with GC (2021)
Angular Grid (max. ang.)         AngularGrid ... 2 (Lebedev-110)
Angular grid pruning method      GridPruning ... 4 (adaptive)
Weight generation scheme         WeightScheme... mBecke (2022)
Basis function cutoff            BFCut       ... 1.0000e-11
Integration weight cutoff        WCut        ... 1.0000e-14
Partially contracted basis set               ... on
Rotationally invariant grid construction     ... off
Angular grids for H and He will be reduced by one unit

Total number of grid points                  ...    81495
Total number of batches                      ...      674
Average number of points per batch           ...      120
Average number of grid points per atom       ...     1116
UseSFitting                                  ... on

GRIDX 3
-------
General Integration Accuracy     IntAcc      ... 4.338
Radial Grid Type                 RadialGrid  ... OptM3 with GC (2021)
Angular Grid (max. ang.)         AngularGrid ... 3 (Lebedev-194)
Angular grid pruning method      GridPruning ... 4 (adaptive)
Weight generation scheme         WeightScheme... mBecke (2022)
Basis function cutoff            BFCut       ... 1.0000e-11
Integration weight cutoff        WCut        ... 1.0000e-14
Partially contracted basis set               ... on
Rotationally invariant grid construction     ... off
Angular grids for H and He will be reduced by one unit

Total number of grid points                  ...   176434
Total number of batches                      ...     1421
Average number of points per batch           ...      124
Average number of grid points per atom       ...     2417
UseSFitting                                  ... on
Initializing property integral containers    ... done (  0.0 sec)

SHARK setup successfully completed in   4.5 seconds

Maximum memory used throughout the entire STARTUP-calculation: 95.4 MB


           ************************************************************
           *        Program running with 4 parallel MPI-processes     *
           *              working on a common directory               *
           ************************************************************
-------------------------------------------------------------------------------
                                 ORCA GUESS
                   Start orbitals & Density for SCF / CASSCF
-------------------------------------------------------------------------------

------------
SCF SETTINGS
------------
Hamiltonian:
 Density Functional     Method          .... DFT(GTOs)
 Exchange Functional    Exchange        .... WB97X-V
 Correlation Functional Correlation     .... WB97X-V
 Gradients option       PostSCFGGA      .... off
 Hybrid DFT is turned on
   Fraction HF Exchange ScalHFX         ....  0.167000
   Scaling of DF-GGA-X  ScalDFX         ....  0.000000
   Scaling of DF-GGA-C  ScalDFC         ....  1.000000
   Scaling of DF-LDA-C  ScalLDAC        ....  1.000000
   Perturbative correction              ....  0.000000
 Long-range corrected/Screened/Range-Separated Hybrid DFT is turned on
   Amount of maximum screened exact exchange              ....  0.833000
   Range separation parameter mu (erf(mu*r12)/r12)        ....  0.300000
 RI-approximation to the Coulomb term is turned on
   Number of AuxJ basis functions       .... 1905
   RIJ-COSX (HFX calculated with COS-X)).... on


General Settings:
 Integral files         IntName         .... inpS
 Hartree-Fock type      HFTyp           .... RHF
 Total Charge           Charge          ....    0
 Multiplicity           Mult            ....    1
 Number of Electrons    NEL             ....  220
 Basis Dimension        Dim             ....  626
 Nuclear Repulsion      ENuc            ....   2770.4937657735 Eh

Convergence Acceleration:
 AO-DIIS                CNVDIIS         .... on
   Start iteration      DIISMaxIt       ....    12
   Startup error        DIISStart       ....  0.200000
   # of expansion vecs  DIISMaxEq       ....     5
   Bias factor          DIISBfac        ....   1.050
   Max. coefficient     DIISMaxC        ....  10.000
 MO-DIIS                CNVKDIIS        .... off
 Trust-Rad. Augm. Hess. CNVTRAH         .... auto
   Auto Start mean grad. ratio tolernc. ....  1.125000
   Auto Start start iteration           ....    50
   Auto Start num. interpolation iter.  ....    10
   Max. Number of Micro iterations      ....    24
   Max. Number of Macro iterations      .... Maxiter - #DIIS iter
   Number of Davidson start vectors     ....     2
   Converg. threshold    (grad. norm)   ....   1.000e-04
   Grad. Scal. Fac. for Micro threshold ....   0.100
   Minimum threshold for Micro iter.    ....   1.000e-02
   NR start threshold (gradient norm)   ....   1.000e-04
   Initial trust radius                 ....   0.400
   Minimum AH scaling param. (alpha)    ....   1.000
   Maximum AH scaling param. (alpha)    .... 1000.000
   Quad. conv. algorithm                .... NR
   White noise on init. David. guess    .... on
   Maximum white noise                  ....   0.010
   Pseudo random numbers                .... off
   Inactive MOs                         .... canonical
   Orbital update algorithm             .... Taylor
   Preconditioner                       .... Diag
   Full preconditioner red. dimension   ....   250
 SOSCF                  CNVSOSCF        .... off
 Level Shifting         CNVShift        .... on
   Level shift para.    LevelShift      ....    0.2500
   Turn off err/grad.   ShiftErr        ....    0.0010
 Zerner damping         CNVZerner       .... off
 Static damping         CNVDamp         .... on
   Fraction old density DampFac         ....    0.7000
   Max. Damping (<1)    DampMax         ....    0.9800
   Min. Damping (>=0)   DampMin         ....    0.0000
   Turn off err/grad.   DampErr         ....    0.1000

SCF Procedure:
 Maximum # iterations   MaxIter         ....   125
 SCF integral mode      SCFMode         .... Direct
   Integral package                     .... SHARK and LIBINT hybrid scheme
 Reset frequency        DirectResetFreq ....    20
 Integral Threshold     Thresh          ....  3.000e-11 Eh
 Primitive CutOff       TCut            ....  1.000e-12 Eh

Convergence Tolerance:
 Convergence Check Mode ConvCheckMode   .... Total+1el-Energy
 Convergence forced     ConvForced      .... 0
 Energy Change          TolE            ....  1.000e-07 Eh
 1-El. energy change                    ....  1.000e-04 Eh
 DIIS Error             TolErr          ....  1.000e-07

------------------------------
INITIAL GUESS: MODEL POTENTIAL
------------------------------
Loading Hartree-Fock densities                     ... done
Calculating cut-offs                               ... done
Initializing the effective Hamiltonian             ... done
Setting up the integral package (SHARK)            ... done
Starting the Coulomb interaction                   ... done (   0.6 sec)
Making the grid                                    ... done (   0.5 sec)
Mapping shells                                     ... done
Starting the XC term evaluation                    ... done (   0.3 sec)
  promolecular density results
     # of electrons  =    219.969642314
     EX              =   -109.116014139
     EC              =     -8.882560779
     EX+EC           =   -117.998574918
Transforming the Hamiltonian                       ... done (   0.0 sec)
Diagonalizing the Hamiltonian                      ... done (   0.1 sec)
Back transforming the eigenvectors                 ... done (   0.0 sec)
Now organizing SCF variables                       ... done
                      ------------------
                      INITIAL GUESS DONE (   1.4 sec)
                      ------------------
             **** ENERGY FILE WAS UPDATED (inpS.en.tmp) ****
Finished Guess after   1.6 sec
Maximum memory used throughout the entire GUESS-calculation: 56.3 MB


           ************************************************************
           *        Program running with 4 parallel MPI-processes     *
           *              working on a common directory               *
           ************************************************************

-------------------------------------------------------------------------------------------
                                      ORCA LEAN-SCF
                              memory conserving SCF solver
-------------------------------------------------------------------------------------------

--------------------
CPCM SOLVATION MODEL
--------------------
CPCM parameters:
  Epsilon                                         ...       4.8030
  Refrac                                          ...       1.4459
  Rsolv                                           ...       1.3000
  Surface type                                    ... GAUSSIAN VDW
  Discretization scheme                           ... Constant charge density
    Threshold for H atoms                         ...       5.0000 (charges/Ang^2)
    Threshold for non-H atoms                     ...       5.0000 (charges/Ang^2)
  Epsilon function type                           ...         CPCM
Solvent:                                          ... CHLOROFORM
Radii:
  Scheme                                          ... Element-dependent radii
  Radius for C  used is    3.8550 Bohr (=   2.0400 Ang.)
  Radius for H  used is    2.4944 Bohr (=   1.3200 Ang.)
  Radius for O  used is    3.4469 Bohr (=   1.8240 Ang.)
Calculating surface                               ...        done! (  0.0s)
Cavity surface points                             ...         5425
Cavity Volume                                     ...    3605.8996
Cavity Surface-area                               ...    1796.5512
Calculating surface distance matrix               ...        done! (  0.2s)
Performing Cholesky decomposition & store         ...        done! (  1.0s)
Overall time for CPCM initialization              ...                 1.2s

----------------------------------------D-I-I-S--------------------------------------------
Iteration    Energy (Eh)           Delta-E    RMSDP     MaxDP     DIISErr   Damp  Time(sec)
-------------------------------------------------------------------------------------------
               ***  Starting incremental Fock matrix formation  ***
    1    -1168.2256844911107692     0.00e+00  7.45e-04  5.65e-02  5.64e-02  0.700  24.2

  HOMO= 109 E= -7.293 eV LUMO=  8.320 eV gap=  15.613 eV
    2    -1168.2684637642182679    -4.28e-02  6.29e-04  4.64e-02  3.92e-02  0.700  10.8

  HOMO= 109 E= -7.467 eV LUMO=  8.230 eV gap=  15.698 eV
                               ***Turning on AO-DIIS***
    3    -1168.2957953558679947    -2.73e-02  4.99e-04  3.72e-02  2.70e-02  0.700  10.9

  HOMO= 109 E= -7.811 eV LUMO=  8.027 eV gap=  15.838 eV
    4    -1168.3141163335722013    -1.83e-02  1.30e-03  9.38e-02  1.91e-02  0.000  10.8

  HOMO= 109 E= -7.857 eV LUMO=  8.026 eV gap=  15.883 eV
    5    -1168.3584497475940225    -4.43e-02  1.34e-04  5.99e-03  3.46e-03  0.000  11.6

  HOMO= 109 E= -7.864 eV LUMO=  8.069 eV gap=  15.934 eV
    6    -1168.3588112909374104    -3.62e-04  5.19e-05  2.50e-03  2.02e-03  0.000   9.8

  HOMO= 109 E= -7.865 eV LUMO=  8.089 eV gap=  15.953 eV
    7    -1168.3588764536343660    -6.52e-05  2.64e-05  1.22e-03  1.25e-03  0.000   9.1

  HOMO= 109 E= -7.878 eV LUMO=  8.089 eV gap=  15.967 eV
    8    -1168.3588968603821741    -2.04e-05  1.22e-05  6.05e-04  6.69e-04  0.000   8.6

  HOMO= 109 E= -7.879 eV LUMO=  8.095 eV gap=  15.974 eV
               *** Restarting incremental Fock matrix formation ***
                             ****Resetting DIIS****
    9    -1168.3589321656031643    -3.53e-05  6.75e-06  4.10e-04  3.53e-04  0.000  23.9

  HOMO= 109 E= -7.880 eV LUMO=  1.292 eV gap=   9.172 eV
   10    -1168.3589336823888516    -1.52e-06  3.34e-06  2.15e-04  1.54e-04  0.000  13.1

  HOMO= 109 E= -7.882 eV LUMO=  1.294 eV gap=   9.176 eV
   11    -1168.3589339541017580    -2.72e-07  1.38e-06  8.06e-05  1.11e-04  0.000  11.1

  HOMO= 109 E= -7.882 eV LUMO=  1.295 eV gap=   9.177 eV
   12    -1168.3589340271209949    -7.30e-08  3.17e-07  1.52e-05  1.75e-05  0.000   9.4
                 **** Energy Check signals convergence ****

  HOMO= 109 E= -7.882 eV LUMO=  1.295 eV gap=   9.177 eV

               *****************************************************
               *                     SUCCESS                       *
               *           SCF CONVERGED AFTER  12 CYCLES          *
               *****************************************************

Recomputing exchange energy using gridx3       ... done (   40.728 sec)
Old exchange energy                            :    -56.782521830 Eh
New exchange energy                            :    -56.782570136 Eh
Exchange energy change after final integration :     -0.000048306 Eh
Total energy after final integration           :  -1168.358982333 Eh
             **** ENERGY FILE WAS UPDATED (inpS.en.tmp) ****

----------------
TOTAL SCF ENERGY
----------------

Total Energy       :      -1168.35898233303169 Eh          -31792.66422 eV

Components:
Nuclear Repulsion  :       2770.49376577348812 Eh           75388.96807 eV
Electronic Energy  :      -3938.84198269499939 Eh         -107181.33934 eV
One Electron Energy:      -7086.29979616454239 Eh         -192828.02064 eV
Two Electron Energy:       3147.45781346954300 Eh           85646.68130 eV
CPCM Dielectric    :         -0.01071710560970 Eh              -0.29163 eV

Virial components:
Potential Energy   :      -2321.68264495148469 Eh          -63176.19658 eV
Kinetic Energy     :       1153.32366261845323 Eh           31383.53237 eV
Virial Ratio       :          2.01303651368814

DFT components:
N(Alpha)           :      110.000151125860 electrons
N(Beta)            :      110.000151125860 electrons
N(Total)           :      220.000302251721 electrons
E(X)               :     -111.769939552280 Eh       
E(C)               :       -8.951606826592 Eh       
E(XC)              :     -120.721546378872 Eh       

CPCM Solvation Model Properties:
Surface-charge          :         -0.04164504934153
Corrected charge        :         -0.00000000000000
Outlying charge corr.   :          0.00006043522815 Eh               0.00164 eV
Free-energy (cav+disp)  :  This term is not implemented in the current solvation scheme

---------------
SCF CONVERGENCE
---------------

  Last Energy change         ...    7.3019e-08  Tolerance :   1.0000e-07
  Last MAX-Density change    ...    1.5190e-05  Tolerance :   1.0000e-05
  Last RMS-Density change    ...    3.1709e-07  Tolerance :   1.0000e-06
  Last DIIS Error            ...    1.7457e-05  Tolerance :   1.0000e-07


----------------
ORBITAL ENERGIES
----------------

  NO   OCC          E(Eh)            E(eV) 
   0   2.0000     -19.213655      -522.8301 
   1   2.0000     -10.329768      -281.0873 
   2   2.0000     -10.293319      -280.0955 
   3   2.0000     -10.290103      -280.0079 
   4   2.0000     -10.286117      -279.8995 
   5   2.0000     -10.285879      -279.8930 
   6   2.0000     -10.285065      -279.8708 
   7   2.0000     -10.282811      -279.8095 
   8   2.0000     -10.282691      -279.8062 
   9   2.0000     -10.282495      -279.8009 
  10   2.0000     -10.281927      -279.7855 
  11   2.0000     -10.280862      -279.7565 
  12   2.0000     -10.279357      -279.7155 
  13   2.0000     -10.278287      -279.6864 
  14   2.0000     -10.276686      -279.6428 
  15   2.0000     -10.276618      -279.6410 
  16   2.0000     -10.276475      -279.6371 
  17   2.0000     -10.276337      -279.6334 
  18   2.0000     -10.273522      -279.5568 
  19   2.0000     -10.271893      -279.5124 
  20   2.0000     -10.271516      -279.5022 
  21   2.0000     -10.271349      -279.4976 
  22   2.0000     -10.270515      -279.4749 
  23   2.0000     -10.269897      -279.4581 
  24   2.0000     -10.269534      -279.4482 
  25   2.0000     -10.268366      -279.4164 
  26   2.0000     -10.268328      -279.4154 
  27   2.0000     -10.268306      -279.4148 
  28   2.0000     -10.266425      -279.3636 
  29   2.0000      -1.131510       -30.7899 
  30   2.0000      -0.997890       -27.1540 
  31   2.0000      -0.979074       -26.6420 
  32   2.0000      -0.957523       -26.0555 
  33   2.0000      -0.942257       -25.6401 
  34   2.0000      -0.917210       -24.9586 
  35   2.0000      -0.910399       -24.7732 
  36   2.0000      -0.889387       -24.2014 
  37   2.0000      -0.887114       -24.1396 
  38   2.0000      -0.873525       -23.7698 
  39   2.0000      -0.852636       -23.2014 
  40   2.0000      -0.832281       -22.6475 
  41   2.0000      -0.828514       -22.5450 
  42   2.0000      -0.808186       -21.9919 
  43   2.0000      -0.799154       -21.7461 
  44   2.0000      -0.795181       -21.6380 
  45   2.0000      -0.786757       -21.4088 
  46   2.0000      -0.759205       -20.6590 
  47   2.0000      -0.758019       -20.6268 
  48   2.0000      -0.724011       -19.7013 
  49   2.0000      -0.712791       -19.3960 
  50   2.0000      -0.712191       -19.3797 
  51   2.0000      -0.700917       -19.0729 
  52   2.0000      -0.688928       -18.7467 
  53   2.0000      -0.679137       -18.4803 
  54   2.0000      -0.658610       -17.9217 
  55   2.0000      -0.631887       -17.1945 
  56   2.0000      -0.622563       -16.9408 
  57   2.0000      -0.619176       -16.8486 
  58   2.0000      -0.605271       -16.4703 
  59   2.0000      -0.604421       -16.4471 
  60   2.0000      -0.587666       -15.9912 
  61   2.0000      -0.584868       -15.9151 
  62   2.0000      -0.569635       -15.5005 
  63   2.0000      -0.567910       -15.4536 
  64   2.0000      -0.563622       -15.3369 
  65   2.0000      -0.560880       -15.2623 
  66   2.0000      -0.552341       -15.0300 
  67   2.0000      -0.551165       -14.9980 
  68   2.0000      -0.546626       -14.8745 
  69   2.0000      -0.538344       -14.6491 
  70   2.0000      -0.537500       -14.6261 
  71   2.0000      -0.529834       -14.4175 
  72   2.0000      -0.528684       -14.3862 
  73   2.0000      -0.522594       -14.2205 
  74   2.0000      -0.517959       -14.0944 
  75   2.0000      -0.508667       -13.8415 
  76   2.0000      -0.504384       -13.7250 
  77   2.0000      -0.502289       -13.6680 
  78   2.0000      -0.496298       -13.5050 
  79   2.0000      -0.492304       -13.3963 
  80   2.0000      -0.489362       -13.3162 
  81   2.0000      -0.487804       -13.2738 
  82   2.0000      -0.483214       -13.1489 
  83   2.0000      -0.478155       -13.0113 
  84   2.0000      -0.477487       -12.9931 
  85   2.0000      -0.472750       -12.8642 
  86   2.0000      -0.465130       -12.6568 
  87   2.0000      -0.461167       -12.5490 
  88   2.0000      -0.454109       -12.3569 
  89   2.0000      -0.452591       -12.3156 
  90   2.0000      -0.448425       -12.2023 
  91   2.0000      -0.446604       -12.1527 
  92   2.0000      -0.441498       -12.0138 
  93   2.0000      -0.430954       -11.7268 
  94   2.0000      -0.426046       -11.5933 
  95   2.0000      -0.422828       -11.5057 
  96   2.0000      -0.420014       -11.4292 
  97   2.0000      -0.419226       -11.4077 
  98   2.0000      -0.418101       -11.3771 
  99   2.0000      -0.413251       -11.2451 
 100   2.0000      -0.411396       -11.1946 
 101   2.0000      -0.408009       -11.1025 
 102   2.0000      -0.403361       -10.9760 
 103   2.0000      -0.399431       -10.8691 
 104   2.0000      -0.393807       -10.7160 
 105   2.0000      -0.380832       -10.3630 
 106   2.0000      -0.371739       -10.1155 
 107   2.0000      -0.356983        -9.7140 
 108   2.0000      -0.336478        -9.1560 
 109   2.0000      -0.289669        -7.8823 
 110   0.0000       0.047582         1.2948 
 111   0.0000       0.100597         2.7374 
 112   0.0000       0.109057         2.9676 
 113   0.0000       0.131575         3.5803 
 114   0.0000       0.145724         3.9654 
 115   0.0000       0.147302         4.0083 
 116   0.0000       0.153144         4.1673 
 117   0.0000       0.155696         4.2367 
 118   0.0000       0.158360         4.3092 
 119   0.0000       0.159224         4.3327 
 120   0.0000       0.168535         4.5861 
*Only the first 10 virtual orbitals were printed.

                    ********************************
                    * MULLIKEN POPULATION ANALYSIS *
                    ********************************

-----------------------
MULLIKEN ATOMIC CHARGES
-----------------------
   0 C :   -0.127068
   1 C :    0.143846
   2 C :    0.082019
   3 H :    0.016723
   4 H :    0.013294
   5 C :   -0.184655
   6 C :    0.110887
   7 C :    0.006603
   8 H :    0.029990
   9 H :    0.012206
  10 H :    0.023604
  11 H :    0.011477
  12 O :   -0.355406
  13 H :    0.014123
  14 C :   -0.025115
  15 C :   -0.044396
  16 H :    0.036107
  17 H :    0.029295
  18 C :   -0.059180
  19 H :   -0.006719
  20 C :   -0.117622
  21 H :    0.001156
  22 C :    0.115108
  23 C :   -0.000823
  24 H :    0.012499
  25 H :    0.017184
  26 C :    0.106644
  27 H :    0.012456
  28 H :    0.014848
  29 C :   -0.420567
  30 H :    0.008633
  31 H :   -0.002642
  32 C :   -0.035812
  33 H :    0.009519
  34 C :    0.107611
  35 H :    0.181674
  36 C :    0.072492
  37 H :    0.007134
  38 H :    0.015424
  39 C :   -0.039028
  40 H :    0.010101
  41 H :   -0.000035
  42 H :   -0.000915
  43 C :    0.000756
  44 C :    0.095147
  45 H :    0.023742
  46 H :    0.016722
  47 H :    0.020032
  48 H :    0.006128
  49 C :    0.052270
  50 C :   -0.096856
  51 C :   -0.082507
  52 H :    0.009619
  53 H :    0.026077
  54 C :   -0.044400
  55 C :    0.043504
  56 C :   -0.178285
  57 H :    0.004126
  58 H :    0.006963
  59 C :    0.027773
  60 C :    0.033040
  61 H :    0.020103
  62 H :    0.020439
  63 H :    0.024457
  64 H :    0.018137
  65 H :    0.024294
  66 H :    0.013556
  67 H :    0.012970
  68 H :    0.024097
  69 H :    0.018476
  70 H :    0.012782
  71 H :    0.030837
  72 H :    0.013325
Sum of atomic charges:   -0.0000000

--------------------------------
MULLIKEN REDUCED ORBITAL CHARGES
--------------------------------
  0 C s       :     3.077717  s :     3.077717
      pz      :     1.006585  p :     3.006499
      px      :     0.994173
      py      :     1.005741
      dz2     :     0.003262  d :     0.042852
      dxz     :     0.008026
      dyz     :     0.005704
      dx2y2   :     0.014031
      dxy     :     0.011829

  1 C s       :     2.932287  s :     2.932287
      pz      :     0.978078  p :     2.889422
      px      :     0.937597
      py      :     0.973748
      dz2     :     0.006035  d :     0.034445
      dxz     :     0.009690
      dyz     :     0.005399
      dx2y2   :     0.008126
      dxy     :     0.005194

  2 C s       :     3.074983  s :     3.074983
      pz      :     1.041497  p :     2.771863
      px      :     0.778841
      py      :     0.951524
      dz2     :     0.010637  d :     0.071135
      dxz     :     0.016643
      dyz     :     0.010130
      dx2y2   :     0.018358
      dxy     :     0.015367

  3 H s       :     0.960086  s :     0.960086
      pz      :     0.011044  p :     0.023191
      px      :     0.007871
      py      :     0.004276

  4 H s       :     0.963916  s :     0.963916
      pz      :     0.005157  p :     0.022790
      px      :     0.003855
      py      :     0.013778

  5 C s       :     3.111923  s :     3.111923
      pz      :     0.997019  p :     3.027932
      px      :     0.979007
      py      :     1.051907
      dz2     :     0.011098  d :     0.044800
      dxz     :     0.007188
      dyz     :     0.012144
      dx2y2   :     0.007897
      dxy     :     0.006472

  6 C s       :     2.948927  s :     2.948927
      pz      :     0.975677  p :     2.904714
      px      :     0.960619
      py      :     0.968419
      dz2     :     0.005859  d :     0.035472
      dxz     :     0.009676
      dyz     :     0.005797
      dx2y2   :     0.008565
      dxy     :     0.005575

  7 C s       :     3.013052  s :     3.013052
      pz      :     0.990266  p :     2.945320
      px      :     0.997359
      py      :     0.957695
      dz2     :     0.004697  d :     0.035026
      dxz     :     0.009051
      dyz     :     0.006964
      dx2y2   :     0.008919
      dxy     :     0.005393

  8 H s       :     0.946726  s :     0.946726
      pz      :     0.011616  p :     0.023284
      px      :     0.007316
      py      :     0.004352

  9 H s       :     0.964973  s :     0.964973
      pz      :     0.005439  p :     0.022821
      px      :     0.003776
      py      :     0.013607

 10 H s       :     0.953702  s :     0.953702
      pz      :     0.009986  p :     0.022694
      px      :     0.005662
      py      :     0.007046

 11 H s       :     0.965834  s :     0.965834
      pz      :     0.011246  p :     0.022689
      px      :     0.007530
      py      :     0.003914

 12 O s       :     3.726566  s :     3.726566
      pz      :     1.507468  p :     4.616644
      px      :     1.274878
      py      :     1.834298
      dz2     :     0.002843  d :     0.012196
      dxz     :     0.004616
      dyz     :     0.001314
      dx2y2   :     0.001610
      dxy     :     0.001813

 13 H s       :     0.965647  s :     0.965647
      pz      :     0.011445  p :     0.020230
      px      :     0.005406
      py      :     0.003380

 14 C s       :     3.197102  s :     3.197102
      pz      :     0.986113  p :     2.791766
      px      :     0.900358
      py      :     0.905296
      dz2     :     0.002487  d :     0.036248
      dxz     :     0.008362
      dyz     :     0.003135
      dx2y2   :     0.012515
      dxy     :     0.009749

 15 C s       :     3.122778  s :     3.122778
      pz      :     0.986151  p :     2.895366
      px      :     0.997466
      py      :     0.911748
      dz2     :     0.007117  d :     0.026252
      dxz     :     0.004733
      dyz     :     0.007461
      dx2y2   :     0.004207
      dxy     :     0.002734

 16 H s       :     0.939347  s :     0.939347
      pz      :     0.009324  p :     0.024546
      px      :     0.006854
      py      :     0.008368

 17 H s       :     0.946081  s :     0.946081
      pz      :     0.004465  p :     0.024624
      px      :     0.004611
      py      :     0.015548

 18 C s       :     3.200321  s :     3.200321
      pz      :     1.025118  p :     2.823554
      px      :     0.891310
      py      :     0.907126
      dz2     :     0.002559  d :     0.035305
      dxz     :     0.007669
      dyz     :     0.002781
      dx2y2   :     0.012732
      dxy     :     0.009564

 19 H s       :     0.982396  s :     0.982396
      pz      :     0.005252  p :     0.024323
      px      :     0.003811
      py      :     0.015259

 20 C s       :     3.100560  s :     3.100560
      pz      :     0.956217  p :     2.973057
      px      :     0.979947
      py      :     1.036893
      dz2     :     0.003048  d :     0.044006
      dxz     :     0.008017
      dyz     :     0.006360
      dx2y2   :     0.014570
      dxy     :     0.012010

 21 H s       :     0.974364  s :     0.974364
      pz      :     0.004825  p :     0.024480
      px      :     0.003700
      py      :     0.015956

 22 C s       :     2.924513  s :     2.924513
      pz      :     0.994722  p :     2.924800
      px      :     0.973172
      py      :     0.956906
      dz2     :     0.008437  d :     0.035580
      dxz     :     0.005498
      dyz     :     0.006514
      dx2y2   :     0.009059
      dxy     :     0.006071

 23 C s       :     3.000824  s :     3.000824
      pz      :     1.011394  p :     2.963527
      px      :     0.967803
      py      :     0.984331
      dz2     :     0.009208  d :     0.036472
      dxz     :     0.009041
      dyz     :     0.002906
      dx2y2   :     0.010060
      dxy     :     0.005258

 24 H s       :     0.964250  s :     0.964250
      pz      :     0.004695  p :     0.023251
      px      :     0.013282
      py      :     0.005274

 25 H s       :     0.959505  s :     0.959505
      pz      :     0.012361  p :     0.023311
      px      :     0.005314
      py      :     0.005636

 26 C s       :     2.969961  s :     2.969961
      pz      :     0.965489  p :     2.888070
      px      :     0.980901
      py      :     0.941680
      dz2     :     0.006024  d :     0.035325
      dxz     :     0.008019
      dyz     :     0.005562
      dx2y2   :     0.008650
      dxy     :     0.007070

 27 H s       :     0.964677  s :     0.964677
      pz      :     0.012652  p :     0.022867
      px      :     0.004943
      py      :     0.005272

 28 H s       :     0.962511  s :     0.962511
[...]
 Total          138.170          176.271          190.954  iso=     168.465

 Orientation: 
  X           0.3558159   -0.5111822    0.7823604
  Y          -0.1837597   -0.8590724   -0.4777311
  Z           0.9163119    0.0262180   -0.3996063

 --------------
 Nucleus  39C :
 --------------

Diamagnetic contribution to the shielding tensor (ppm) : 
           263.871          6.473        -6.777
             4.884        271.396         5.678
            -6.377          2.248       259.337

Paramagnetic contribution to the shielding tensor (ppm): 
           -99.114         -5.663         5.547
             5.403       -126.495         5.292
            14.873          5.623      -127.356

Total shielding tensor (ppm): 
           164.757          0.810        -1.230
            10.288        144.901        10.970
             8.496          7.871       131.981


 Diagonalized sT*s matrix:
 
 sDSO           258.882          269.892          265.829  iso=     264.868
 sPSO          -131.873         -122.525          -98.568  iso=    -117.655
        ---------------  ---------------  ---------------
 Total          127.009          147.368          167.261  iso=     147.213

 Orientation: 
  X          -0.0107268   -0.3347733   -0.9422376
  Y          -0.4680118    0.8343916   -0.2911281
  Z           0.8836571    0.4378555   -0.1656282

 --------------
 Nucleus  43C :
 --------------

Diamagnetic contribution to the shielding tensor (ppm) : 
           259.548          3.814        -6.999
            -1.808        255.495         8.868
            -4.861          7.458       244.388

Paramagnetic contribution to the shielding tensor (ppm): 
           -90.284         -9.538        -3.938
             0.096        -96.105        -4.353
            -0.096         -6.578       -93.623

Total shielding tensor (ppm): 
           169.264         -5.724       -10.937
            -1.712        159.390         4.515
            -4.957          0.881       150.764


 Diagonalized sT*s matrix:
 
 sDSO           240.602          256.623          262.207  iso=     253.144
 sPSO           -92.919          -98.476          -88.617  iso=     -93.337
        ---------------  ---------------  ---------------
 Total          147.682          158.147          173.589  iso=     159.806

 Orientation: 
  X           0.3332832   -0.3263448    0.8845459
  Y          -0.1216923   -0.9452271   -0.3028807
  Z           0.9349403   -0.0066974   -0.3547419

 --------------
 Nucleus  44C :
 --------------

Diamagnetic contribution to the shielding tensor (ppm) : 
           251.229          0.489         2.869
            -1.496        259.685        -5.822
             1.643         -2.135       268.933

Paramagnetic contribution to the shielding tensor (ppm): 
           -71.224         -4.756        -2.368
            -2.152        -79.888         1.084
            -0.233         -2.318       -76.759

Total shielding tensor (ppm): 
           180.004         -4.267         0.501
            -3.648        179.798        -4.738
             1.410         -4.453       192.175


 Diagonalized sT*s matrix:
 
 sDSO           255.590          253.617          270.641  iso=     259.949
 sPSO           -80.110          -71.162          -76.598  iso=     -75.957
        ---------------  ---------------  ---------------
 Total          175.479          182.455          194.042  iso=     183.992

 Orientation: 
  X           0.6283004   -0.7612257    0.1605429
  Y           0.7587252    0.5539515   -0.3427445
  Z           0.1719730    0.3371545    0.9256091

 --------------
 Nucleus  49C :
 --------------

Diamagnetic contribution to the shielding tensor (ppm) : 
           245.963         -4.541        -4.471
           -17.329        256.675         5.122
            -9.167          7.051       246.368

Paramagnetic contribution to the shielding tensor (ppm): 
           -76.606         -0.348         1.194
            16.422        -75.409         6.204
            10.500          2.209       -71.935

Total shielding tensor (ppm): 
           169.357         -4.889        -3.277
            -0.907        181.265        11.326
             1.333          9.260       174.433


 Diagonalized sT*s matrix:
 
 sDSO           243.629          243.166          262.210  iso=     249.668
 sPSO           -76.980          -73.884          -73.086  iso=     -74.650
        ---------------  ---------------  ---------------
 Total          166.649          169.282          189.124  iso=     175.018

 Orientation: 
  X           0.3620255    0.9218632   -0.1382238
  Y           0.5837517   -0.1085986    0.8046368
  Z          -0.7267541    0.3719874    0.5774546

 --------------
 Nucleus  50C :
 --------------

Diamagnetic contribution to the shielding tensor (ppm) : 
           266.835         14.081         4.908
            18.306        236.059        -4.843
             2.777         -3.572       272.328

Paramagnetic contribution to the shielding tensor (ppm): 
          -250.644        -94.347        25.293
           -91.690       -115.454        42.594
            17.369         38.081      -215.288

Total shielding tensor (ppm): 
            16.191        -80.266        30.201
           -73.383        120.606        37.751
            20.147         34.509        57.039


 Diagonalized sT*s matrix:
 
 sDSO           272.957          273.603          228.663  iso=     258.407
 sPSO          -309.372         -208.607          -63.407  iso=    -193.795
        ---------------  ---------------  ---------------
 Total          -36.415           64.995          165.256  iso=      64.612

 Orientation: 
  X           0.8745519   -0.2639738   -0.4067883
  Y           0.4408893    0.0835205    0.8936671
  Z          -0.2019296   -0.9609069    0.1894263

 --------------
 Nucleus  51C :
 --------------

Diamagnetic contribution to the shielding tensor (ppm) : 
           269.083         12.078         4.299
             9.499        267.313        -7.115
             7.848        -10.942       281.303

Paramagnetic contribution to the shielding tensor (ppm): 
          -249.057        -96.384        30.935
          -100.369       -144.780        21.569
            17.436         34.451      -230.250

Total shielding tensor (ppm): 
            20.026        -84.306        35.234
           -90.870        122.534        14.454
            25.284         23.509        51.053


 Diagonalized sT*s matrix:
 
 sDSO           277.949          281.148          258.602  iso=     272.566
 sPSO          -320.609         -217.547          -85.930  iso=    -208.029
        ---------------  ---------------  ---------------
 Total          -42.661           63.602          172.672  iso=      64.538

 Orientation: 
  X           0.8317581    0.2188813   -0.5101660
  Y           0.4893318    0.1449289    0.8599709
  Z          -0.2621694    0.9649283   -0.0134402

 --------------
 Nucleus  54C :
 --------------

Diamagnetic contribution to the shielding tensor (ppm) : 
           256.570          6.552         1.402
            14.258        241.444        -3.415
            -2.916        -16.299       251.018

Paramagnetic contribution to the shielding tensor (ppm): 
           -98.581        -14.730         6.472
           -22.152        -78.270         0.273
             8.837         18.932       -97.991

Total shielding tensor (ppm): 
           157.989         -8.178         7.873
            -7.894        163.174        -3.142
             5.921          2.633       153.026


 Diagonalized sT*s matrix:
 
 sDSO           261.367          245.419          242.246  iso=     249.677
 sPSO          -114.618          -88.173          -72.051  iso=     -91.614
        ---------------  ---------------  ---------------
 Total          146.748          157.246          170.195  iso=     158.063

 Orientation: 
  X          -0.6500153   -0.4275419    0.6282420
  Y          -0.2994681   -0.6157023   -0.7288550
  Z           0.6984261   -0.6619053    0.2721807

 --------------
 Nucleus  55C :
 --------------

Diamagnetic contribution to the shielding tensor (ppm) : 
           248.370          6.744        -2.816
            29.701        237.975         0.258
           -13.793         -8.703       241.556

Paramagnetic contribution to the shielding tensor (ppm): 
           -69.876         -4.534        -0.853
           -31.405        -54.435        -9.684
            10.050         -0.491       -62.819

Total shielding tensor (ppm): 
           178.494          2.210        -3.670
            -1.704        183.540        -9.427
            -3.743         -9.194       178.737


 Diagonalized sT*s matrix:
 
 sDSO           240.117          236.762          251.022  iso=     242.634
 sPSO           -69.597          -57.758          -59.775  iso=     -62.377
        ---------------  ---------------  ---------------
 Total          170.520          179.004          191.247  iso=     180.257

 Orientation: 
  X           0.3364646    0.9219425   -0.1918687
  Y           0.5446625   -0.3567341   -0.7590017
  Z           0.7682020   -0.1508735    0.6221759

 --------------
 Nucleus  56C :
 --------------

Diamagnetic contribution to the shielding tensor (ppm) : 
           249.354          0.980         5.312
             2.310        237.066        -9.188
            15.263        -10.347       236.786

Paramagnetic contribution to the shielding tensor (ppm): 
           -89.729        -12.194         0.485
           -13.051        -73.882         4.720
           -10.061          7.680       -75.089

Total shielding tensor (ppm): 
           159.624        -11.214         5.797
           -10.741        163.184        -4.468
             5.203         -2.667       161.697


 Diagonalized sT*s matrix:
 
 sDSO           245.272          226.859          251.075  iso=     241.069
 sPSO           -95.340          -67.713          -75.647  iso=     -79.567
        ---------------  ---------------  ---------------
 Total          149.932          159.146          175.428  iso=     161.502

 Orientation: 
  X           0.7813507   -0.1275572    0.6109176
  Y           0.5961151    0.4423435   -0.6700590
  Z          -0.1847646    0.8877282    0.4216642

 --------------
 Nucleus  59C :
 --------------

Diamagnetic contribution to the shielding tensor (ppm) : 
           241.170          3.060        -6.529
            -9.036        242.356       -16.120
            14.946        -10.979       258.749

Paramagnetic contribution to the shielding tensor (ppm): 
           -65.912          4.512         2.873
            15.299        -65.787         5.452
           -23.796         -3.053       -83.640

Total shielding tensor (ppm): 
           175.257          7.572        -3.656
             6.262        176.569       -10.668
            -8.850        -14.032       175.109


 Diagonalized sT*s matrix:
 
 sDSO           237.361          250.541          254.373  iso=     247.425
 sPSO           -73.896          -80.154          -61.289  iso=     -71.780
        ---------------  ---------------  ---------------
 Total          163.464          170.387          193.084  iso=     175.645

 Orientation: 
  X          -0.0313533    0.8837442   -0.4669188
  Y           0.6893136   -0.3191626   -0.6503707
  Z           0.7237843    0.3422447    0.5991701

 --------------
 Nucleus  60C :
 --------------

Diamagnetic contribution to the shielding tensor (ppm) : 
           249.973          4.456        11.418
             5.361        217.562         8.405
            14.322         -0.304       224.517

Paramagnetic contribution to the shielding tensor (ppm): 
           -63.977          3.080        -1.858
             3.542        -46.170        -7.707
             0.998          3.921       -56.387

Total shielding tensor (ppm): 
           185.995          7.536         9.560
             8.903        171.391         0.697
            15.320          3.617       168.130


 Diagonalized sT*s matrix:
 
 sDSO           220.124          216.923          255.004  iso=     230.684
 sPSO           -58.802          -47.999          -59.734  iso=     -55.512
        ---------------  ---------------  ---------------
 Total          161.323          168.924          195.270  iso=     175.172

 Orientation: 
  X          -0.4906431    0.1824038    0.8520553
  Y           0.2321329   -0.9151455    0.3295801
  Z           0.8398712    0.3594963    0.4066679



--------------------------------
CHEMICAL SHIELDING SUMMARY (ppm)
--------------------------------


  Nucleus  Element    Isotropic     Anisotropy
  -------  -------  ------------   ------------
      0       C           59.659        147.988 
      1       C          151.204         30.095 
      2       C          128.869         55.189 
      5       C           51.510        179.309 
      6       C          165.088         22.949 
      7       C          161.735         22.453 
     14       C           74.600        128.296 
     15       C           83.017        121.106 
     18       C           79.396        134.074 
     20       C           52.291        175.307 
     22       C          169.176          8.542 
     23       C          174.530         12.433 
     26       C          158.643         24.095 
     29       C          154.239         17.124 
     32       C          143.231         28.061 
     34       C          174.459         22.805 
     36       C          168.465         33.733 
     39       C          147.213         30.073 
     43       C          159.806         20.675 
     44       C          183.992         15.075 
     49       C          175.018         21.159 
     50       C           64.612        150.966 
     51       C           64.538        162.201 
     54       C          158.063         18.198 
     55       C          180.257         16.485 
     56       C          161.502         20.889 
     59       C          175.645         26.158 
     60       C          175.172         30.147 


NMR shielding tensor and spin rotation calculation done in   1.0 sec 

Maximum memory used throughout the entire PROP-calculation: 51.8 MB

--------------------------------
SUGGESTED CITATIONS FOR THIS RUN
--------------------------------

Below you find a list of papers that are relevant to this ORCA run
We neither can nor want to force you to cite these papers, but we appreciate if you do
You receive ORCA, which is the product of decades of hard work by many enthusiastic individuals, for free
The only thing we kindly ask in return is that you cite our papers,
We deeply appreciate it, if you show your appreciation for ORCA by not just citing the generic ORCA reference.

Please note that relegating all ORCA citations to the supporting information does *not* help us.
SI sections are not indexed - citations you put there will not count into any citation statistics
But we need these citations in order to attract the funding resources that allow us to do what we are doing

Therefore, if you are a happy ORCA user, please consider citing a few of the papers listed below in the main body of your paper

In addition to the list printed below, the program has created the file inpS.bibtex that contains the list in bibtex format
You can import this file easily into all common literature databanks and citation aid programs


List of essential papers. We consider these as the minimum necessary citations

  1. Neese,F.
     Software update: the ORCA program system, version 5.0
     WIRES Comput. Molec. Sci., 2022 12(1)e1606
     doi.org/10.1002/wcms.1606

List of papers to cite with high priority. The work reported in these papers was absolutely
necessary for this run to complete.
Our perspective: the developers of density functionals and basis sets usually get cited in chemistry papers
Good! But without the algorithms to do something with them, the functionals or basis sets would not do anything.
Hence, in our opinion, the algorithm design and method developments papers are equally worthy of getting cited

  1. Neese,F.
     An improvement of the resolution of the identity approximation for the formation of the Coulomb matrix
     J. Comp. Chem., 2003 24(14)1740-1747
     doi.org/10.1002/jcc.10318
  2. Neese,F.; Wennmohs,F.; Hansen,A.; Becker,U.
     Efficient, approximate and parallel Hartree-Fock and hybrid DFT calculations. A 'chain-of-spheres' algorithm for the Hartree-Fock exchange
     Chem. Phys., 2009 356(1-3)98-109
     doi.org/10.1016/j.chemphys.2008.10.036
  3. Stoychev,G.L.; Auer,A.A.; Izsak,R.; Neese,F.
     Self-Consistent Field Calculation of Nuclear Magnetic Resonance Chemical Shielding Constants Using Gauge-Including Atomic Orbitals and Approximate Two-Electron Integrals
     J. Chem. Theory Comput., 2018 14(2)619-637
     doi.org/10.1021/acs.jctc.7b01006
  4. Garcia-Rates,M.; Neese,F.
     Effect of the Solute Cavity on the Solvation Energy and its Derivatives within the Framework of the Gaussian Charge Scheme
     J. Comput. Chem., 2020 41 922-939
     doi.org/10.1002/jcc.26139
  5. Helmich-Paris,B.; de Souza,B.; Neese,F.; Izsák,R.
     An improved chain of spheres for exchange algorithm
     J. Chem. Phys., 2021 155 104109
     doi.org/doi: 10.1063/5.0058766.
  6. Neese,F.
     The SHARK Integral Generation and Digestion System
     J. Comp. Chem., 2022  1-16
     doi.org/10.1002/jcc.26942
  7. Caldeweyher,E.; Bannwarth,C.; Grimme,S.
     Extension of the D3 dispersion coefficient model
     J. Chem. Phys., 2017 147 034112-XXXX
     doi.org/10.1063/1.4993215
  8. Caldeweyher,E.; Ehlert,S.; Hansen,A.; Neugebauer,H.; Spicher,S.; Bannwarth,C.; Grimme,S.
     A generally applicable atomic-charge dependent London dispersion correction
     J. Chem. Phys., 2019 150 154122-XXXX
     doi.org/10.1063/1.5090222
  9. Caldeweyher,E.; Mewes,J.; Ehlert,S.; Grimme,S.
     Extension and evaluation of the D4 London-dispersion model for periodic systems
     Phys. Chem. Chem. Phys., 2020 22(16)8499-8512
     doi.org/10.1039/D0CP00502A

List of suggested additional citations. These are papers that are important in the 'surrounding' of 
of this run, or papers that preceded the highly important papers. If you like your results we are grateful for a citation.

  1. Izsak,R.; Neese,F.
     An overlap fitted chain of spheres exchange method
     J. Chem. Phys., 2011 135 144105
     doi.org/10.1063/1.3646921
  2. Izsak,R.; Hansen,A.; Neese,F.
     The resolution of identity and chain of spheres approximations for the LPNO-CCSD singles Fock term
     Molec. Phys., 2012 110 2413-2417
     doi.org/10.1080/00268976.2012.687466
  3. Neese,F.
     The ORCA program system
     WIRES Comput. Molec. Sci., 2012 2(1)73-78
     doi.org/10.1002/wcms.81
  4. Izsak,R.; Neese,F.; Klopper,W.
     Robust fitting techniques in the chain of spheres approximation to the Fock exchange: The role of the complementary space
     J. Chem. Phys., 2013 139 
     doi.org/10.1063/1.4819264
  5. Neese,F.
     Software update: the ORCA program system, version 4.0
     WIRES Comput. Molec. Sci., 2018 8(1)1-6
     doi.org/10.1002/wcms.1327
  6. Neese,F.; Wennmohs,F.; Becker,U.; Riplinger,C.
     The ORCA quantum chemistry program package
     J. Chem. Phys., 2020 152 Art. No. L224108
     doi.org/10.1063/5.0004608

Timings for individual modules:

Sum of individual times          ...      303.690 sec (=   5.061 min)
Startup calculation              ...        4.686 sec (=   0.078 min)   1.5 %
SCF iterations                   ...      198.029 sec (=   3.300 min)  65.2 %
Property integrals               ...       60.561 sec (=   1.009 min)  19.9 %
SCF Response                     ...       39.102 sec (=   0.652 min)  12.9 %
Property calculations            ...        1.312 sec (=   0.022 min)   0.4 %
                             ****ORCA TERMINATED NORMALLY****
TOTAL RUN TIME: 0 days 0 hours 5 minutes 3 seconds 968 msec
