
                                 *****************
                                 * O   R   C   A *
                                 *****************

                                            #,                                       
                                            ###                                      
                                            ####                                     
                                            #####                                    
                                            ######                                   
                                           ########,                                 
                                     ,,################,,,,,                         
                               ,,#################################,,                 
                          ,,##########################################,,             
                       ,#########################################, ''#####,          
                    ,#############################################,,   '####,        
                  ,##################################################,,,,####,       
                ,###########''''           ''''###############################       
              ,#####''   ,,,,##########,,,,          '''####'''          '####       
            ,##' ,,,,###########################,,,                        '##       
           ' ,,###''''                  '''############,,,                           
         ,,##''                                '''############,,,,        ,,,,,,###''
      ,#''                                            '''#######################'''  
     '                                                          ''''####''''         
             ,#######,   #######,   ,#######,      ##                                
            ,#'     '#,  ##    ##  ,#'     '#,    #''#        ,####,   ,####,        
            ##       ##  ##   ,#'  ##            #'  '#       #'       #'  '#        
            ##       ##  #######   ##           ,######,      #####,   #    #        
            '#,     ,#'  ##    ##  '#,     ,#' ,#      #,     #,   #   #,  ,#        
             '#######'   ##     ##  '#######'  #'      '#     '####' # '####'        



                #########################################################
                #                        -***-                          #
                #          Department of theory and spectroscopy        #
                #                                                       #
                #                      Frank Neese                      #
                #                                                       #
                #     Directorship, Architecture, Infrastructure        #
                #                    SHARK, DRIVERS                     #
                #        Core code/Algorithms in most modules           #
                #                                                       #
                #        Max Planck Institute fuer Kohlenforschung      #
                #                Kaiser Wilhelm Platz 1                 #
                #                 D-45470 Muelheim/Ruhr                 #
                #                      Germany                          #
                #                                                       #
                #                  All rights reserved                  #
                #                        -***-                          #
                #########################################################


                         Program Version 6.0.0  -   RELEASE  -


 With contributions from (in alphabetic order):
   Daniel Aravena         : Magnetic Suceptibility
   Michael Atanasov       : Ab Initio Ligand Field Theory (pilot matlab implementation)
   Alexander A. Auer      : GIAO ZORA, VPT2 properties, NMR spectrum
   Ute Becker             : All parallelization in ORCA, NUMFREQ, NUMCALC
   Giovanni Bistoni       : ED, misc. LED, open-shell LED, HFLD
   Martin Brehm           : Molecular dynamics
   Dmytro Bykov           : pre 5.0 version of the SCF Hessian
   Marcos Casanova-Páez   : Triplet and SCS-CIS(D). UHF-(DLPNO)-IP/EA/STEOM-CCSD. UHF-CVS-IP/STEOM-CCSD
   Vijay G. Chilkuri      : MRCI spin determinant printing, contributions to CSF-ICE
   Pauline Colinet        : FMM embedding
   Dipayan Datta          : RHF DLPNO-CCSD density
   Achintya Kumar Dutta   : EOM-CC, STEOM-CC
   Nicolas Foglia         : Exact transition moments, OPA infrastructure, MCD improvements
   Dmitry Ganyushin       : Spin-Orbit,Spin-Spin,Magnetic field MRCI
   Miquel Garcia          : C-PCM and meta-GGA Hessian, CCSD/C-PCM, Gaussian charge scheme
   Tiago L. C. Gouveia    : GS-ROHF, GS-ROCIS
   Yang Guo               : DLPNO-NEVPT2, F12-NEVPT2, CIM, IAO-localization
   Andreas Hansen         : Spin unrestricted coupled pair/coupled cluster methods
   Ingolf Harden          : AUTO-CI MPn and infrastructure 
   Benjamin Helmich-Paris : MC-RPA, TRAH-(SCF,CASSCF), AVAS, COSX integrals, SCF dyn. polar.
   Lee Huntington         : MR-EOM, pCC
   Robert Izsak           : Overlap fitted RIJCOSX, COSX-SCS-MP3, EOM
   Riya Kayal             : Wick's Theorem for AUTO-CI, AUTO-CI UHF-CCSDT
   Emily Kempfer          : AUTO-CI, RHF CISDT and CCSDT
   Christian Kollmar      : KDIIS, OOCD, Brueckner-CCSD(T), CCSD density, CASPT2, CASPT2-K, improved NEVPT2
   Axel Koslowski         : Symmetry handling
   Simone Kossmann        : Meta GGA functionals, TD-DFT gradient, OOMP2, (MP2 Hessian; deprecated post 5.0)
   Lucas Lang             : DCDCAS
   Marvin Lechner         : AUTO-CI (C++ implementation), FIC-MRCC
   Spencer Leger          : CASSCF response
   Dagmar Lenk            : GEPOL surface, SMD, ORCA-2-JSON
   Dimitrios Liakos       : Extrapolation schemes; Compound Job, initial MDCI parallelization
   Dimitrios Manganas     : Further ROCIS development; embedding schemes. LFT, Crystal Embedding
   Dimitrios Pantazis     : SARC Basis sets
   Anastasios Papadopoulos: AUTO-CI, single reference methods and gradients
   Taras Petrenko         : pre 6.0 DFT Hessian and TD-DFT gradient, (ASA, deprecated), ECA, 1-Electron XAS/XES, NRVS
   Peter Pinski           : DLPNO-MP2, DLPNO-MP2 Gradient
   Christoph Reimann      : Effective Core Potentials
   Marius Retegan         : Local ZFS, SOC
   Christoph Riplinger    : Optimizer, TS searches, QM/MM, DLPNO-CCSD(T), (RO)-DLPNO pert. Triples
   Michael Roemelt        : Original ROCIS implementation
   Masaaki Saitow         : Open-shell DLPNO-CCSD energy and density
   Barbara Sandhoefer     : DKH picture change effects
   Kantharuban Sivalingam : CASSCF convergence/infrastructure, NEVPT2 and variants, FIC-MRCI
   Bernardo de Souza      : ESD, SOC TD-DFT
   Georgi Stoychev        : AutoAux, RI-MP2 NMR, DLPNO-MP2 response, X2C
   Van Anh Tran           : RI-MP2 g-tensors
   Willem Van den Heuvel  : Paramagnetic NMR
   Zikuan Wang            : NOTCH, Electric field optimization 
   Frank Wennmohs         : Technical directorship and infrastructure
   Hang Xu                : AUTO-CI-Response properties 


 We gratefully acknowledge several colleagues who have allowed us to
 interface, adapt or use parts of their codes:
   Stefan Grimme, W. Hujo, H. Kruse, P. Pracht,  : VdW corrections, initial TS optimization,
                  C. Bannwarth, S. Ehlert,         DFT functionals, gCP, sTDA/sTD-DF
                  L. Wittmann, M. Mueller
   Ed Valeev, F. Pavosevic, A. Kumar             : LibInt (2-el integral package), F12 methods
   Garnet Chan, S. Sharma, J. Yang, R. Olivares  : DMRG
   Ulf Ekstrom                                   : XCFun DFT Library
   Mihaly Kallay                                 : mrcc  (arbitrary order and MRCC methods)
   Frank Weinhold                                : gennbo (NPA and NBO analysis)
   Simon Mueller                                 : openCOSMO-RS
   Christopher J. Cramer and Donald G. Truhlar   : smd solvation model
   Lars Goerigk                                  : TD-DFT with DH, B97 family of functionals
   V. Asgeirsson, H. Jonsson                     : NEB implementation
   FAccTs GmbH                                   : IRC, NEB, NEB-TS, DLPNO-Multilevel, CI-OPT
                                                   MM, QMMM, 2- and 3-layer-ONIOM, Crystal-QMMM,
                                                   LR-CPCM, SF, NACMEs, symmetry and pop. for TD-DFT,
                                                   nearIR, NL-DFT gradient (VV10), updates on ESD,
                                                   ML-optimized integration grids, MBIS, APM,
                                                   GOAT, DOCKER, SOLVATOR, interface openCOSMO-RS
   S Lehtola, MJT Oliveira, MAL Marques          : LibXC Library
   Liviu Ungur et al                             : ANISO software


 Your calculation uses the libint2 library for the computation of 2-el integrals
 For citations please refer to: http://libint.valeyev.net

 Your ORCA version has been built with support for libXC version: 6.2.2
 For citations please refer to: https://libxc.gitlab.io

 This ORCA versions uses:
   CBLAS   interface :  Fast vector & matrix operations
   LAPACKE interface :  Fast linear algebra routines
   SCALAPACK package :  Parallel linear algebra routines
   Shared memory     :  Shared parallel matrices
   BLAS/LAPACK       :  OpenBLAS 0.3.27  USE64BITINT DYNAMIC_ARCH NO_AFFINITY Zen SINGLE_THREADED
        Core in use  :  Zen
   Copyright (c) 2011-2014, The OpenBLAS Project


NOTE: MaxCore=8000 MB was set to SCF,MP2,MDCI,CIPSI,MRCI and CIS
      => If you want to overwrite this, your respective input block should be placed after the MaxCore statement
Your calculation utilizes the atom-pairwise dispersion correction
based on EEQ partial charges (D4)


================================================================================

----- Orbital basis set information -----
Your calculation utilizes the basis: pcJ-0
   F. Jensen, Theor. Chem. Acc. 126, 371 (2010).

----- AuxJ basis set information -----
Your calculation utilizes the auxiliary basis: def2/J
   F. Weigend, Phys. Chem. Chem. Phys. 8, 1057 (2006).

================================================================================
                                        WARNINGS
                       Please study these warnings very carefully!
================================================================================


================================================================================
                                       INPUT FILE
================================================================================
NAME = inpJ
|  1> ! pbe0
|  2> ! D4
|  3> ! pcJ-0
|  4> ! def2/J RIJCOSX
|  5> ! DEFGRID2
|  6> ! scfconv7
|  7> ! smallprint printgap noloewdin
|  8> ! NOSOSCF
|  9> %MaxCore 8000
| 10> %output
| 11>        print[P_BondOrder_M] 1
| 12>        print[P_Mayer] 1
| 13>        print[P_basis] 2
| 14> end
| 15> %pal
| 16>     nprocs 4
| 17> end
| 18> ! CPCM(chloroform)
| 19> *xyz 0 1
| 20> C   -5.1682158400  -0.0413341800   0.4119159700
| 21> C   -6.5177278800  -0.5814046400   0.0013448200
| 22> C   -7.1675803900   0.2816213800  -1.0871835700
| 23> H   -7.1958951300  -0.5747742100   0.8716511700
| 24> H   -6.4312066400  -1.6169455200  -0.3457287300
| 25> C   -5.1676993900   1.3986068900   0.7460774700
| 26> C   -5.8645774300   2.2773565400  -0.2679739800
| 27> C   -7.2528739000   1.7340850800  -0.6326460000
| 28> H   -5.2509078900   2.3068996100  -1.1813216400
| 29> H   -5.9383588200   3.3032960600   0.1079168800
| 30> H   -7.7028021200   2.3432352900  -1.4254599800
| 31> H   -7.9131787800   1.7906090900   0.2459483100
| 32> O   -8.4514143200  -0.2358735200  -1.4615098100
| 33> H   -6.5605158600   0.2214861200  -2.0012877200
| 34> C   -4.0717397900  -0.8358148300   0.4110175200
| 35> C   -4.6389066100   1.8917043300   1.8718132900
| 36> H   -4.1645529800   1.2453719700   2.6050780400
| 37> H   -4.6793746200   2.9565002200   2.0888809700
| 38> C   -2.7125971800  -0.4246500600   0.6765315100
| 39> H   -4.2339891100  -1.8774347400   0.1372061900
| 40> C   -1.6310186000  -1.2304382500   0.7439563800
| 41> H   -2.5579801100   0.6429888200   0.8160358900
| 42> C   -1.6466147000  -2.7332412900   0.6246958200
| 43> C   -0.6596131900  -3.2322252000  -0.4466698000
| 44> H   -2.6474595500  -3.1234348900   0.4204797700
| 45> H   -1.3369652100  -3.1501546200   1.5964779600
| 46> C    0.7482481000  -2.6491768700  -0.2675760500
| 47> H   -1.0451374400  -2.9710832100  -1.4403612600
| 48> H   -0.6107863400  -4.3274678500  -0.4096239900
| 49> C    0.7274324700  -1.1150931500  -0.2022146900
| 50> H    1.3870958800  -3.0066541100  -1.0817430100
| 51> H    1.1805631600  -3.0297182200   0.6702792300
| 52> C   -0.2422670100  -0.7093053000   0.9533376600
| 53> H    0.1577754100  -1.2285318900   1.8439969000
| 54> C    0.0186731600   0.7801457000   1.1447002100
| 55> H   -9.0183637000  -0.2031020100  -0.6791461600
| 56> C    1.5454517500   0.9082841800   0.9195706900
| 57> H   -0.2938408300   1.1328691700   2.1333921700
| 58> H   -0.5330380000   1.3681789000   0.4027207100
| 59> C    2.0360118400  -0.4376384200   0.2988905400
| 60> H    2.0666019100   1.1208676800   1.8569521000
| 61> H    1.7768232500   1.7388873900   0.2420882400
| 62> H    2.4187190900  -1.0839049800   1.1047330300
| 63> C    3.1680091700  -0.2215715100  -0.7147525100
| 64> C    0.2632547500  -0.5111472300  -1.5352551300
| 65> H   -0.7905554200  -0.7357131300  -1.7263700500
| 66> H    0.8494773700  -0.9090174500  -2.3705129900
| 67> H    0.3706667100   0.5781148500  -1.5440672700
| 68> H    2.7886333600   0.4645205200  -1.4886990200
| 69> C    3.6294502500  -1.5068318700  -1.4271512000
| 70> C    4.4000678200   0.4292699900  -0.1236391000
| 71> C    4.7656668200   0.4478906200   1.1583190100
| 72> H    5.0705347500   0.8583961700  -0.8701664100
| 73> H    4.0993094700   0.0107871000   1.8997741500
| 74> C    6.0522364800   1.0109877900   1.7113869500
| 75> C    6.7701263600   1.9412078600   0.7313463600
| 76> C    6.9824652600  -0.1315717800   2.2088081400
| 77> H    5.7853167900   1.5985917100   2.6071439900
| 78> H    7.2682868300  -0.7172088400   1.3204764000
| 79> C    6.2707553200  -1.0662292800   3.1927464600
| 80> C    8.2569008200   0.4175016500   2.8584910100
| 81> H    6.0757688300   2.6794045400   0.3169952200
| 82> H    7.2038771500   1.3782992200  -0.1039816800
| 83> H    7.5796380700   2.4855284200   1.2238663500
| 84> H    6.9705610800  -1.8123724200   3.5843904900
| 85> H    5.4385296800  -1.6023978600   2.7275865800
| 86> H    5.8761088800  -0.4986522300   4.0457833600
| 87> H    8.0054201700   1.0887935400   3.6901295800
| 88> H    8.8808035900   0.9715525900   2.1519220100
| 89> H    8.8619034000  -0.4017136200   3.2624247300
| 90> H    4.5272622600  -1.3094800000  -2.0236000400
| 91> H    2.8639493200  -1.9014425200  -2.0999881000
| 92> H    3.8799466200  -2.2792692000  -0.6905265000
| 93> *
| 94> %eprnmr
| 95>  Nuclei = all C { ssfc }
| 96>  SpinSpinRThresh 8.0
| 97> end
| 98> 
| 99>                          ****END OF INPUT****
================================================================================

                       ****************************
                       * Single Point Calculation *
                       ****************************

---------------------------------
CARTESIAN COORDINATES (ANGSTROEM)
---------------------------------
  C     -5.168216   -0.041334    0.411916
  C     -6.517728   -0.581405    0.001345
  C     -7.167580    0.281621   -1.087184
  H     -7.195895   -0.574774    0.871651
  H     -6.431207   -1.616946   -0.345729
  C     -5.167699    1.398607    0.746077
  C     -5.864577    2.277357   -0.267974
  C     -7.252874    1.734085   -0.632646
  H     -5.250908    2.306900   -1.181322
  H     -5.938359    3.303296    0.107917
  H     -7.702802    2.343235   -1.425460
  H     -7.913179    1.790609    0.245948
  O     -8.451414   -0.235874   -1.461510
  H     -6.560516    0.221486   -2.001288
  C     -4.071740   -0.835815    0.411018
  C     -4.638907    1.891704    1.871813
  H     -4.164553    1.245372    2.605078
  H     -4.679375    2.956500    2.088881
  C     -2.712597   -0.424650    0.676532
  H     -4.233989   -1.877435    0.137206
  C     -1.631019   -1.230438    0.743956
  H     -2.557980    0.642989    0.816036
  C     -1.646615   -2.733241    0.624696
  C     -0.659613   -3.232225   -0.446670
  H     -2.647460   -3.123435    0.420480
  H     -1.336965   -3.150155    1.596478
  C      0.748248   -2.649177   -0.267576
  H     -1.045137   -2.971083   -1.440361
  H     -0.610786   -4.327468   -0.409624
  C      0.727432   -1.115093   -0.202215
  H      1.387096   -3.006654   -1.081743
  H      1.180563   -3.029718    0.670279
  C     -0.242267   -0.709305    0.953338
  H      0.157775   -1.228532    1.843997
  C      0.018673    0.780146    1.144700
  H     -9.018364   -0.203102   -0.679146
  C      1.545452    0.908284    0.919571
  H     -0.293841    1.132869    2.133392
  H     -0.533038    1.368179    0.402721
  C      2.036012   -0.437638    0.298891
  H      2.066602    1.120868    1.856952
  H      1.776823    1.738887    0.242088
  H      2.418719   -1.083905    1.104733
  C      3.168009   -0.221572   -0.714753
  C      0.263255   -0.511147   -1.535255
  H     -0.790555   -0.735713   -1.726370
  H      0.849477   -0.909017   -2.370513
  H      0.370667    0.578115   -1.544067
  H      2.788633    0.464521   -1.488699
  C      3.629450   -1.506832   -1.427151
  C      4.400068    0.429270   -0.123639
  C      4.765667    0.447891    1.158319
  H      5.070535    0.858396   -0.870166
  H      4.099309    0.010787    1.899774
  C      6.052236    1.010988    1.711387
  C      6.770126    1.941208    0.731346
  C      6.982465   -0.131572    2.208808
  H      5.785317    1.598592    2.607144
  H      7.268287   -0.717209    1.320476
  C      6.270755   -1.066229    3.192746
  C      8.256901    0.417502    2.858491
  H      6.075769    2.679405    0.316995
  H      7.203877    1.378299   -0.103982
  H      7.579638    2.485528    1.223866
  H      6.970561   -1.812372    3.584390
  H      5.438530   -1.602398    2.727587
  H      5.876109   -0.498652    4.045783
  H      8.005420    1.088794    3.690130
  H      8.880804    0.971553    2.151922
  H      8.861903   -0.401714    3.262425
  H      4.527262   -1.309480   -2.023600
  H      2.863949   -1.901443   -2.099988
  H      3.879947   -2.279269   -0.690527

----------------------------
CARTESIAN COORDINATES (A.U.)
----------------------------
  NO LB      ZA    FRAG     MASS         X           Y           Z
   0 C     6.0000    0    12.011   -9.766513   -0.078110    0.778408
   1 C     6.0000    0    12.011  -12.316721   -1.098696    0.002541
   2 C     6.0000    0    12.011  -13.544764    0.532187   -2.054479
   3 H     1.0000    0     1.008  -13.598271   -1.086166    1.647182
   4 H     1.0000    0     1.008  -12.153219   -3.055584   -0.653333
   5 C     6.0000    0    12.011   -9.765537    2.642984    1.409882
   6 C     6.0000    0    12.011  -11.082445    4.303580   -0.506397
   7 C     6.0000    0    12.011  -13.705945    3.276946   -1.195528
   8 H     1.0000    0     1.008   -9.922778    4.359408   -2.232374
   9 H     1.0000    0     1.008  -11.221872    6.242325    0.203933
  10 H     1.0000    0     1.008  -14.556186    4.428073   -2.693729
  11 H     1.0000    0     1.008  -14.953741    3.383761    0.464775
  12 O     8.0000    0    15.999  -15.970859   -0.445736   -2.761853
  13 H     1.0000    0     1.008  -12.397578    0.418548   -3.781886
  14 C     6.0000    0    12.011   -7.694473   -1.579461    0.776711
  15 C     6.0000    0    12.011   -8.766263    3.574803    3.537214
  16 H     1.0000    0     1.008   -7.869865    2.353412    4.922884
  17 H     1.0000    0     1.008   -8.842737    5.586976    3.947413
  18 C     6.0000    0    12.011   -5.126066   -0.802472    1.278459
  19 H     1.0000    0     1.008   -8.001080   -3.547837    0.259282
  20 C     6.0000    0    12.011   -3.082178   -2.325191    1.405874
  21 H     1.0000    0     1.008   -4.833882    1.215073    1.542084
  22 C     6.0000    0    12.011   -3.111651   -5.165077    1.180504
  23 C     6.0000    0    12.011   -1.246488   -6.108020   -0.844084
  24 H     1.0000    0     1.008   -5.002974   -5.902437    0.794592
  25 H     1.0000    0     1.008   -2.526498   -5.952930    3.016906
  26 C     6.0000    0    12.011    1.413984   -5.006219   -0.505645
  27 H     1.0000    0     1.008   -1.975024   -5.614534   -2.721888
  28 H     1.0000    0     1.008   -1.154219   -8.177729   -0.774077
  29 C     6.0000    0    12.011    1.374648   -2.107221   -0.382130
  30 H     1.0000    0     1.008    2.621231   -5.681753   -2.044198
  31 H     1.0000    0     1.008    2.230941   -5.725338    1.266644
  32 C     6.0000    0    12.011   -0.457818   -1.340393    1.801547
  33 H     1.0000    0     1.008    0.298152   -2.321589    3.484649
  34 C     6.0000    0    12.011    0.035287    1.474262    2.163170
  35 H     1.0000    0     1.008  -17.042238   -0.383807   -1.283400
  36 C     6.0000    0    12.011    2.920481    1.716408    1.737737
  37 H     1.0000    0     1.008   -0.555279    2.140812    4.031527
  38 H     1.0000    0     1.008   -1.007296    2.585483    0.761032
  39 C     6.0000    0    12.011    3.847505   -0.827017    0.564821
  40 H     1.0000    0     1.008    3.905312    2.118133    3.509131
  41 H     1.0000    0     1.008    3.357709    3.286021    0.457480
  42 H     1.0000    0     1.008    4.570717   -2.048284    2.087643
  43 C     6.0000    0    12.011    5.986670   -0.418709   -1.350686
  44 C     6.0000    0    12.011    0.497479   -0.965928   -2.901212
  45 H     1.0000    0     1.008   -1.493933   -1.390296   -3.262367
  46 H     1.0000    0     1.008    1.605280   -1.717794   -4.479620
  47 H     1.0000    0     1.008    0.700459    1.092479   -2.917864
  48 H     1.0000    0     1.008    5.269753    0.877817   -2.813233
  49 C     6.0000    0    12.011    6.858667   -2.847500   -2.696925
  50 C     6.0000    0    12.011    8.314923    0.811203   -0.233644
  51 C     6.0000    0    12.011    9.005805    0.846391    2.188906
  52 H     1.0000    0     1.008    9.581922    1.622134   -1.644376
  53 H     1.0000    0     1.008    7.746572    0.020385    3.590053
  54 C     6.0000    0    12.011   11.437069    1.910490    3.234053
  55 C     6.0000    0    12.011   12.793685    3.668351    1.382044
  56 C     6.0000    0    12.011   13.194947   -0.248635    4.174042
  57 H     1.0000    0     1.008   10.932664    3.020901    4.926788
  58 H     1.0000    0     1.008   13.735072   -1.355328    2.495339
  59 C     6.0000    0    12.011   11.850010   -2.014881    6.033416
  60 C     6.0000    0    12.011   15.603281    0.788964    5.401765
  61 H     1.0000    0     1.008   11.481539    5.063341    0.599034
  62 H     1.0000    0     1.008   13.613355    2.604608   -0.196497
  63 H     1.0000    0     1.008   14.323440    4.696968    2.312772
  64 H     1.0000    0     1.008   13.172451   -3.424888    6.773516
  65 H     1.0000    0     1.008   10.277332   -3.028093    5.154392
  66 H     1.0000    0     1.008   11.104237   -0.942316    7.645423
  67 H     1.0000    0     1.008   15.128052    2.057522    6.973334
  68 H     1.0000    0     1.008   16.782287    1.835968    4.066543
  69 H     1.0000    0     1.008   16.746570   -0.759129    6.165089
  70 H     1.0000    0     1.008    8.555286   -2.474559   -3.824050
  71 H     1.0000    0     1.008    5.412080   -3.593206   -3.968402
  72 H     1.0000    0     1.008    7.332037   -4.307195   -1.304906

--------------------------------
INTERNAL COORDINATES (ANGSTROEM)
--------------------------------
 C      0   0   0     0.000000000000     0.00000000     0.00000000
 C      1   0   0     1.510439511229     0.00000000     0.00000000
 C      2   1   0     1.533628459499   111.73477863     0.00000000
 H      2   1   3     1.103353037076   109.42656699   241.41123165
 H      2   1   3     1.095577878670   110.70260371   122.85610614
 C      1   2   3     1.478206501094   114.20876381    50.45413806
 C      6   1   2     1.511998774225   114.47949854   312.07233744
 C      3   2   1     1.524313020743   110.38164033   305.10384085
 H      7   6   1     1.100757487068   108.36884113   289.74589813
 H      7   6   1     1.095120783676   110.20132167   172.62403913
 H      8   3   2     1.096381953691   109.67878301   179.02231303
 H      8   3   2     1.100511453744   108.69772651   296.42530575
 O      3   2   1     1.433928403128   111.19727359   180.40214037
 H      3   2   1     1.098967692940   108.99685052    65.19938439
 C      1   2   3     1.354053189007   120.89871781   232.73083587
 C      6   1   2     1.337926764044   123.32294564   129.85032835
 H     16   6   1     1.086477832020   121.41100351     0.70247186
 H     16   6   1     1.087449458547   120.93876065   181.36150599
 C     15   1   2     1.444583947472   126.49515631   174.75313679
 H     15   1   2     1.089160008073   116.14658635   357.75168905
 C     19  15   1     1.350426949136   126.36225979   176.27753441
 H     19  15   1     1.087759480980   115.89147601   355.11068935
 C     21  19  15     1.507608469245   125.63041039   356.60579051
 C     23  21  19     1.539799082640   111.80410127   127.13972985
 H     23  21  19     1.093455830992   112.33056706     2.97910326
 H     23  21  19     1.101843935869   107.72787039   245.78832688
 C     24  23  21     1.534305490535   112.56975100    50.95410148
 H     24  23  21     1.097381794981   109.13131397   288.86838095
 H     24  23  21     1.096956205005   109.18293768   172.84411467
 C     27  24  23     1.535616572521   111.84881928   306.09050669
 H     27  24  23     1.094890086668   108.93687656   182.43844768
 H     27  24  23     1.100581917163   109.17829831    65.96998970
 C     21  19  15     1.498015704430   122.81294782   176.66388656
 H     33  21  19     1.105849931663   106.53486819   124.46006031
 C     33  21  19     1.524196076384   121.07848972     1.83246856
 H     13   3   2     0.966746322564   107.55195184    62.10667353
 C     35  33  21     1.548597957416   103.37910004   195.47333083
 H     35  33  21     1.095258249000   112.28352312    73.72795160
 H     35  33  21     1.095765406823   110.68298205   314.04451888
 C     30  27  24     1.556416181592   115.92144043   166.51534049
 H     37  35  33     1.093376943947   111.18496058   250.98088768
 H     37  35  33     1.096547734270   111.13225731   132.69564334
 H     40  30  27     1.101593130183   105.79873934   321.64741413
 C     40  30  27     1.534788290787   117.95336190    82.59590869
 C     30  27  24     1.535320306876   111.10742799   294.80736713
 H     45  30  27     1.094290012056   111.22682168    67.71455931
 H     45  30  27     1.095268626801   110.94167638   307.57655395
 H     45  30  27     1.094580678565   111.64030540   187.53200794
 H     44  40  30     1.101653974342   107.31745501    62.89842202
 C     44  40  30     1.540238279232   114.13976065   304.10181680
 C     44  40  30     1.513597779677   113.76435900   180.64964596
 C     51  44  40     1.333201392310   127.21076679    22.26685754
 H     51  44  40     1.091319479878   113.70456602   197.71347512
 H     52  51  44     1.088506926817   118.78356897   355.80564243
 C     52  51  44     1.509378699714   126.24886705   174.93568106
 C     55  52  51     1.530083271095   113.08106183    16.71620939
 C     55  52  51     1.555054916844   110.67065540   250.43849835
 H     55  52  51     1.104040380792   106.84435726   135.43935404
 H     57  55  52     1.101725018421   106.72832817    65.31371389
 C     57  55  52     1.532400175726   112.06758592   306.91304319
 C     57  55  52     1.532238708458   111.70860011   183.70353417
 H     56  55  52     1.094876059219   110.77807110    48.77938593
 H     56  55  52     1.096712733227   111.18474364   288.70778696
 H     56  55  52     1.092780866055   111.20499046   168.55273881
 H     60  57  55     1.095373330574   110.38497555   184.38262574
 H     60  57  55     1.093823557990   112.28941656    64.17788287
 H     60  57  55     1.097980634189   110.51743019   303.41504281
 H     61  57  55     1.097951743027   110.47206531    57.05774321
 H     61  57  55     1.093374072443   112.46962420   296.20011430
 H     61  57  55     1.095583967828   110.34574113   176.06819831
 H     50  44  40     1.095794408012   110.29983956   188.13622229
 H     50  44  40     1.092894657744   112.09878152    68.14885612
 H     50  44  40     1.096368463980   110.21835508   307.03325810

---------------------------
INTERNAL COORDINATES (A.U.)
---------------------------
 C      0   0   0     0.000000000000     0.00000000     0.00000000
 C      1   0   0     2.854317018077     0.00000000     0.00000000
 C      2   1   0     2.898137779641   111.73477863     0.00000000
 H      2   1   3     2.085035069104   109.42656699   241.41123165
 H      2   1   3     2.070342149069   110.70260371   122.85610614
 C      1   2   3     2.793405456449   114.20876381    50.45413806
 C      6   1   2     2.857263598109   114.47949854   312.07233744
 C      3   2   1     2.880534151575   110.38164033   305.10384085
 H      7   6   1     2.080130190422   108.36884113   289.74589813
 H      7   6   1     2.069478364713   110.20132167   172.62403913
 H      8   3   2     2.071861630649   109.67878301   179.02231303
 H      8   3   2     2.079665254821   108.69772651   296.42530575
 O      3   2   1     2.709731977563   111.19727359   180.40214037
 H      3   2   1     2.076747969685   108.99685052    65.19938439
 C      1   2   3     2.558789697986   120.89871781   232.73083587
 C      6   1   2     2.528315171287   123.32294564   129.85032835
 H     16   6   1     2.053145553093   121.41100351     0.70247186
 H     16   6   1     2.054981661135   120.93876065   181.36150599
 C     15   1   2     2.729868038180   126.49515631   174.75313679
 H     15   1   2     2.058214131277   116.14658635   357.75168905
 C     19  15   1     2.551937097734   126.36225979   176.27753441
 H     19  15   1     2.055567518629   115.89147601   355.11068935
 C     21  19  15     2.848967124054   125.63041039   356.60579051
 C     23  21  19     2.909798567453   111.80410127   127.13972985
 H     23  21  19     2.066332060114   112.33056706     2.97910326
 H     23  21  19     2.082183281115   107.72787039   245.78832688
 C     24  23  21     2.899417182883   112.56975100    50.95410148
 H     24  23  21     2.073751056865   109.13131397   288.86838095
 H     24  23  21     2.072946808365   109.18293768   172.84411467
 C     27  24  23     2.901894768776   111.84881928   306.09050669
 H     27  24  23     2.069042410548   108.93687656   182.43844768
 H     27  24  23     2.079798411384   109.17829831    65.96998970
 C     21  19  15     2.830839425685   122.81294782   176.66388656
 H     33  21  19     2.089753516059   106.53486819   124.46006031
 C     33  21  19     2.880313158762   121.07848972     1.83246856
 H     13   3   2     1.826885790622   107.55195184    62.10667353
 C     35  33  21     2.926426031067   103.37910004   195.47333083
 H     35  33  21     2.069738136529   112.28352312    73.72795160
 H     35  33  21     2.070696525921   110.68298205   314.04451888
 C     30  27  24     2.941200333613   115.92144043   166.51534049
 H     37  35  33     2.066182985203   111.18496058   250.98088768
 H     37  35  33     2.072174910542   111.13225731   132.69564334
 H     40  30  27     2.081709327055   105.79873934   321.64741413
 C     40  30  27     2.900329543137   117.95336190    82.59590869
 C     30  27  24     2.901334907843   111.10742799   294.80736713
 H     45  30  27     2.067908433871   111.22682168    67.71455931
 H     45  30  27     2.069757747730   110.94167638   307.57655395
 H     45  30  27     2.068457713970   111.64030540   187.53200794
 H     44  40  30     2.081824305853   107.31745501    62.89842202
 C     44  40  30     2.910628528731   114.13976065   304.10181680
 C     44  40  30     2.860285280501   113.76435900   180.64964596
 C     51  44  40     2.519385512828   127.21076679    22.26685754
 H     51  44  40     2.062294941583   113.70456602   197.71347512
 H     52  51  44     2.056979986560   118.78356897   355.80564243
 C     52  51  44     2.852312374834   126.24886705   174.93568106
 C     55  52  51     2.891438344464   113.08106183    16.71620939
 C     55  52  51     2.938627916042   110.67065540   250.43849835
 H     55  52  51     2.086333960486   106.84435726   135.43935404
 H     57  55  52     2.081958559705   106.72832817    65.31371389
 C     57  55  52     2.895816659695   112.06758592   306.91304319
 C     57  55  52     2.895511530778   111.70860011   183.70353417
 H     56  55  52     2.069015902510   110.77807110    48.77938593
 H     56  55  52     2.072486713384   111.18474364   288.70778696
 H     56  55  52     2.065056561233   111.20499046   168.55273881
 H     60  57  55     2.069955609186   110.38497555   184.38262574
 H     60  57  55     2.067026963433   112.28941656    64.17788287
 H     60  57  55     2.074882698965   110.51743019   303.41504281
 H     61  57  55     2.074828102582   110.47206531    57.05774321
 H     61  57  55     2.066177558847   112.46962420   296.20011430
 H     61  57  55     2.070353655909   110.34574113   176.06819831
 H     50  44  40     2.070751330225   110.29983956   188.13622229
 H     50  44  40     2.065271596362   112.09878152    68.14885612
 H     50  44  40     2.071836138791   110.21835508   307.03325810

---------------------
BASIS SET INFORMATION
---------------------
There are 3 groups of distinct atoms

 Group   1 Type C   : 7s4p contracted to 4s3p pattern {4111/211}
 Group   2 Type H   : 5s contracted to 3s pattern {311}
 Group   3 Type O   : 7s4p contracted to 4s3p pattern {4111/211}

Atom   0C    basis set group =>   1
Atom   1C    basis set group =>   1
Atom   2C    basis set group =>   1
Atom   3H    basis set group =>   2
Atom   4H    basis set group =>   2
Atom   5C    basis set group =>   1
Atom   6C    basis set group =>   1
Atom   7C    basis set group =>   1
Atom   8H    basis set group =>   2
Atom   9H    basis set group =>   2
Atom  10H    basis set group =>   2
Atom  11H    basis set group =>   2
Atom  12O    basis set group =>   3
Atom  13H    basis set group =>   2
Atom  14C    basis set group =>   1
Atom  15C    basis set group =>   1
Atom  16H    basis set group =>   2
Atom  17H    basis set group =>   2
Atom  18C    basis set group =>   1
Atom  19H    basis set group =>   2
Atom  20C    basis set group =>   1
Atom  21H    basis set group =>   2
Atom  22C    basis set group =>   1
Atom  23C    basis set group =>   1
Atom  24H    basis set group =>   2
Atom  25H    basis set group =>   2
Atom  26C    basis set group =>   1
Atom  27H    basis set group =>   2
Atom  28H    basis set group =>   2
Atom  29C    basis set group =>   1
Atom  30H    basis set group =>   2
Atom  31H    basis set group =>   2
Atom  32C    basis set group =>   1
Atom  33H    basis set group =>   2
Atom  34C    basis set group =>   1
Atom  35H    basis set group =>   2
Atom  36C    basis set group =>   1
Atom  37H    basis set group =>   2
Atom  38H    basis set group =>   2
Atom  39C    basis set group =>   1
Atom  40H    basis set group =>   2
Atom  41H    basis set group =>   2
Atom  42H    basis set group =>   2
Atom  43C    basis set group =>   1
Atom  44C    basis set group =>   1
Atom  45H    basis set group =>   2
Atom  46H    basis set group =>   2
Atom  47H    basis set group =>   2
Atom  48H    basis set group =>   2
Atom  49C    basis set group =>   1
Atom  50C    basis set group =>   1
Atom  51C    basis set group =>   1
Atom  52H    basis set group =>   2
Atom  53H    basis set group =>   2
Atom  54C    basis set group =>   1
Atom  55C    basis set group =>   1
Atom  56C    basis set group =>   1
Atom  57H    basis set group =>   2
Atom  58H    basis set group =>   2
Atom  59C    basis set group =>   1
Atom  60C    basis set group =>   1
Atom  61H    basis set group =>   2
Atom  62H    basis set group =>   2
Atom  63H    basis set group =>   2
Atom  64H    basis set group =>   2
Atom  65H    basis set group =>   2
Atom  66H    basis set group =>   2
Atom  67H    basis set group =>   2
Atom  68H    basis set group =>   2
Atom  69H    basis set group =>   2
Atom  70H    basis set group =>   2
Atom  71H    basis set group =>   2
Atom  72H    basis set group =>   2

-------------------------
BASIS SET IN INPUT FORMAT
-------------------------

 # Basis set for element : H 
 NewGTO H 
 S 3 
   1    1357.7500000000      0.0012928364
   2      54.3100000000      0.0588280685
   3       4.3448000000      0.9761499708
 S 1 
   1       0.6604910000      1.0000000000
 S 1 
   1       0.1366870000      1.0000000000
  end;

 # Basis set for element : C 
 NewGTO C 
 S 4 
   1  139534.0000000000      0.0001655246
   2    5581.3600000000      0.0074486101
   3     446.5090000000      0.1285821065
   4      67.4620000000      0.9218029311
 S 1 
   1      15.0674000000      1.0000000000
 S 1 
   1       3.9387600000      1.0000000000
 S 1 
   1       0.2999150000      1.0000000000
 P 2 
   1      28.3900000000      0.0816325586
   2       4.3676900000      0.9660360576
 P 1 
   1       0.8698170000      1.0000000000
 P 1 
   1       0.1889340000      1.0000000000
  end;

 # Basis set for element : O 
 NewGTO O 
 S 4 
   1  253789.0000000000      0.0001641076
   2   10151.6000000000      0.0074010921
   3     812.1250000000      0.1277711901
   4     122.6930000000      0.9223372164
 S 1 
   1      27.5608000000      1.0000000000
 S 1 
   1       7.3172600000      1.0000000000
 S 1 
   1       0.5792400000      1.0000000000
 P 2 
   1      53.4157000000      0.0793786106
   2       8.2177900000      0.9670506337
 P 1 
   1       1.6754400000      1.0000000000
 P 1 
   1       0.3506720000      1.0000000000
  end;

---------------------------------
AUXILIARY/J BASIS SET INFORMATION
---------------------------------
There are 3 groups of distinct atoms

 Group   1 Type C   : 12s5p4d2f1g contracted to 6s4p3d1f1g pattern {711111/2111/211/2/1}
 Group   2 Type H   : 5s2p1d contracted to 3s1p1d pattern {311/2/1}
 Group   3 Type O   : 12s5p4d2f1g contracted to 6s4p3d1f1g pattern {711111/2111/211/2/1}

Atom   0C    basis set group =>   1
Atom   1C    basis set group =>   1
Atom   2C    basis set group =>   1
Atom   3H    basis set group =>   2
Atom   4H    basis set group =>   2
Atom   5C    basis set group =>   1
Atom   6C    basis set group =>   1
Atom   7C    basis set group =>   1
Atom   8H    basis set group =>   2
Atom   9H    basis set group =>   2
Atom  10H    basis set group =>   2
Atom  11H    basis set group =>   2
Atom  12O    basis set group =>   3
Atom  13H    basis set group =>   2
Atom  14C    basis set group =>   1
Atom  15C    basis set group =>   1
Atom  16H    basis set group =>   2
Atom  17H    basis set group =>   2
Atom  18C    basis set group =>   1
Atom  19H    basis set group =>   2
Atom  20C    basis set group =>   1
Atom  21H    basis set group =>   2
Atom  22C    basis set group =>   1
Atom  23C    basis set group =>   1
Atom  24H    basis set group =>   2
Atom  25H    basis set group =>   2
Atom  26C    basis set group =>   1
Atom  27H    basis set group =>   2
Atom  28H    basis set group =>   2
Atom  29C    basis set group =>   1
Atom  30H    basis set group =>   2
Atom  31H    basis set group =>   2
Atom  32C    basis set group =>   1
Atom  33H    basis set group =>   2
Atom  34C    basis set group =>   1
Atom  35H    basis set group =>   2
Atom  36C    basis set group =>   1
Atom  37H    basis set group =>   2
Atom  38H    basis set group =>   2
Atom  39C    basis set group =>   1
Atom  40H    basis set group =>   2
Atom  41H    basis set group =>   2
Atom  42H    basis set group =>   2
Atom  43C    basis set group =>   1
Atom  44C    basis set group =>   1
Atom  45H    basis set group =>   2
Atom  46H    basis set group =>   2
Atom  47H    basis set group =>   2
Atom  48H    basis set group =>   2
Atom  49C    basis set group =>   1
Atom  50C    basis set group =>   1
Atom  51C    basis set group =>   1
Atom  52H    basis set group =>   2
Atom  53H    basis set group =>   2
Atom  54C    basis set group =>   1
Atom  55C    basis set group =>   1
Atom  56C    basis set group =>   1
Atom  57H    basis set group =>   2
Atom  58H    basis set group =>   2
Atom  59C    basis set group =>   1
Atom  60C    basis set group =>   1
Atom  61H    basis set group =>   2
Atom  62H    basis set group =>   2
Atom  63H    basis set group =>   2
Atom  64H    basis set group =>   2
Atom  65H    basis set group =>   2
Atom  66H    basis set group =>   2
Atom  67H    basis set group =>   2
Atom  68H    basis set group =>   2
Atom  69H    basis set group =>   2
Atom  70H    basis set group =>   2
Atom  71H    basis set group =>   2
Atom  72H    basis set group =>   2

-------------------------------------
AUXILIARY/J BASIS SET IN INPUT FORMAT
-------------------------------------

 # Auxiliary/J basis set for element : H 
 NewAuxJGTO H 
 S 3 
   1      15.6752927000      0.1007184237
   2       3.6063578000      0.3404257499
   3       1.2080016000      0.6491996172
 S 1 
   1       0.4726794000      1.0000000000
 S 1 
   1       0.2018100000      1.0000000000
 P 2 
   1       2.0281365000      0.5596620919
   2       0.5358730000      0.5596620919
 D 1 
   1       2.2165124000      1.0000000000
  end;

 # Auxiliary/J basis set for element : C 
 NewAuxJGTO C 
 S 7 
   1    1861.0916331000      0.0134602335
   2     642.9939764000      0.0299160374
   3     235.1105725000      0.1008649584
   4      90.7028894000      0.2370970548
   5      36.7794552000      0.3924037254
   6      15.6046273000      0.3195862154
   7       6.8907294000      0.0530104441
 S 1 
   1       3.1478850000     -1.0000000000
 S 1 
   1       1.4777287000      1.0000000000
 S 1 
   1       0.7076466000      1.0000000000
 S 1 
   1       0.3430122000      1.0000000000
 S 1 
   1       0.1669453000      1.0000000000
 P 2 
   1      13.5472892000     -0.6769313712
   2       5.4669419000     -0.3779500978
 P 1 
   1       2.1751721000      1.0000000000
 P 1 
   1       0.8582194000      1.0000000000
 P 1 
   1       0.3376720000      1.0000000000
 D 2 
   1       5.9287253000     -0.3533329857
   2       1.9809209000     -0.7456525731
 D 1 
   1       0.8055417000     -1.0000000000
 D 1 
   1       0.3531244000     -1.0000000000
 F 2 
   1       1.6755626000      0.6311076882
   2       0.5997536000      0.4968166032
 G 1 
   1       1.0024600000     -1.0000000000
  end;

 # Auxiliary/J basis set for element : O 
 NewAuxJGTO O 
 S 7 
   1    2876.8216605000      0.0168151159
   2    1004.7443032000      0.0340137548
   3     369.7579954000      0.1194951309
   4     142.9442404000      0.2664627624
   5      57.8366425000      0.4202764046
   6      24.3864983000      0.2765077335
   7      10.6622662000      0.0057008815
 S 1 
   1       4.8070437000     -1.0000000000
 S 1 
   1       2.2210770000      1.0000000000
 S 1 
   1       1.0447795000      1.0000000000
 S 1 
   1       0.4968425000      1.0000000000
 S 1 
   1       0.2371384000      1.0000000000
 P 2 
   1      64.2613382000     -0.2731534179
   2      16.3006076000     -0.8168011598
 P 1 
   1       4.3550542000      1.0000000000
 P 1 
   1       1.2019554000      1.0000000000
 P 1 
   1       0.3354196000      1.0000000000
 D 2 
   1       9.2146611000     -0.4661230638
   2       2.8435251000     -0.6600908911
 D 1 
   1       0.9955759000     -1.0000000000
 D 1 
   1       0.3649441000     -1.0000000000
 F 2 
   1       2.6420115000      0.5931563945
   2       0.7345613000      0.5931563945
 G 1 
   1       1.3931000000     -1.0000000000
  end;



           ************************************************************
           *        Program running with 4 parallel MPI-processes     *
           *              working on a common directory               *
           ************************************************************
------------------------------------------------------------------------------
                             ORCA STARTUP CALCULATIONS
                           -- RI-GTO INTEGRALS CHOSEN --
------------------------------------------------------------------------------
------------------------------------------------------------------------------
                   ___                                                        
                  /   \      - P O W E R E D   B Y -                         
                 /     \                                                     
                 |  |  |   _    _      __       _____    __    __             
                 |  |  |  | |  | |    /  \     |  _  \  |  |  /  |          
                  \  \/   | |  | |   /    \    | | | |  |  | /  /          
                 / \  \   | |__| |  /  /\  \   | |_| |  |  |/  /          
                |  |  |   |  __  | /  /__\  \  |    /   |      \           
                |  |  |   | |  | | |   __   |  |    \   |  |\   \          
                \     /   | |  | | |  |  |  |  | |\  \  |  | \   \       
                 \___/    |_|  |_| |__|  |__|  |_| \__\ |__|  \__/        
                                                                              
                      - O R C A' S   B I G   F R I E N D -                    
                                      &                                       
                       - I N T E G R A L  F E E D E R -                       
                                                                              
 v1 FN, 2020, v2 2021, v3 2022-2024                                           
------------------------------------------------------------------------------


----------------------
SHARK INTEGRAL PACKAGE
----------------------

Number of atoms                             ...     73
Number of basis functions                   ...    509
Number of shells                            ...    335
Maximum angular momentum                    ...      1
Integral batch strategy                     ... SHARK/LIBINT Hybrid
RI-J (if used) integral strategy            ... SPLIT-RIJ (Revised 2003 algorithm where possible)
Printlevel                                  ...      1
Contraction scheme used                     ... SEGMENTED contraction
Prescreening option                         ... SCHWARTZ
   Thresh                                   ... 3.000e-11
   Tcut                                     ... 1.000e-12
   Tpresel                                  ... 1.000e-12 
Coulomb Range Separation                    ... NOT USED
Exchange Range Separation                   ... NOT USED
Multipole approximations                    ... NOT USED
Finite Nucleus Model                        ... NOT USED
CABS basis                                  ... NOT available
Auxiliary Coulomb fitting basis             ... AVAILABLE
   # of basis functions in Aux-J            ...   1905
   # of shells in Aux-J                     ...    655
   Maximum angular momentum in Aux-J        ...      4
Auxiliary J/K fitting basis                 ... NOT available
Auxiliary Correlation fitting basis         ... NOT available
Auxiliary 'external' fitting basis          ... NOT available

Checking pre-screening integrals            ... done (  0.0 sec) Dimension = 335
Check shell pair data                       ... done (  0.0 sec)
Shell pair information
Shell pair cut-off parameter TPreSel        ...   1.0e-12
Total number of shell pairs                 ...     56280
Shell pairs after pre-screening             ...     21808
Total number of primitive shell pairs       ...    145865
Primitive shell pairs kept                  ...     37481
          la=0 lb=0:  10986 shell pairs
          la=1 lb=0:   8956 shell pairs
          la=1 lb=1:   1866 shell pairs

Calculating one electron integrals          ... done (  0.0 sec)
Calculating RI/J V-Matrix + Cholesky decomp.... done (  0.2 sec)
Calculating Nuclear repulsion               ... done (  0.0 sec) ENN=   2770.493765773488 Eh

Diagonalization of the overlap matrix:
Smallest eigenvalue                        ... 7.566e-03
Time for diagonalization                   ...    0.030 sec
Threshold for overlap eigenvalues          ... 1.000e-07
Number of eigenvalues below threshold      ... 0
Time for construction of square roots      ...    0.017 sec
Total time needed                          ...    0.049 sec

-------------------
DFT GRID GENERATION
-------------------

General Integration Accuracy     IntAcc      ... 4.388
Radial Grid Type                 RadialGrid  ... OptM3 with GC (2021)
Angular Grid (max. ang.)         AngularGrid ... 4 (Lebedev-302)
Angular grid pruning method      GridPruning ... 4 (adaptive)
Weight generation scheme         WeightScheme... mBecke (2022)
Basis function cutoff            BFCut       ... 1.0000e-11
Integration weight cutoff        WCut        ... 1.0000e-14
Partially contracted basis set               ... off
Rotationally invariant grid construction     ... off
Angular grids for H and He will be reduced by one unit

Total number of grid points                  ...   310032
Total number of batches                      ...     4886
Average number of points per batch           ...       63
Average number of grid points per atom       ...     4247

--------------------
COSX GRID GENERATION
--------------------

GRIDX 1
-------
General Integration Accuracy     IntAcc      ... 3.816
Radial Grid Type                 RadialGrid  ... OptM3 with GC (2021)
Angular Grid (max. ang.)         AngularGrid ... 1 (Lebedev-50)
Angular grid pruning method      GridPruning ... 4 (adaptive)
Weight generation scheme         WeightScheme... mBecke (2022)
Basis function cutoff            BFCut       ... 1.0000e-11
Integration weight cutoff        WCut        ... 1.0000e-14
Partially contracted basis set               ... on
Rotationally invariant grid construction     ... off
Angular grids for H and He will be reduced by one unit

Total number of grid points                  ...    39416
Total number of batches                      ...      353
Average number of points per batch           ...      111
Average number of grid points per atom       ...      540
UseSFitting                                  ... on

GRIDX 2
-------
General Integration Accuracy     IntAcc      ... 4.020
Radial Grid Type                 RadialGrid  ... OptM3 with GC (2021)
Angular Grid (max. ang.)         AngularGrid ... 2 (Lebedev-110)
Angular grid pruning method      GridPruning ... 4 (adaptive)
Weight generation scheme         WeightScheme... mBecke (2022)
Basis function cutoff            BFCut       ... 1.0000e-11
Integration weight cutoff        WCut        ... 1.0000e-14
Partially contracted basis set               ... on
Rotationally invariant grid construction     ... off
Angular grids for H and He will be reduced by one unit

Total number of grid points                  ...    81495
Total number of batches                      ...      674
Average number of points per batch           ...      120
Average number of grid points per atom       ...     1116
UseSFitting                                  ... on

GRIDX 3
-------
General Integration Accuracy     IntAcc      ... 4.338
Radial Grid Type                 RadialGrid  ... OptM3 with GC (2021)
Angular Grid (max. ang.)         AngularGrid ... 3 (Lebedev-194)
Angular grid pruning method      GridPruning ... 4 (adaptive)
Weight generation scheme         WeightScheme... mBecke (2022)
Basis function cutoff            BFCut       ... 1.0000e-11
Integration weight cutoff        WCut        ... 1.0000e-14
Partially contracted basis set               ... on
Rotationally invariant grid construction     ... off
Angular grids for H and He will be reduced by one unit

Total number of grid points                  ...   176434
Total number of batches                      ...     1421
Average number of points per batch           ...      124
Average number of grid points per atom       ...     2417
UseSFitting                                  ... on
Initializing property integral containers    ... done (  0.0 sec)

SHARK setup successfully completed in   3.7 seconds

Maximum memory used throughout the entire STARTUP-calculation: 85.3 MB


           ************************************************************
           *        Program running with 4 parallel MPI-processes     *
           *              working on a common directory               *
           ************************************************************
-------------------------------------------------------------------------------
                                 ORCA GUESS
                   Start orbitals & Density for SCF / CASSCF
-------------------------------------------------------------------------------

------------
SCF SETTINGS
------------
Hamiltonian:
 Density Functional     Method          .... DFT(GTOs)
 Exchange Functional    Exchange        .... PBE
   PBE kappa parameter   XKappa         ....  0.804000
   PBE mue parameter    XMuePBE         ....  0.219520
 Correlation Functional Correlation     .... PBE
   PBE beta parameter  CBetaPBE         ....  0.066725
 LDA part of GGA corr.  LDAOpt          .... PW91-LDA
 Gradients option       PostSCFGGA      .... off
 Hybrid DFT is turned on
   Fraction HF Exchange ScalHFX         ....  0.250000
   Scaling of DF-GGA-X  ScalDFX         ....  0.750000
   Scaling of DF-GGA-C  ScalDFC         ....  1.000000
   Scaling of DF-LDA-C  ScalLDAC        ....  1.000000
   Perturbative correction              ....  0.000000
   NL short-range parameter             ....  6.900000
 RI-approximation to the Coulomb term is turned on
   Number of AuxJ basis functions       .... 1905
   RIJ-COSX (HFX calculated with COS-X)).... on


General Settings:
 Integral files         IntName         .... inpJ
 Hartree-Fock type      HFTyp           .... RHF
 Total Charge           Charge          ....    0
 Multiplicity           Mult            ....    1
 Number of Electrons    NEL             ....  220
 Basis Dimension        Dim             ....  509
 Nuclear Repulsion      ENuc            ....   2770.4937657735 Eh

Convergence Acceleration:
 AO-DIIS                CNVDIIS         .... on
   Start iteration      DIISMaxIt       ....    12
   Startup error        DIISStart       ....  0.200000
   # of expansion vecs  DIISMaxEq       ....     5
   Bias factor          DIISBfac        ....   1.050
   Max. coefficient     DIISMaxC        ....  10.000
 MO-DIIS                CNVKDIIS        .... off
 Trust-Rad. Augm. Hess. CNVTRAH         .... auto
   Auto Start mean grad. ratio tolernc. ....  1.125000
   Auto Start start iteration           ....    50
   Auto Start num. interpolation iter.  ....    10
   Max. Number of Micro iterations      ....    24
   Max. Number of Macro iterations      .... Maxiter - #DIIS iter
   Number of Davidson start vectors     ....     2
   Converg. threshold    (grad. norm)   ....   1.000e-04
   Grad. Scal. Fac. for Micro threshold ....   0.100
   Minimum threshold for Micro iter.    ....   1.000e-02
   NR start threshold (gradient norm)   ....   1.000e-04
   Initial trust radius                 ....   0.400
   Minimum AH scaling param. (alpha)    ....   1.000
   Maximum AH scaling param. (alpha)    .... 1000.000
   Quad. conv. algorithm                .... NR
   White noise on init. David. guess    .... on
   Maximum white noise                  ....   0.010
   Pseudo random numbers                .... off
   Inactive MOs                         .... canonical
   Orbital update algorithm             .... Taylor
   Preconditioner                       .... Diag
   Full preconditioner red. dimension   ....   250
 SOSCF                  CNVSOSCF        .... off
 Level Shifting         CNVShift        .... on
   Level shift para.    LevelShift      ....    0.2500
   Turn off err/grad.   ShiftErr        ....    0.0010
 Zerner damping         CNVZerner       .... off
 Static damping         CNVDamp         .... on
   Fraction old density DampFac         ....    0.7000
   Max. Damping (<1)    DampMax         ....    0.9800
   Min. Damping (>=0)   DampMin         ....    0.0000
   Turn off err/grad.   DampErr         ....    0.1000

SCF Procedure:
 Maximum # iterations   MaxIter         ....   125
 SCF integral mode      SCFMode         .... Direct
   Integral package                     .... SHARK and LIBINT hybrid scheme
 Reset frequency        DirectResetFreq ....    20
 Integral Threshold     Thresh          ....  3.000e-11 Eh
 Primitive CutOff       TCut            ....  1.000e-12 Eh

Convergence Tolerance:
 Convergence Check Mode ConvCheckMode   .... Total+1el-Energy
 Convergence forced     ConvForced      .... 0
 Energy Change          TolE            ....  1.000e-07 Eh
 1-El. energy change                    ....  1.000e-04 Eh
 DIIS Error             TolErr          ....  1.000e-07

------------------------------
INITIAL GUESS: MODEL POTENTIAL
------------------------------
Loading Hartree-Fock densities                     ... done
Calculating cut-offs                               ... done
Initializing the effective Hamiltonian             ... done
Setting up the integral package (SHARK)            ... done
Starting the Coulomb interaction                   ... done (   0.3 sec)
Making the grid                                    ... done (   0.4 sec)
Mapping shells                                     ... done
Starting the XC term evaluation                    ... done (   0.1 sec)
  promolecular density results
     # of electrons  =    219.969642314
     EX              =   -164.431778023
     EC              =     -7.327014355
     EX+EC           =   -171.758792379
Transforming the Hamiltonian                       ... done (   0.0 sec)
Diagonalizing the Hamiltonian                      ... done (   0.0 sec)
Back transforming the eigenvectors                 ... done (   0.0 sec)
Now organizing SCF variables                       ... done
                      ------------------
                      INITIAL GUESS DONE (   0.9 sec)
                      ------------------
             **** ENERGY FILE WAS UPDATED (inpJ.en.tmp) ****
Finished Guess after   1.1 sec
Maximum memory used throughout the entire GUESS-calculation: 45.7 MB


           ************************************************************
           *        Program running with 4 parallel MPI-processes     *
           *              working on a common directory               *
           ************************************************************

-------------------------------------------------------------------------------------------
                                      ORCA LEAN-SCF
                              memory conserving SCF solver
-------------------------------------------------------------------------------------------

--------------------
CPCM SOLVATION MODEL
--------------------
CPCM parameters:
  Epsilon                                         ...       4.8030
  Refrac                                          ...       1.4459
  Rsolv                                           ...       1.3000
  Surface type                                    ... GAUSSIAN VDW
  Discretization scheme                           ... Constant charge density
    Threshold for H atoms                         ...       5.0000 (charges/Ang^2)
    Threshold for non-H atoms                     ...       5.0000 (charges/Ang^2)
  Epsilon function type                           ...         CPCM
Solvent:                                          ... CHLOROFORM
Radii:
  Scheme                                          ... Element-dependent radii
  Radius for C  used is    3.8550 Bohr (=   2.0400 Ang.)
  Radius for H  used is    2.4944 Bohr (=   1.3200 Ang.)
  Radius for O  used is    3.4469 Bohr (=   1.8240 Ang.)
Calculating surface                               ...        done! (  0.0s)
Cavity surface points                             ...         5425
Cavity Volume                                     ...    3605.8996
Cavity Surface-area                               ...    1796.5512
Calculating surface distance matrix               ...        done! (  0.2s)
Performing Cholesky decomposition & store         ...        done! (  0.9s)
Overall time for CPCM initialization              ...                 1.2s

----------------------------------------D-I-I-S--------------------------------------------
Iteration    Energy (Eh)           Delta-E    RMSDP     MaxDP     DIISErr   Damp  Time(sec)
-------------------------------------------------------------------------------------------
               ***  Starting incremental Fock matrix formation  ***
    1    -1165.0069443720103664     0.00e+00  1.50e-03  9.75e-02  1.94e-01  0.700   6.1

  HOMO= 109 E= -3.904 eV LUMO=  7.778 eV gap=  11.682 eV
    2    -1165.2250390313856769    -2.18e-01  1.10e-03  6.54e-02  9.46e-02  0.700   3.5

  HOMO= 109 E= -4.747 eV LUMO=  7.086 eV gap=  11.833 eV
                               ***Turning on AO-DIIS***
    3    -1165.3258950056756476    -1.01e-01  4.54e-04  2.22e-02  3.77e-02  0.700   3.5

  HOMO= 109 E= -5.749 eV LUMO=  6.143 eV gap=  11.892 eV
    4    -1165.3837780563085289    -5.79e-02  7.64e-04  3.20e-02  2.69e-02  0.000   3.7

  HOMO= 109 E= -5.914 eV LUMO=  5.981 eV gap=  11.896 eV
    5    -1165.5062599293710264    -1.22e-01  1.07e-04  6.27e-03  3.25e-03  0.000   3.9

  HOMO= 109 E= -5.963 eV LUMO=  5.937 eV gap=  11.900 eV
    6    -1165.5064813439025784    -2.21e-04  3.18e-05  2.01e-03  9.15e-04  0.000   3.4

  HOMO= 109 E= -5.928 eV LUMO=  5.977 eV gap=  11.905 eV
               *** Restarting incremental Fock matrix formation ***
                             ****Resetting DIIS****
    7    -1165.5065161931952389    -3.48e-05  1.52e-05  1.05e-03  2.98e-04  0.000   6.9

  HOMO= 109 E= -5.921 eV LUMO= -0.819 eV gap=   5.102 eV
    8    -1165.5065175029085367    -1.31e-06  7.00e-06  6.81e-04  4.44e-04  0.000   4.2

  HOMO= 109 E= -5.923 eV LUMO= -0.820 eV gap=   5.103 eV
    9    -1165.5065184672494070    -9.64e-07  2.69e-06  2.52e-04  2.04e-04  0.000   3.7

  HOMO= 109 E= -5.923 eV LUMO= -0.820 eV gap=   5.103 eV
   10    -1165.5065186488527615    -1.82e-07  8.83e-07  8.48e-05  5.41e-05  0.000   3.4

  HOMO= 109 E= -5.923 eV LUMO= -0.820 eV gap=   5.103 eV
   11    -1165.5065186484953301     3.57e-10  2.51e-07  2.70e-05  1.30e-05  0.000   3.0
                 **** Energy Check signals convergence ****

  HOMO= 109 E= -5.923 eV LUMO= -0.820 eV gap=   5.103 eV

               *****************************************************
               *                     SUCCESS                       *
               *           SCF CONVERGED AFTER  11 CYCLES          *
               *****************************************************

Recomputing exchange energy using gridx3       ... done (    8.735 sec)
Old exchange energy                            :    -42.067704336 Eh
New exchange energy                            :    -42.067572012 Eh
Exchange energy change after final integration :      0.000132324 Eh
Total energy after final integration           :  -1165.506386325 Eh
             **** ENERGY FILE WAS UPDATED (inpJ.en.tmp) ****

----------------
TOTAL SCF ENERGY
----------------

Total Energy       :      -1165.50638632474352 Eh          -31715.04113 eV

Components:
Nuclear Repulsion  :       2770.49376577348812 Eh           75388.96807 eV
Electronic Energy  :      -3935.98470468678261 Eh         -107103.58886 eV
One Electron Energy:      -7083.05896232511441 Eh         -192739.83307 eV
Two Electron Energy:       3147.07425763833180 Eh           85636.24421 eV
CPCM Dielectric    :         -0.01557973520084 Eh              -0.42395 eV

Virial components:
Potential Energy   :      -2322.40620044231218 Eh          -63195.88553 eV
Kinetic Energy     :       1156.89981411756844 Eh           31480.84440 eV
Virial Ratio       :          2.00743934098887

DFT components:
N(Alpha)           :      110.000147838173 electrons
N(Beta)            :      110.000147838173 electrons
N(Total)           :      220.000295676346 electrons
E(X)               :     -125.745710022745 Eh       
E(C)               :       -7.327830050802 Eh       
E(XC)              :     -133.073540073547 Eh       

CPCM Solvation Model Properties:
Surface-charge          :         -0.03324261371125
Corrected charge        :         -0.00000000000000
Outlying charge corr.   :          0.00003850824533 Eh               0.00105 eV
Free-energy (cav+disp)  :  This term is not implemented in the current solvation scheme

---------------
SCF CONVERGENCE
---------------

  Last Energy change         ...   -3.5743e-10  Tolerance :   1.0000e-07
  Last MAX-Density change    ...    2.7003e-05  Tolerance :   1.0000e-05
  Last RMS-Density change    ...    2.5125e-07  Tolerance :   1.0000e-06
  Last DIIS Error            ...    1.3018e-05  Tolerance :   1.0000e-07


----------------
ORBITAL ENERGIES
----------------

  NO   OCC          E(Eh)            E(eV) 
   0   2.0000     -19.215155      -522.8710 
   1   2.0000     -10.301404      -280.3154 
   2   2.0000     -10.269484      -279.4469 
   3   2.0000     -10.266801      -279.3739 
   4   2.0000     -10.261717      -279.2355 
   5   2.0000     -10.256415      -279.0912 
   6   2.0000     -10.253429      -279.0100 
   7   2.0000     -10.251712      -278.9633 
   8   2.0000     -10.251466      -278.9566 
   9   2.0000     -10.250551      -278.9317 
  10   2.0000     -10.249233      -278.8958 
  11   2.0000     -10.246192      -278.8131 
  12   2.0000     -10.245112      -278.7837 
  13   2.0000     -10.244088      -278.7558 
  14   2.0000     -10.243829      -278.7488 
  15   2.0000     -10.243497      -278.7397 
  16   2.0000     -10.243161      -278.7306 
  17   2.0000     -10.241860      -278.6952 
  18   2.0000     -10.241525      -278.6861 
  19   2.0000     -10.241112      -278.6748 
  20   2.0000     -10.239035      -278.6183 
  21   2.0000     -10.233509      -278.4679 
  22   2.0000     -10.233354      -278.4637 
  23   2.0000     -10.232544      -278.4417 
  24   2.0000     -10.226831      -278.2862 
  25   2.0000     -10.224810      -278.2312 
  26   2.0000     -10.224735      -278.2292 
  27   2.0000     -10.224698      -278.2282 
  28   2.0000     -10.220020      -278.1009 
  29   2.0000      -1.045761       -28.4566 
  30   2.0000      -0.900649       -24.5079 
  31   2.0000      -0.883679       -24.0461 
  32   2.0000      -0.860105       -23.4046 
  33   2.0000      -0.845495       -23.0071 
  34   2.0000      -0.821990       -22.3675 
  35   2.0000      -0.813779       -22.1441 
  36   2.0000      -0.794895       -21.6302 
  37   2.0000      -0.794780       -21.6271 
  38   2.0000      -0.777563       -21.1586 
  39   2.0000      -0.757334       -20.6081 
  40   2.0000      -0.738978       -20.1086 
  41   2.0000      -0.733136       -19.9496 
  42   2.0000      -0.713775       -19.4228 
  43   2.0000      -0.702364       -19.1123 
  44   2.0000      -0.699358       -19.0305 
  45   2.0000      -0.693580       -18.8733 
  46   2.0000      -0.668907       -18.2019 
  47   2.0000      -0.663398       -18.0520 
  48   2.0000      -0.631606       -17.1869 
  49   2.0000      -0.621868       -16.9219 
  50   2.0000      -0.619364       -16.8538 
  51   2.0000      -0.608429       -16.5562 
  52   2.0000      -0.596595       -16.2342 
  53   2.0000      -0.586927       -15.9711 
  54   2.0000      -0.567106       -15.4317 
  55   2.0000      -0.541801       -14.7432 
  56   2.0000      -0.531308       -14.4576 
  57   2.0000      -0.528742       -14.3878 
  58   2.0000      -0.514980       -14.0133 
  59   2.0000      -0.511538       -13.9197 
  60   2.0000      -0.498776       -13.5724 
  61   2.0000      -0.492701       -13.4071 
  62   2.0000      -0.480584       -13.0773 
  63   2.0000      -0.477697       -12.9988 
  64   2.0000      -0.475918       -12.9504 
  65   2.0000      -0.469190       -12.7673 
  66   2.0000      -0.464159       -12.6304 
  67   2.0000      -0.460688       -12.5360 
  68   2.0000      -0.456954       -12.4343 
  69   2.0000      -0.450157       -12.2494 
  70   2.0000      -0.448245       -12.1974 
  71   2.0000      -0.440642       -11.9905 
  72   2.0000      -0.439388       -11.9564 
  73   2.0000      -0.432696       -11.7742 
  74   2.0000      -0.430145       -11.7048 
  75   2.0000      -0.418574       -11.3900 
  76   2.0000      -0.416440       -11.3319 
  77   2.0000      -0.414836       -11.2883 
  78   2.0000      -0.406733       -11.0678 
  79   2.0000      -0.403777       -10.9873 
  80   2.0000      -0.401296       -10.9198 
  81   2.0000      -0.399542       -10.8721 
  82   2.0000      -0.394578       -10.7370 
  83   2.0000      -0.389986       -10.6121 
  84   2.0000      -0.388733       -10.5780 
  85   2.0000      -0.384877       -10.4730 
  86   2.0000      -0.378120       -10.2892 
  87   2.0000      -0.369064       -10.0428 
  88   2.0000      -0.367189        -9.9917 
  89   2.0000      -0.365875        -9.9560 
  90   2.0000      -0.361646        -9.8409 
  91   2.0000      -0.360771        -9.8171 
  92   2.0000      -0.354608        -9.6494 
  93   2.0000      -0.344144        -9.3646 
  94   2.0000      -0.340927        -9.2771 
  95   2.0000      -0.337474        -9.1831 
  96   2.0000      -0.336519        -9.1572 
  97   2.0000      -0.332299        -9.0423 
  98   2.0000      -0.331318        -9.0156 
  99   2.0000      -0.328218        -8.9313 
 100   2.0000      -0.326237        -8.8773 
 101   2.0000      -0.325307        -8.8520 
 102   2.0000      -0.317028        -8.6268 
 103   2.0000      -0.315191        -8.5768 
 104   2.0000      -0.310975        -8.4621 
 105   2.0000      -0.299670        -8.1544 
 106   2.0000      -0.279975        -7.6185 
 107   2.0000      -0.274822        -7.4783 
 108   2.0000      -0.255648        -6.9565 
 109   2.0000      -0.217667        -5.9230 
 110   0.0000      -0.030126        -0.8198 
 111   0.0000       0.021437         0.5833 
 112   0.0000       0.028047         0.7632 
 113   0.0000       0.080802         2.1987 
 114   0.0000       0.090862         2.4725 
 115   0.0000       0.102044         2.7768 
 116   0.0000       0.105588         2.8732 
 117   0.0000       0.107270         2.9190 
 118   0.0000       0.108260         2.9459 
 119   0.0000       0.118474         3.2238 
 120   0.0000       0.119093         3.2407 
*Only the first 10 virtual orbitals were printed.

                    ********************************
                    * MULLIKEN POPULATION ANALYSIS *
                    ********************************

-----------------------
MULLIKEN ATOMIC CHARGES
-----------------------
   0 C :    0.107829
   1 C :   -0.499948
   2 C :   -0.054799
   3 H :    0.207208
   4 H :    0.222186
   5 C :    0.135230
   6 C :   -0.475761
   7 C :   -0.451332
   8 H :    0.214190
   9 H :    0.223998
  10 H :    0.229035
  11 H :    0.204649
  12 O :   -0.487582
  13 H :    0.234020
  14 C :   -0.283217
  15 C :   -0.515888
  16 H :    0.201173
  17 H :    0.196665
  18 C :   -0.259946
  19 H :    0.217849
  20 C :    0.149939
  21 H :    0.218649
  22 C :   -0.479960
  23 C :   -0.427418
  24 H :    0.211650
  25 H :    0.206539
  26 C :   -0.396518
  27 H :    0.207982
  28 H :    0.216699
  29 C :    0.004624
  30 H :    0.222670
  31 H :    0.194099
  32 C :   -0.229365
  33 H :    0.226850
  34 C :   -0.433936
  35 H :    0.343086
  36 C :   -0.419279
  37 H :    0.207286
  38 H :    0.198324
  39 C :   -0.200787
  40 H :    0.210767
  41 H :    0.204290
  42 H :    0.209106
  43 C :   -0.239549
  44 C :   -0.629469
  45 H :    0.209563
  46 H :    0.201527
  47 H :    0.205329
  48 H :    0.219954
  49 C :   -0.620327
  50 C :   -0.179011
  51 C :   -0.184405
  52 H :    0.217410
  53 H :    0.221655
  54 C :   -0.232224
  55 C :   -0.633136
  56 C :   -0.199157
  57 H :    0.210977
  58 H :    0.212477
  59 C :   -0.613239
  60 C :   -0.613070
  61 H :    0.203960
  62 H :    0.191441
  63 H :    0.213741
  64 H :    0.206492
  65 H :    0.208583
  66 H :    0.192355
  67 H :    0.192505
  68 H :    0.210055
  69 H :    0.205589
  70 H :    0.204595
  71 H :    0.208747
  72 H :    0.195780
Sum of atomic charges:   -0.0000000

--------------------------------
MULLIKEN REDUCED ORBITAL CHARGES
--------------------------------
  0 C s       :     3.355948  s :     3.355948
      pz      :     0.996646  p :     2.536223
      px      :     0.786820
      py      :     0.752757

  1 C s       :     3.383557  s :     3.383557
      pz      :     1.049846  p :     3.116391
      px      :     0.953590
      py      :     1.112955

  2 C s       :     3.306352  s :     3.306352
      pz      :     1.071702  p :     2.748447
      px      :     0.811401
      py      :     0.865343

  3 H s       :     0.792792  s :     0.792792

  4 H s       :     0.777814  s :     0.777814

  5 C s       :     3.345337  s :     3.345337
      pz      :     0.812142  p :     2.519433
      px      :     0.941895
      py      :     0.765396

  6 C s       :     3.368349  s :     3.368349
      pz      :     1.065507  p :     3.107412
      px      :     0.948182
      py      :     1.093723

  7 C s       :     3.340507  s :     3.340507
      pz      :     1.165244  p :     3.110826
      px      :     1.003602
      py      :     0.941980

  8 H s       :     0.785810  s :     0.785810

  9 H s       :     0.776002  s :     0.776002

 10 H s       :     0.770965  s :     0.770965

 11 H s       :     0.795351  s :     0.795351

 12 O s       :     3.685645  s :     3.685645
      pz      :     1.624348  p :     4.801937
      px      :     1.312464
      py      :     1.865125

 13 H s       :     0.765980  s :     0.765980

 14 C s       :     3.392278  s :     3.392278
      pz      :     1.018381  p :     2.890938
      px      :     0.780341
      py      :     1.092216

 15 C s       :     3.386751  s :     3.386751
      pz      :     0.971123  p :     3.129137
      px      :     1.024936
      py      :     1.133078

 16 H s       :     0.798827  s :     0.798827

 17 H s       :     0.803335  s :     0.803335

 18 C s       :     3.397145  s :     3.397145
      pz      :     1.038091  p :     2.862801
      px      :     0.729868
      py      :     1.094842

 19 H s       :     0.782151  s :     0.782151

 20 C s       :     3.350351  s :     3.350351
      pz      :     0.959471  p :     2.499710
      px      :     0.742773
      py      :     0.797467

 21 H s       :     0.781351  s :     0.781351

 22 C s       :     3.372427  s :     3.372427
      pz      :     1.075299  p :     3.107533
      px      :     1.117966
      py      :     0.914268

 23 C s       :     3.327114  s :     3.327114
      pz      :     1.062427  p :     3.100304
      px      :     0.904745
      py      :     1.133132

 24 H s       :     0.788350  s :     0.788350

 25 H s       :     0.793461  s :     0.793461

 26 C s       :     3.349512  s :     3.349512
      pz      :     1.180954  p :     3.047006
      px      :     0.974667
      py      :     0.891386

 27 H s       :     0.792018  s :     0.792018

 28 H s       :     0.783301  s :     0.783301

 29 C s       :     3.317451  s :     3.317451
      pz      :     0.867648  p :     2.677925
      px      :     0.907191
      py      :     0.903086

 30 H s       :     0.777330  s :     0.777330

 31 H s       :     0.805901  s :     0.805901

 32 C s       :     3.362286  s :     3.362286
      pz      :     1.041213  p :     2.867080
      px      :     0.889558
      py      :     0.936309

 33 H s       :     0.773150  s :     0.773150

 34 C s       :     3.343899  s :     3.343899
      pz      :     1.185950  p :     3.090036
      px      :     0.952572
      py      :     0.951514

 35 H s       :     0.656914  s :     0.656914

 36 C s       :     3.338429  s :     3.338429
      pz      :     1.142940  p :     3.080850
      px      :     0.928894
      py      :     1.009015

 37 H s       :     0.792714  s :     0.792714

 38 H s       :     0.801676  s :     0.801676

 39 C s       :     3.342608  s :     3.342608
      pz      :     1.024522  p :     2.858178
      px      :     0.880933
      py      :     0.952723

 40 H s       :     0.789233  s :     0.789233

 41 H s       :     0.795710  s :     0.795710

 42 H s       :     0.790894  s :     0.790894

 43 C s       :     3.347169  s :     3.347169
      pz      :     1.004311  p :     2.892380
      px      :     0.896720
      py      :     0.991350

 44 C s       :     3.366314  s :     3.366314
      pz      :     0.984305  p :     3.263155
      px      :     1.150228
      py      :     1.128622

 45 H s       :     0.790437  s :     0.790437

 46 H s       :     0.798473  s :     0.798473

 47 H s       :     0.794671  s :     0.794671

 48 H s       :     0.780046  s :     0.780046

 49 C s       :     3.348534  s :     3.348534
      pz      :     1.120713  p :     3.271794
      px      :     1.147809
      py      :     1.003271

 50 C s       :     3.347490  s :     3.347490
      pz      :     0.883060  p :     2.831522
      px      :     0.949010
      py      :     0.999452

 51 C s       :     3.351043  s :     3.351043
      pz      :     0.890447  p :     2.833362
      px      :     0.937117
      py      :     1.005797

 52 H s       :     0.782590  s :     0.782590

 53 H s       :     0.778345  s :     0.778345

 54 C s       :     3.339732  s :     3.339732
      pz      :     1.037355  p :     2.892493
      px      :     0.900383
      py      :     0.954754

 55 C s       :     3.348163  s :     3.348163
      pz      :     1.076510  p :     3.284973
      px      :     1.125079
      py      :     1.083385

 56 C s       :     3.311431  s :     3.311431
      pz      :     1.042878  p :     2.887727
      px      :     0.894671
      py      :     0.950178

 57 H s       :     0.789023  s :     0.789023

 58 H s       :     0.787523  s :     0.787523

 59 C s       :     3.341550  s :     3.341550
      pz      :     1.067332  p :     3.271689
      px      :     1.121344
      py      :     1.083013

 60 C s       :     3.341857  s :     3.341857
      pz      :     1.121159  p :     3.271213
      px      :     1.012745
      py      :     1.137309

 61 H s       :     0.796040  s :     0.796040

 62 H s       :     0.808559  s :     0.808559

 63 H s       :     0.786259  s :     0.786259

 64 H s       :     0.793508  s :     0.793508

 65 H s       :     0.791417  s :     0.791417

 66 H s       :     0.807645  s :     0.807645

 67 H s       :     0.807495  s :     0.807495

 68 H s       :     0.789945  s :     0.789945

 69 H s       :     0.794411  s :     0.794411

 70 H s       :     0.795405  s :     0.795405

 71 H s       :     0.791253  s :     0.791253

 72 H s       :     0.804220  s :     0.804220


------------------------
MULLIKEN OVERLAP CHARGES
------------------------
B(  0-C ,  1-C ) :   0.4963 B(  0-C ,  2-C ) :  -0.1306 B(  0-C ,  3-H ) :  -0.0875 
B(  0-C ,  4-H ) :  -0.0673 B(  0-C ,  5-C ) :   0.4215 B(  0-C ,  6-C ) :  -0.1563 
B(  0-C , 14-C ) :   0.9467 B(  0-C , 15-C ) :  -0.2028 B(  0-C , 18-C ) :  -0.1832 
B(  0-C , 19-H ) :  -0.0752 B(  1-C ,  2-C ) :   0.5274 B(  1-C ,  3-H ) :   0.7957 
B(  1-C ,  4-H ) :   0.8136 B(  1-C ,  5-C ) :  -0.1485 B(  1-C ,  7-C ) :  -0.1686 
[...]
        0.0000         1.1544        0.0000
        0.0000         0.0000        1.1544

 Diagonalized JT*J matrix:
 
 J[55,60](FC)             1.154            1.154            1.154  iso=      1.154
                ---------------  ---------------  ---------------  ---------------
 J[55,60](Total)          1.154            1.154            1.154  iso=      1.154



-----------------------------------------------------------
 NUCLEUS A = C   56 NUCLEUS B = C   59 
 ( 13C  gnA =  1.405  13C  gnB =  1.405) r(AB) =     1.5324
-----------------------------------------------------------

Fermi-contact contribution to J (Hz):
       27.1634         0.0000        0.0000
        0.0000        27.1634        0.0000
        0.0000         0.0000       27.1634

Total spin-spin coupling tensor J (Hz):
       27.1634         0.0000        0.0000
        0.0000        27.1634        0.0000
        0.0000         0.0000       27.1634

 Diagonalized JT*J matrix:
 
 J[56,59](FC)            27.163           27.163           27.163  iso=     27.163
                ---------------  ---------------  ---------------  ---------------
 J[56,59](Total)         27.163           27.163           27.163  iso=     27.163



-----------------------------------------------------------
 NUCLEUS A = C   56 NUCLEUS B = C   60 
 ( 13C  gnA =  1.405  13C  gnB =  1.405) r(AB) =     1.5322
-----------------------------------------------------------

Fermi-contact contribution to J (Hz):
       26.4909         0.0000        0.0000
        0.0000        26.4909        0.0000
        0.0000         0.0000       26.4909

Total spin-spin coupling tensor J (Hz):
       26.4909         0.0000        0.0000
        0.0000        26.4909        0.0000
        0.0000         0.0000       26.4909

 Diagonalized JT*J matrix:
 
 J[56,60](FC)            26.491           26.491           26.491  iso=     26.491
                ---------------  ---------------  ---------------  ---------------
 J[56,60](Total)         26.491           26.491           26.491  iso=     26.491



-----------------------------------------------------------
 NUCLEUS A = C   59 NUCLEUS B = C   60 
 ( 13C  gnA =  1.405  13C  gnB =  1.405) r(AB) =     2.5016
-----------------------------------------------------------

Fermi-contact contribution to J (Hz):
       -0.9367         0.0000        0.0000
        0.0000        -0.9367        0.0000
        0.0000         0.0000       -0.9367

Total spin-spin coupling tensor J (Hz):
       -0.9367         0.0000        0.0000
        0.0000        -0.9367        0.0000
        0.0000         0.0000       -0.9367

 Diagonalized JT*J matrix:
 
 J[59,60](FC)            -0.937           -0.937           -0.937  iso=     -0.937
                ---------------  ---------------  ---------------  ---------------
 J[59,60](Total)         -0.937           -0.937           -0.937  iso=     -0.937



-----------------------------------------------------------------------------
                SUMMARY OF ISOTROPIC COUPLING CONSTANTS J (Hz)                
-----------------------------------------------------------------------------
                  0 C        1 C        2 C        5 C        6 C        7 C  
      0 C        0.000     32.422     -2.397     42.234     -0.187      0.883
      1 C       32.422      0.000     25.304     -1.202      0.379     -0.395
      2 C       -2.397     25.304      0.000      2.039     -1.357     25.930
      5 C       42.234     -1.202      2.039      0.000     30.974     -2.886
      6 C       -0.187      0.379     -1.357     30.974      0.000     23.055
      7 C        0.883     -0.395     25.930     -2.886     23.055      0.000
     14 C       70.318     -0.390      3.558     -3.224      2.733     -0.706
     15 C       -3.273      2.723     -0.845     64.255     -0.892      2.833
     18 C       -2.649      4.233     -1.079      3.289     -1.014      0.207
     20 C        6.973     -1.160      1.259     -1.515      0.784     -0.146
     22 C       -0.941      0.335     -0.382      0.448     -0.236      0.046
     23 C        0.805     -0.273      0.296     -0.337      0.191      0.000
     26 C       -0.078      0.030      0.000      0.041      0.000      0.000
     29 C        1.129     -0.361      0.000     -0.488      0.258      0.000
     32 C       -1.155      0.558     -0.415      0.516     -0.278      0.058
     34 C        0.022     -0.015      0.015     -0.017      0.009     -0.002
     36 C       -0.013      0.000      0.000      0.015     -0.009      0.000
     39 C       -0.078      0.000      0.000      0.033      0.000      0.000
     43 C        0.000      0.000      0.000      0.000      0.000      0.000
     44 C        0.008     -0.003      0.005     -0.006      0.004     -0.001
     49 C        0.000      0.000      0.000      0.000      0.000      0.000
     50 C        0.000      0.000      0.000      0.000      0.000      0.000
     51 C        0.000      0.000      0.000      0.000      0.000      0.000
     54 C        0.000      0.000      0.000      0.000      0.000      0.000
     55 C        0.000      0.000      0.000      0.000      0.000      0.000
     56 C        0.000      0.000      0.000      0.000      0.000      0.000
     59 C        0.000      0.000      0.000      0.000      0.000      0.000
     60 C        0.000      0.000      0.000      0.000      0.000      0.000
                 14 C       15 C       18 C       20 C       22 C       23 C  
      0 C       70.318     -3.273     -2.649      6.973     -0.941      0.805
      1 C       -0.390      2.723      4.233     -1.160      0.335     -0.273
      2 C        3.558     -0.845     -1.079      1.259     -0.382      0.296
      5 C       -3.224     64.255      3.289     -1.515      0.448     -0.337
      6 C        2.733     -0.892     -1.014      0.784     -0.236      0.191
      7 C       -0.706      2.833      0.207     -0.146      0.046      0.000
     14 C        0.000      3.092     54.551     -2.823      3.912     -0.916
     15 C        3.092      0.000     -1.155      1.085     -0.280      0.242
     18 C       54.551     -1.155      0.000     70.169     -2.208      2.484
     20 C       -2.823      1.085     70.169      0.000     32.295     -2.894
     22 C        3.912     -0.280     -2.208     32.295      0.000     24.544
     23 C       -0.916      0.242      2.484     -2.894     24.544      0.000
     26 C        0.117     -0.021     -0.369      1.041     -1.922     25.464
     29 C       -1.164      0.346      2.415     -2.367      1.114     -2.233
     32 C        4.415     -0.343     -1.357     37.195     -0.272      1.490
     34 C        0.060      0.006      2.416     -1.345      1.605     -0.258
     36 C        0.014     -0.014     -0.163      3.547      0.059      0.170
     39 C        0.266     -0.023     -0.036      2.952     -0.339      2.552
     43 C        0.007      0.000      0.303      0.185      0.003     -0.110
     44 C       -0.001      0.003     -0.066      0.699     -0.135      0.641
     49 C       -0.001      0.000     -0.010     -0.033      0.137      0.040
     50 C        0.000      0.000      0.034      0.147     -0.009      0.136
     51 C        0.000      0.000     -0.006      0.041     -0.002     -0.007
     54 C        0.000      0.000      0.000      0.000      0.000      0.000
     55 C        0.000      0.000      0.000      0.000      0.000      0.000
     56 C        0.000      0.000      0.000      0.000      0.000      0.000
     59 C        0.000      0.000      0.000      0.000      0.000      0.000
     60 C        0.000      0.000      0.000      0.000      0.000      0.000
                 26 C       29 C       32 C       34 C       36 C       39 C  
      0 C       -0.078      1.129     -1.155      0.022     -0.013     -0.078
      1 C        0.030     -0.361      0.558     -0.015      0.000      0.000
      2 C        0.000      0.000     -0.415      0.015      0.000      0.000
      5 C        0.041     -0.488      0.516     -0.017      0.015      0.033
      6 C        0.000      0.258     -0.278      0.009     -0.009      0.000
      7 C        0.000      0.000      0.058     -0.002      0.000      0.000
     14 C        0.117     -1.164      4.415      0.060      0.014      0.266
     15 C       -0.021      0.346     -0.343      0.006     -0.014     -0.023
     18 C       -0.369      2.415     -1.357      2.416     -0.163     -0.036
     20 C        1.041     -2.367     37.195     -1.345      3.547      2.952
     22 C       -1.922      1.114     -0.272      1.605      0.059     -0.339
     23 C       25.464     -2.233      1.490     -0.258      0.170      2.552
     26 C        0.000     27.879     -0.960      2.321      3.032     -0.618
     29 C       27.879      0.000     23.269      0.913      0.553     28.932
     32 C       -0.960     23.269      0.000     27.892      1.348      3.536
     34 C        2.321      0.913     27.892      0.000     25.862      0.046
     36 C        3.032      0.553      1.348     25.862      0.000     26.394
     39 C       -0.618     28.932      3.536      0.046     26.394      0.000
     43 C       -0.005     -0.685      2.743      1.677      0.223     30.609
     44 C       -0.631     27.337     -0.928      0.817      0.275     -1.212
     49 C        0.349      0.247     -0.003      0.001      3.201     -1.066
     50 C       -0.093      3.323      0.013     -0.067      0.526     -1.690
     51 C        0.020     -0.115      0.036      0.008      0.137      2.036
     54 C        0.003      0.003     -0.004     -0.002      0.031     -0.125
     55 C       -0.003      0.049      0.001     -0.002     -0.000      0.067
     56 C        0.002     -0.033      0.004      0.000     -0.050      0.090
     59 C       -0.000     -0.000      0.001     -0.001     -0.003      0.010
     60 C        0.000      0.000      0.000      0.000      0.002     -0.004
                 43 C       44 C       49 C       50 C       51 C       54 C  
      0 C        0.000      0.008      0.000      0.000      0.000      0.000
      1 C        0.000     -0.003      0.000      0.000      0.000      0.000
      2 C        0.000      0.005      0.000      0.000      0.000      0.000
      5 C        0.000     -0.006      0.000      0.000      0.000      0.000
      6 C        0.000      0.004      0.000      0.000      0.000      0.000
      7 C        0.000     -0.001      0.000      0.000      0.000      0.000
     14 C        0.007     -0.001     -0.001      0.000      0.000      0.000
     15 C        0.000      0.003      0.000      0.000      0.000      0.000
     18 C        0.303     -0.066     -0.010      0.034     -0.006      0.000
     20 C        0.185      0.699     -0.033      0.147      0.041      0.000
     22 C        0.003     -0.135      0.137     -0.009     -0.002      0.000
     23 C       -0.110      0.641      0.040      0.136     -0.007      0.000
     26 C       -0.005     -0.631      0.349     -0.093      0.020      0.003
     29 C       -0.685     27.337      0.247      3.323     -0.115      0.003
     32 C        2.743     -0.928     -0.003      0.013      0.036     -0.004
     34 C        1.677      0.817      0.001     -0.067      0.008     -0.002
     36 C        0.223      0.275      3.201      0.526      0.137      0.031
     39 C       30.609     -1.212     -1.066     -1.690      2.036     -0.125
     43 C        0.000      1.474     25.020     35.616     -1.552      3.413
     44 C        1.474      0.000     -0.052     -0.146      0.134      0.023
     49 C       25.020     -0.052      0.000     -3.407      3.490     -1.049
     50 C       35.616     -0.146     -3.407      0.000     68.328     -1.688
     51 C       -1.552      0.134      3.490     68.328      0.000     36.615
     54 C        3.413      0.023     -1.049     -1.688     36.615      0.000
     55 C       -0.041      0.001      0.121      3.107     -1.878     28.021
     56 C       -0.814      0.021      1.654      2.996     -2.725     25.343
     59 C       -0.031     -0.000      0.041      0.143      1.655     -0.862
     60 C        0.176      0.000      0.039      0.076      2.938     -0.665
                 55 C       56 C       59 C       60 C  
      0 C        0.000      0.000      0.000      0.000
      1 C        0.000      0.000      0.000      0.000
      2 C        0.000      0.000      0.000      0.000
      5 C        0.000      0.000      0.000      0.000
      6 C        0.000      0.000      0.000      0.000
      7 C        0.000      0.000      0.000      0.000
     14 C        0.000      0.000      0.000      0.000
     15 C        0.000      0.000      0.000      0.000
     18 C        0.000      0.000      0.000      0.000
     20 C        0.000      0.000      0.000      0.000
     22 C        0.000      0.000      0.000      0.000
     23 C        0.000      0.000      0.000      0.000
     26 C       -0.003      0.002     -0.000      0.000
     29 C        0.049     -0.033     -0.000      0.000
     32 C        0.001      0.004      0.001      0.000
     34 C       -0.002      0.000     -0.001      0.000
     36 C       -0.000     -0.050     -0.003      0.002
     39 C        0.067      0.090      0.010     -0.004
     43 C       -0.041     -0.814     -0.031      0.176
     44 C        0.001      0.021     -0.000      0.000
     49 C        0.121      1.654      0.041      0.039
     50 C        3.107      2.996      0.143      0.076
     51 C       -1.878     -2.725      1.655      2.938
     54 C       28.021     25.343     -0.862     -0.665
     55 C        0.000     -0.831      2.672      1.154
     56 C       -0.831      0.000     27.163     26.491
     59 C        2.672     27.163      0.000     -0.937
     60 C        1.154     26.491     -0.937      0.000

NMR spin-spin coupling calculation done in   0.3 sec 

Maximum memory used throughout the entire PROP-calculation: 34.1 MB

--------------------------------
SUGGESTED CITATIONS FOR THIS RUN
--------------------------------

Below you find a list of papers that are relevant to this ORCA run
We neither can nor want to force you to cite these papers, but we appreciate if you do
You receive ORCA, which is the product of decades of hard work by many enthusiastic individuals, for free
The only thing we kindly ask in return is that you cite our papers,
We deeply appreciate it, if you show your appreciation for ORCA by not just citing the generic ORCA reference.

Please note that relegating all ORCA citations to the supporting information does *not* help us.
SI sections are not indexed - citations you put there will not count into any citation statistics
But we need these citations in order to attract the funding resources that allow us to do what we are doing

Therefore, if you are a happy ORCA user, please consider citing a few of the papers listed below in the main body of your paper

In addition to the list printed below, the program has created the file inpJ.bibtex that contains the list in bibtex format
You can import this file easily into all common literature databanks and citation aid programs


List of essential papers. We consider these as the minimum necessary citations

  1. Neese,F.
     Software update: the ORCA program system, version 5.0
     WIRES Comput. Molec. Sci., 2022 12(1)e1606
     doi.org/10.1002/wcms.1606

List of papers to cite with high priority. The work reported in these papers was absolutely
necessary for this run to complete.
Our perspective: the developers of density functionals and basis sets usually get cited in chemistry papers
Good! But without the algorithms to do something with them, the functionals or basis sets would not do anything.
Hence, in our opinion, the algorithm design and method developments papers are equally worthy of getting cited

  1. Neese,F.
     An improvement of the resolution of the identity approximation for the formation of the Coulomb matrix
     J. Comp. Chem., 2003 24(14)1740-1747
     doi.org/10.1002/jcc.10318
  2. Neese,F.; Wennmohs,F.; Hansen,A.; Becker,U.
     Efficient, approximate and parallel Hartree-Fock and hybrid DFT calculations. A 'chain-of-spheres' algorithm for the Hartree-Fock exchange
     Chem. Phys., 2009 356(1-3)98-109
     doi.org/10.1016/j.chemphys.2008.10.036
  3. Stoychev,G.L.; Auer,A.A.; Izsak,R.; Neese,F.
     Self-Consistent Field Calculation of Nuclear Magnetic Resonance Chemical Shielding Constants Using Gauge-Including Atomic Orbitals and Approximate Two-Electron Integrals
     J. Chem. Theory Comput., 2018 14(2)619-637
     doi.org/10.1021/acs.jctc.7b01006
  4. Garcia-Rates,M.; Neese,F.
     Effect of the Solute Cavity on the Solvation Energy and its Derivatives within the Framework of the Gaussian Charge Scheme
     J. Comput. Chem., 2020 41 922-939
     doi.org/10.1002/jcc.26139
  5. Helmich-Paris,B.; de Souza,B.; Neese,F.; Izsák,R.
     An improved chain of spheres for exchange algorithm
     J. Chem. Phys., 2021 155 104109
     doi.org/doi: 10.1063/5.0058766.
  6. Neese,F.
     The SHARK Integral Generation and Digestion System
     J. Comp. Chem., 2022  1-16
     doi.org/10.1002/jcc.26942
  7. Grimme,S.; Bannwarth,C.; Dohm,S.; Hansen,A.; Pisarek,J.; Pracht,P.; Seibert,J.; Neese,F.
     Fully Automated Quantum-Chemistry-Based Computation of Spin-Spin-Coupled Nuclear Magnetic Resonance Spectra
     Angew. Chem., Int. Ed., 2017 56 14763-14769
     doi.org/10.1002/anie.201708266
  8. Caldeweyher,E.; Bannwarth,C.; Grimme,S.
     Extension of the D3 dispersion coefficient model
     J. Chem. Phys., 2017 147 034112-XXXX
     doi.org/10.1063/1.4993215
  9. Caldeweyher,E.; Ehlert,S.; Hansen,A.; Neugebauer,H.; Spicher,S.; Bannwarth,C.; Grimme,S.
     A generally applicable atomic-charge dependent London dispersion correction
     J. Chem. Phys., 2019 150 154122-XXXX
     doi.org/10.1063/1.5090222
 10. Caldeweyher,E.; Mewes,J.; Ehlert,S.; Grimme,S.
     Extension and evaluation of the D4 London-dispersion model for periodic systems
     Phys. Chem. Chem. Phys., 2020 22(16)8499-8512
     doi.org/10.1039/D0CP00502A

List of suggested additional citations. These are papers that are important in the 'surrounding' of 
of this run, or papers that preceded the highly important papers. If you like your results we are grateful for a citation.

  1. Izsak,R.; Neese,F.
     An overlap fitted chain of spheres exchange method
     J. Chem. Phys., 2011 135 144105
     doi.org/10.1063/1.3646921
  2. Izsak,R.; Hansen,A.; Neese,F.
     The resolution of identity and chain of spheres approximations for the LPNO-CCSD singles Fock term
     Molec. Phys., 2012 110 2413-2417
     doi.org/10.1080/00268976.2012.687466
  3. Neese,F.
     The ORCA program system
     WIRES Comput. Molec. Sci., 2012 2(1)73-78
     doi.org/10.1002/wcms.81
  4. Izsak,R.; Neese,F.; Klopper,W.
     Robust fitting techniques in the chain of spheres approximation to the Fock exchange: The role of the complementary space
     J. Chem. Phys., 2013 139 
     doi.org/10.1063/1.4819264
  5. Neese,F.
     Software update: the ORCA program system, version 4.0
     WIRES Comput. Molec. Sci., 2018 8(1)1-6
     doi.org/10.1002/wcms.1327
  6. Neese,F.; Wennmohs,F.; Becker,U.; Riplinger,C.
     The ORCA quantum chemistry program package
     J. Chem. Phys., 2020 152 Art. No. L224108
     doi.org/10.1063/5.0004608

Timings for individual modules:

Sum of individual times          ...      156.471 sec (=   2.608 min)
Startup calculation              ...        3.880 sec (=   0.065 min)   2.5 %
SCF iterations                   ...       57.516 sec (=   0.959 min)  36.8 %
Property integrals               ...        0.752 sec (=   0.013 min)   0.5 %
SCF Response                     ...       93.787 sec (=   1.563 min)  59.9 %
Property calculations            ...        0.536 sec (=   0.009 min)   0.3 %
                             ****ORCA TERMINATED NORMALLY****
TOTAL RUN TIME: 0 days 0 hours 2 minutes 36 seconds 775 msec
