
                                 *****************
                                 * O   R   C   A *
                                 *****************

                                            #,                                       
                                            ###                                      
                                            ####                                     
                                            #####                                    
                                            ######                                   
                                           ########,                                 
                                     ,,################,,,,,                         
                               ,,#################################,,                 
                          ,,##########################################,,             
                       ,#########################################, ''#####,          
                    ,#############################################,,   '####,        
                  ,##################################################,,,,####,       
                ,###########''''           ''''###############################       
              ,#####''   ,,,,##########,,,,          '''####'''          '####       
            ,##' ,,,,###########################,,,                        '##       
           ' ,,###''''                  '''############,,,                           
         ,,##''                                '''############,,,,        ,,,,,,###''
      ,#''                                            '''#######################'''  
     '                                                          ''''####''''         
             ,#######,   #######,   ,#######,      ##                                
            ,#'     '#,  ##    ##  ,#'     '#,    #''#        ,####,   ,####,        
            ##       ##  ##   ,#'  ##            #'  '#       #'       #'  '#        
            ##       ##  #######   ##           ,######,      #####,   #    #        
            '#,     ,#'  ##    ##  '#,     ,#' ,#      #,     #,   #   #,  ,#        
             '#######'   ##     ##  '#######'  #'      '#     '####' # '####'        



                #########################################################
                #                        -***-                          #
                #          Department of theory and spectroscopy        #
                #                                                       #
                #                      Frank Neese                      #
                #                                                       #
                #     Directorship, Architecture, Infrastructure        #
                #                    SHARK, DRIVERS                     #
                #        Core code/Algorithms in most modules           #
                #                                                       #
                #        Max Planck Institute fuer Kohlenforschung      #
                #                Kaiser Wilhelm Platz 1                 #
                #                 D-45470 Muelheim/Ruhr                 #
                #                      Germany                          #
                #                                                       #
                #                  All rights reserved                  #
                #                        -***-                          #
                #########################################################


                         Program Version 6.0.0  -   RELEASE  -


 With contributions from (in alphabetic order):
   Daniel Aravena         : Magnetic Suceptibility
   Michael Atanasov       : Ab Initio Ligand Field Theory (pilot matlab implementation)
   Alexander A. Auer      : GIAO ZORA, VPT2 properties, NMR spectrum
   Ute Becker             : All parallelization in ORCA, NUMFREQ, NUMCALC
   Giovanni Bistoni       : ED, misc. LED, open-shell LED, HFLD
   Martin Brehm           : Molecular dynamics
   Dmytro Bykov           : pre 5.0 version of the SCF Hessian
   Marcos Casanova-Páez   : Triplet and SCS-CIS(D). UHF-(DLPNO)-IP/EA/STEOM-CCSD. UHF-CVS-IP/STEOM-CCSD
   Vijay G. Chilkuri      : MRCI spin determinant printing, contributions to CSF-ICE
   Pauline Colinet        : FMM embedding
   Dipayan Datta          : RHF DLPNO-CCSD density
   Achintya Kumar Dutta   : EOM-CC, STEOM-CC
   Nicolas Foglia         : Exact transition moments, OPA infrastructure, MCD improvements
   Dmitry Ganyushin       : Spin-Orbit,Spin-Spin,Magnetic field MRCI
   Miquel Garcia          : C-PCM and meta-GGA Hessian, CCSD/C-PCM, Gaussian charge scheme
   Tiago L. C. Gouveia    : GS-ROHF, GS-ROCIS
   Yang Guo               : DLPNO-NEVPT2, F12-NEVPT2, CIM, IAO-localization
   Andreas Hansen         : Spin unrestricted coupled pair/coupled cluster methods
   Ingolf Harden          : AUTO-CI MPn and infrastructure 
   Benjamin Helmich-Paris : MC-RPA, TRAH-(SCF,CASSCF), AVAS, COSX integrals, SCF dyn. polar.
   Lee Huntington         : MR-EOM, pCC
   Robert Izsak           : Overlap fitted RIJCOSX, COSX-SCS-MP3, EOM
   Riya Kayal             : Wick's Theorem for AUTO-CI, AUTO-CI UHF-CCSDT
   Emily Kempfer          : AUTO-CI, RHF CISDT and CCSDT
   Christian Kollmar      : KDIIS, OOCD, Brueckner-CCSD(T), CCSD density, CASPT2, CASPT2-K, improved NEVPT2
   Axel Koslowski         : Symmetry handling
   Simone Kossmann        : Meta GGA functionals, TD-DFT gradient, OOMP2, (MP2 Hessian; deprecated post 5.0)
   Lucas Lang             : DCDCAS
   Marvin Lechner         : AUTO-CI (C++ implementation), FIC-MRCC
   Spencer Leger          : CASSCF response
   Dagmar Lenk            : GEPOL surface, SMD, ORCA-2-JSON
   Dimitrios Liakos       : Extrapolation schemes; Compound Job, initial MDCI parallelization
   Dimitrios Manganas     : Further ROCIS development; embedding schemes. LFT, Crystal Embedding
   Dimitrios Pantazis     : SARC Basis sets
   Anastasios Papadopoulos: AUTO-CI, single reference methods and gradients
   Taras Petrenko         : pre 6.0 DFT Hessian and TD-DFT gradient, (ASA, deprecated), ECA, 1-Electron XAS/XES, NRVS
   Peter Pinski           : DLPNO-MP2, DLPNO-MP2 Gradient
   Christoph Reimann      : Effective Core Potentials
   Marius Retegan         : Local ZFS, SOC
   Christoph Riplinger    : Optimizer, TS searches, QM/MM, DLPNO-CCSD(T), (RO)-DLPNO pert. Triples
   Michael Roemelt        : Original ROCIS implementation
   Masaaki Saitow         : Open-shell DLPNO-CCSD energy and density
   Barbara Sandhoefer     : DKH picture change effects
   Kantharuban Sivalingam : CASSCF convergence/infrastructure, NEVPT2 and variants, FIC-MRCI
   Bernardo de Souza      : ESD, SOC TD-DFT
   Georgi Stoychev        : AutoAux, RI-MP2 NMR, DLPNO-MP2 response, X2C
   Van Anh Tran           : RI-MP2 g-tensors
   Willem Van den Heuvel  : Paramagnetic NMR
   Zikuan Wang            : NOTCH, Electric field optimization 
   Frank Wennmohs         : Technical directorship and infrastructure
   Hang Xu                : AUTO-CI-Response properties 


 We gratefully acknowledge several colleagues who have allowed us to
 interface, adapt or use parts of their codes:
   Stefan Grimme, W. Hujo, H. Kruse, P. Pracht,  : VdW corrections, initial TS optimization,
                  C. Bannwarth, S. Ehlert,         DFT functionals, gCP, sTDA/sTD-DF
                  L. Wittmann, M. Mueller
   Ed Valeev, F. Pavosevic, A. Kumar             : LibInt (2-el integral package), F12 methods
   Garnet Chan, S. Sharma, J. Yang, R. Olivares  : DMRG
   Ulf Ekstrom                                   : XCFun DFT Library
   Mihaly Kallay                                 : mrcc  (arbitrary order and MRCC methods)
   Frank Weinhold                                : gennbo (NPA and NBO analysis)
   Simon Mueller                                 : openCOSMO-RS
   Christopher J. Cramer and Donald G. Truhlar   : smd solvation model
   Lars Goerigk                                  : TD-DFT with DH, B97 family of functionals
   V. Asgeirsson, H. Jonsson                     : NEB implementation
   FAccTs GmbH                                   : IRC, NEB, NEB-TS, DLPNO-Multilevel, CI-OPT
                                                   MM, QMMM, 2- and 3-layer-ONIOM, Crystal-QMMM,
                                                   LR-CPCM, SF, NACMEs, symmetry and pop. for TD-DFT,
                                                   nearIR, NL-DFT gradient (VV10), updates on ESD,
                                                   ML-optimized integration grids, MBIS, APM,
                                                   GOAT, DOCKER, SOLVATOR, interface openCOSMO-RS
   S Lehtola, MJT Oliveira, MAL Marques          : LibXC Library
   Liviu Ungur et al                             : ANISO software


 Your calculation uses the libint2 library for the computation of 2-el integrals
 For citations please refer to: http://libint.valeyev.net

 Your ORCA version has been built with support for libXC version: 6.2.2
 For citations please refer to: https://libxc.gitlab.io

 This ORCA versions uses:
   CBLAS   interface :  Fast vector & matrix operations
   LAPACKE interface :  Fast linear algebra routines
   SCALAPACK package :  Parallel linear algebra routines
   Shared memory     :  Shared parallel matrices
   BLAS/LAPACK       :  OpenBLAS 0.3.27  USE64BITINT DYNAMIC_ARCH NO_AFFINITY Zen SINGLE_THREADED
        Core in use  :  Zen
   Copyright (c) 2011-2014, The OpenBLAS Project


NOTE: MaxCore=8000 MB was set to SCF,MP2,MDCI,CIPSI,MRCI and CIS
      => If you want to overwrite this, your respective input block should be placed after the MaxCore statement
Your calculation utilizes the atom-pairwise dispersion correction
based on EEQ partial charges (D4)


================================================================================

----- Orbital basis set information -----
Your calculation utilizes the basis: pcJ-0
   F. Jensen, Theor. Chem. Acc. 126, 371 (2010).

----- AuxJ basis set information -----
Your calculation utilizes the auxiliary basis: def2/J
   F. Weigend, Phys. Chem. Chem. Phys. 8, 1057 (2006).

================================================================================
                                        WARNINGS
                       Please study these warnings very carefully!
================================================================================


================================================================================
                                       INPUT FILE
================================================================================
NAME = inpJ
|  1> ! pbe0
|  2> ! D4
|  3> ! pcJ-0
|  4> ! def2/J RIJCOSX
|  5> ! DEFGRID2
|  6> ! scfconv7
|  7> ! smallprint printgap noloewdin
|  8> ! NOSOSCF
|  9> %MaxCore 8000
| 10> %output
| 11>        print[P_BondOrder_M] 1
| 12>        print[P_Mayer] 1
| 13>        print[P_basis] 2
| 14> end
| 15> %pal
| 16>     nprocs 4
| 17> end
| 18> ! CPCM(chloroform)
| 19> *xyz 0 1
| 20> C   -5.1451683500   0.3167439700   0.2058890500
| 21> C   -6.5338977300  -0.1429816500  -0.1709338100
| 22> C   -7.0392642900   0.5560964200  -1.4389504500
| 23> H   -7.2357820500   0.1088881000   0.6421475400
| 24> H   -6.5581428100  -1.2295562500  -0.3086754500
| 25> C   -4.9877230200   1.7857294600   0.2608439200
| 26> C   -5.5411157700   2.5197918000  -0.9396865200
| 27> C   -6.9702475900   2.0699218900  -1.2724533100
| 28> H   -4.8983241400   2.3022035400  -1.8062491000
| 29> H   -5.5063979500   3.6012958400  -0.7711362500
| 30> H   -7.3178374500   2.5588334200  -2.1901692500
| 31> H   -7.6498512500   2.3657425500  -0.4590031200
| 32> O   -8.3605435600   0.1172442700  -1.7810863400
| 33> H   -6.4122087300   0.2532822200  -2.2891889000
| 34> C   -4.1510535200  -0.5773291200   0.4201361100
| 35> C   -4.4443809000   2.4288729500   1.3006491900
| 36> H   -4.0753002600   1.8903462800   2.1690015800
| 37> H   -4.3673907300   3.5135672200   1.3089266300
| 38> C   -2.7650011400  -0.2726491600   0.6888678100
| 39> H   -4.4249160200  -1.6282919200   0.3382271800
| 40> C   -1.7886157600  -1.1624543400   0.9693761600
| 41> H   -2.4905730900   0.7788788900   0.6437833300
| 42> C   -1.9702679400  -2.6516799800   1.1185904200
| 43> C   -0.9916776500  -3.4404715700   0.2276901300
| 44> H   -2.9969371000  -2.9679554000   0.9145430200
| 45> H   -1.7620658500  -2.9118079000   2.1688874500
| 46> C    0.4629651800  -2.9814446400   0.3974385600
| 47> H   -1.2949817800  -3.3326918500  -0.8213975400
| 48> H   -1.0698309100  -4.5084121100   0.4658676300
| 49> C    0.6132307000  -1.4681170200   0.1868610700
| 50> H    1.0979016800  -3.5460069700  -0.2932592000
| 51> H    0.8021058200  -3.2244848200   1.4157830400
| 52> C   -0.3613727000  -0.7593553700   1.1800197100
| 53> H   -0.0716460800  -1.1450247900   2.1752594900
| 54> C    0.0597645600   0.7046148400   1.1258344900
| 55> H   -8.9477411400   0.3693470600  -1.0558904800
| 56> C    1.6007497500   0.6279359500   1.0011429800
| 57> H   -0.2668978300   1.2635660700   2.0092275500
| 58> H   -0.3756342400   1.2000086900   0.2507066300
| 59> C    1.9638863700  -0.8503591400   0.6522575300
| 60> H    2.0890175400   0.9386540400   1.9289108800
| 61> H    1.9696522200   1.3010396400   0.2180157300
| 62> H    2.2292751800  -1.3796225300   1.5809671800
| 63> C    3.1629469000  -0.9360850800  -0.3022562300
| 64> C    0.2912011800  -1.0763674300  -1.2617346000
| 65> H   -0.7684909000  -1.2286210900  -1.4891358900
| 66> H    0.8758702600  -1.6755779700  -1.9677527800
| 67> H    0.5173012000  -0.0229249300  -1.4544889900
| 68> H    2.8991116100  -0.3732066500  -1.2117570600
| 69> C    3.5210541700  -2.3691583700  -0.7376271200
| 70> C    4.4233070700  -0.2998071900   0.2456886600
| 71> C    4.7252106700  -0.0919883800   1.5268928400
| 72> H    5.1599243100  -0.0571493900  -0.5215046100
| 73> H    3.9848061900  -0.3490385800   2.2868021500
| 74> C    6.0002144700   0.4772058300   2.1021954400
| 75> C    5.6391758900   1.5612144700   3.1330128500
| 76> C    7.0351500500   0.9495683300   1.0597772800
| 77> H    6.4760527900  -0.3449830300   2.6643345500
| 78> H    7.0936828700   0.1653304100   0.2912870600
| 79> C    8.4332385600   1.0709303000   1.6745467000
| 80> C    6.6442371100   2.2628327900   0.3732456100
| 81> H    5.0090385600   1.1384012800   3.9230140200
| 82> H    5.0797652500   2.3781736800   2.6647455600
| 83> H    6.5308254500   1.9832549500   3.6075008300
| 84> H    9.1687181200   1.3386848100   0.9076032500
| 85> H    8.7496043500   0.1268239200   2.1323951800
| 86> H    8.4652608200   1.8495744600   2.4452286700
| 87> H    6.7407914600   3.1074493000   1.0652417600
| 88> H    5.6126248400   2.2442689800   0.0076174500
| 89> H    7.3047618400   2.4585029500  -0.4787047500
| 90> H    4.4626797300  -2.3722891600  -1.2981322900
| 91> H    2.7519040100  -2.8085144700  -1.3780956700
| 92> H    3.6518823500  -3.0112809200   0.1413059100
| 93> *
| 94> %eprnmr
| 95>  Nuclei = all C { ssfc }
| 96>  SpinSpinRThresh 8.0
| 97> end
| 98> 
| 99>                          ****END OF INPUT****
================================================================================

                       ****************************
                       * Single Point Calculation *
                       ****************************

---------------------------------
CARTESIAN COORDINATES (ANGSTROEM)
---------------------------------
  C     -5.145168    0.316744    0.205889
  C     -6.533898   -0.142982   -0.170934
  C     -7.039264    0.556096   -1.438950
  H     -7.235782    0.108888    0.642148
  H     -6.558143   -1.229556   -0.308675
  C     -4.987723    1.785729    0.260844
  C     -5.541116    2.519792   -0.939687
  C     -6.970248    2.069922   -1.272453
  H     -4.898324    2.302204   -1.806249
  H     -5.506398    3.601296   -0.771136
  H     -7.317837    2.558833   -2.190169
  H     -7.649851    2.365743   -0.459003
  O     -8.360544    0.117244   -1.781086
  H     -6.412209    0.253282   -2.289189
  C     -4.151054   -0.577329    0.420136
  C     -4.444381    2.428873    1.300649
  H     -4.075300    1.890346    2.169002
  H     -4.367391    3.513567    1.308927
  C     -2.765001   -0.272649    0.688868
  H     -4.424916   -1.628292    0.338227
  C     -1.788616   -1.162454    0.969376
  H     -2.490573    0.778879    0.643783
  C     -1.970268   -2.651680    1.118590
  C     -0.991678   -3.440472    0.227690
  H     -2.996937   -2.967955    0.914543
  H     -1.762066   -2.911808    2.168887
  C      0.462965   -2.981445    0.397439
  H     -1.294982   -3.332692   -0.821398
  H     -1.069831   -4.508412    0.465868
  C      0.613231   -1.468117    0.186861
  H      1.097902   -3.546007   -0.293259
  H      0.802106   -3.224485    1.415783
  C     -0.361373   -0.759355    1.180020
  H     -0.071646   -1.145025    2.175259
  C      0.059765    0.704615    1.125834
  H     -8.947741    0.369347   -1.055890
  C      1.600750    0.627936    1.001143
  H     -0.266898    1.263566    2.009228
  H     -0.375634    1.200009    0.250707
  C      1.963886   -0.850359    0.652258
  H      2.089018    0.938654    1.928911
  H      1.969652    1.301040    0.218016
  H      2.229275   -1.379623    1.580967
  C      3.162947   -0.936085   -0.302256
  C      0.291201   -1.076367   -1.261735
  H     -0.768491   -1.228621   -1.489136
  H      0.875870   -1.675578   -1.967753
  H      0.517301   -0.022925   -1.454489
  H      2.899112   -0.373207   -1.211757
  C      3.521054   -2.369158   -0.737627
  C      4.423307   -0.299807    0.245689
  C      4.725211   -0.091988    1.526893
  H      5.159924   -0.057149   -0.521505
  H      3.984806   -0.349039    2.286802
  C      6.000214    0.477206    2.102195
  C      5.639176    1.561214    3.133013
  C      7.035150    0.949568    1.059777
  H      6.476053   -0.344983    2.664335
  H      7.093683    0.165330    0.291287
  C      8.433239    1.070930    1.674547
  C      6.644237    2.262833    0.373246
  H      5.009039    1.138401    3.923014
  H      5.079765    2.378174    2.664746
  H      6.530825    1.983255    3.607501
  H      9.168718    1.338685    0.907603
  H      8.749604    0.126824    2.132395
  H      8.465261    1.849574    2.445229
  H      6.740791    3.107449    1.065242
  H      5.612625    2.244269    0.007617
  H      7.304762    2.458503   -0.478705
  H      4.462680   -2.372289   -1.298132
  H      2.751904   -2.808514   -1.378096
  H      3.651882   -3.011281    0.141306

----------------------------
CARTESIAN COORDINATES (A.U.)
----------------------------
  NO LB      ZA    FRAG     MASS         X           Y           Z
   0 C     6.0000    0    12.011   -9.722959    0.598559    0.389074
   1 C     6.0000    0    12.011  -12.347277   -0.270196   -0.323018
   2 C     6.0000    0    12.011  -13.302282    1.050870   -2.719222
   3 H     1.0000    0     1.008  -13.673646    0.205769    1.213483
   4 H     1.0000    0     1.008  -12.393094   -2.323525   -0.583312
   5 C     6.0000    0    12.011   -9.425431    3.374540    0.492924
   6 C     6.0000    0    12.011  -10.471191    4.761716   -1.775750
   7 C     6.0000    0    12.011  -13.171859    3.911585   -2.404588
   8 H     1.0000    0     1.008   -9.256491    4.350534   -3.413316
   9 H     1.0000    0     1.008  -10.405584    6.805463   -1.457236
  10 H     1.0000    0     1.008  -13.828709    4.835494   -4.138820
  11 H     1.0000    0     1.008  -14.456124    4.470606   -0.867390
  12 O     8.0000    0    15.999  -15.799138    0.221560   -3.365765
  13 H     1.0000    0     1.008  -12.117318    0.478634   -4.325940
  14 C     6.0000    0    12.011   -7.844354   -1.090994    0.793942
  15 C     6.0000    0    12.011   -8.398663    4.589905    2.457871
  16 H     1.0000    0     1.008   -7.701201    3.572237    4.098819
  17 H     1.0000    0     1.008   -8.253172    6.639680    2.473513
  18 C     6.0000    0    12.011   -5.225095   -0.515232    1.301772
  19 H     1.0000    0     1.008   -8.361879   -3.077026    0.639157
  20 C     6.0000    0    12.011   -3.379994   -2.196720    1.831855
  21 H     1.0000    0     1.008   -4.706501    1.471868    1.216574
  22 C     6.0000    0    12.011   -3.723267   -5.010949    2.113830
  23 C     6.0000    0    12.011   -1.873999   -6.501549    0.430272
  24 H     1.0000    0     1.008   -5.663390   -5.608623    1.728236
  25 H     1.0000    0     1.008   -3.329822   -5.502519    4.098603
  26 C     6.0000    0    12.011    0.874877   -5.634114    0.751050
  27 H     1.0000    0     1.008   -2.447161   -6.297875   -1.552216
  28 H     1.0000    0     1.008   -2.021687   -8.519664    0.880362
  29 C     6.0000    0    12.011    1.158838   -2.774339    0.353116
  30 H     1.0000    0     1.008    2.074733   -6.700982   -0.554180
  31 H     1.0000    0     1.008    1.515760   -6.093393    2.675442
  32 C     6.0000    0    12.011   -0.682895   -1.434974    2.229914
  33 H     1.0000    0     1.008   -0.135391   -2.163783    4.110645
  34 C     6.0000    0    12.011    0.112939    1.331529    2.127519
  35 H     1.0000    0     1.008  -16.908780    0.697965   -1.995344
  36 C     6.0000    0    12.011    3.024979    1.186627    1.891886
  37 H     1.0000    0     1.008   -0.504364    2.387794    3.796890
  38 H     1.0000    0     1.008   -0.709846    2.267688    0.473767
  39 C     6.0000    0    12.011    3.711207   -1.606946    1.232588
  40 H     1.0000    0     1.008    3.947671    1.773799    3.645113
  41 H     1.0000    0     1.008    3.722103    2.458609    0.411990
  42 H     1.0000    0     1.008    4.212720   -2.607109    2.987595
  43 C     6.0000    0    12.011    5.977103   -1.768944   -0.571181
  44 C     6.0000    0    12.011    0.550290   -2.034040   -2.384333
  45 H     1.0000    0     1.008   -1.452237   -2.321757   -2.814059
  46 H     1.0000    0     1.008    1.655155   -3.166383   -3.718514
  47 H     1.0000    0     1.008    0.977558   -0.043322   -2.748586
  48 H     1.0000    0     1.008    5.478527   -0.705258   -2.289889
  49 C     6.0000    0    12.011    6.653828   -4.477060   -1.393913
  50 C     6.0000    0    12.011    8.358839   -0.566553    0.464284
  51 C     6.0000    0    12.011    8.929354   -0.173833    2.885409
  52 H     1.0000    0     1.008    9.750844   -0.107997   -0.985501
  53 H     1.0000    0     1.008    7.530192   -0.659587    4.321430
  54 C     6.0000    0    12.011   11.338762    0.901788    3.972574
  55 C     6.0000    0    12.011   10.656498    2.950268    5.920536
  56 C     6.0000    0    12.011   13.294507    1.794424    2.002689
  57 H     1.0000    0     1.008   12.237966   -0.651923    5.034863
  58 H     1.0000    0     1.008   13.405118    0.312429    0.550453
  59 C     6.0000    0    12.011   15.936511    2.023765    3.164435
  60 C     6.0000    0    12.011   12.555789    4.276134    0.705332
  61 H     1.0000    0     1.008    9.465711    2.151267    7.413422
  62 H     1.0000    0     1.008    9.599365    4.494097    5.035639
  63 H     1.0000    0     1.008   12.341472    3.747809    6.817189
  64 H     1.0000    0     1.008   17.326366    2.529748    1.715122
  65 H     1.0000    0     1.008   16.534356    0.239662    4.029643
  66 H     1.0000    0     1.008   15.997025    3.495189    4.620813
  67 H     1.0000    0     1.008   12.738250    5.872228    2.013015
  68 H     1.0000    0     1.008   10.606324    4.241054    0.014395
  69 H     1.0000    0     1.008   13.803999    4.645897   -0.904621
  70 H     1.0000    0     1.008    8.433243   -4.482977   -2.453115
  71 H     1.0000    0     1.008    5.200345   -5.307323   -2.604223
  72 H     1.0000    0     1.008    6.901058   -5.690496    0.267029

--------------------------------
INTERNAL COORDINATES (ANGSTROEM)
--------------------------------
 C      0   0   0     0.000000000000     0.00000000     0.00000000
 C      1   0   0     1.510600014689     0.00000000     0.00000000
 C      2   1   0     1.533613936830   111.74438084     0.00000000
 H      2   1   3     1.103259376278   109.36262457   241.47561089
 H      2   1   3     1.095538655027   110.70471511   122.89197582
 C      1   2   3     1.478420589516   114.17765432    50.51403020
 C      6   1   2     1.512072879237   114.44887489   312.05419587
 C      3   2   1     1.524517023889   110.32978019   305.01544005
 H      7   6   1     1.100661817065   108.38427346   289.89915849
 H      7   6   1     1.095109815991   110.22045124   172.70874041
 H      8   3   2     1.096383026808   109.69638546   179.06218278
 H      8   3   2     1.100487259890   108.64440798   296.48208680
 O      3   2   1     1.433676074334   111.19067817   180.34715288
 H      3   2   1     1.098999789312   109.02900897    65.18791788
 C      1   2   3     1.354080052363   120.89433350   232.65458765
 C      6   1   2     1.337927205649   123.35130207   129.85359129
 H     16   6   1     1.086401107484   121.39093450     0.65953552
 H     16   6   1     1.087454671083   120.94056758   181.34153708
 C     15   1   2     1.444364152392   126.48975094   175.20173294
 H     15   1   2     1.089143034089   116.14420161   357.95937937
 C     19  15   1     1.350469030764   126.40337362   176.38611728
 H     19  15   1     1.087683136258   115.99796543   355.44671202
 C     21  19  15     1.507665552011   125.75170518   357.04216264
 C     23  21  19     1.540627941736   111.83707420   127.55235645
 H     23  21  19     1.093487561355   112.35556025     3.40686080
 H     23  21  19     1.101879528928   107.74375199   246.18676237
 C     24  23  21     1.534765785005   112.64006891    50.76601864
 H     24  23  21     1.097358101380   109.08583369   288.61116339
 H     24  23  21     1.096965564879   109.12535565   172.66652770
 C     27  24  23     1.535279483107   111.86401052   306.25445079
 H     27  24  23     1.094960446389   109.00331100   182.60569312
 H     27  24  23     1.100504603689   109.17010220    66.13591149
 C     21  19  15     1.497959357623   122.73598868   177.39670394
 H     33  21  19     1.105976778940   106.39750446   124.18629648
 C     33  21  19     1.524303580523   121.11033502     1.76290294
 H     13   3   2     0.966574285839   107.51717780    62.53651957
 C     35  33  21     1.547922149411   103.31656881   194.97600366
 H     35  33  21     1.095225133484   112.27649125    73.17776337
 H     35  33  21     1.095826607182   110.65833382   313.50422077
 C     30  27  24     1.556434837115   115.79502303   166.41384289
 H     37  35  33     1.093482712472   111.22933727   251.83994407
 H     37  35  33     1.096560942017   111.22503596   133.50639571
 H     40  30  27     1.101386658023   105.69435050   322.04453269
 C     40  30  27     1.534989123552   118.01937435    82.93750150
 C     30  27  24     1.534796458218   111.13184610   294.65934914
 H     45  30  27     1.094458691816   111.33076837    67.35481338
 H     45  30  27     1.095149704308   110.90354261   307.23764664
 H     45  30  27     1.094539434975   111.62521331   187.23242722
 H     44  40  30     1.101650101883   107.32328706    62.29776817
 C     44  40  30     1.539963533074   114.16875575   303.49116347
 C     44  40  30     1.514463903136   113.68060683   179.74246249
 C     51  44  40     1.332598436264   127.00713494    23.36620195
 H     51  44  40     1.090904798642   113.63747827   199.40230440
 H     52  51  44     1.091666505279   118.61210745   356.52399923
 C     52  51  44     1.510162183436   128.04756111   176.72757881
 C     55  52  51     1.538833363494   108.82105710   132.32575771
 C     55  52  51     1.543001492693   115.10664840     4.03116045
 H     55  52  51     1.103819281984   106.09434870   246.61830404
 H     57  55  52     1.099560104960   106.82975115   315.00975069
 C     57  55  52     1.532097140955   111.42167467   198.75914351
 C     57  55  52     1.532580243404   113.19569868    73.94759064
 H     56  55  52     1.095420420158   110.25285245    58.18878405
 H     56  55  52     1.095279356983   111.03093458   299.03036216
 H     56  55  52     1.094667048820   111.76751774   177.99956524
 H     60  57  55     1.095821571380   110.54745921   176.03346258
 H     60  57  55     1.095923993933   111.27358315    56.01891529
 H     60  57  55     1.096021373843   111.41298334   295.36782450
 H     61  57  55     1.096156222025   110.79351411    71.59199683
 H     61  57  55     1.094647176967   112.05355731   311.05593860
 H     61  57  55     1.095627284418   110.33993466   190.48726498
 H     50  44  40     1.095825963686   110.30913097   187.97566730
 H     50  44  40     1.093080836340   112.09017500    67.98910205
 H     50  44  40     1.096339661385   110.25144400   306.93279531

---------------------------
INTERNAL COORDINATES (A.U.)
---------------------------
 C      0   0   0     0.000000000000     0.00000000     0.00000000
 C      1   0   0     2.854620325659     0.00000000     0.00000000
 C      2   1   0     2.898110335773   111.74438084     0.00000000
 H      2   1   3     2.084858075846   109.36262457   241.47561089
 H      2   1   3     2.070268027126   110.70471511   122.89197582
 C      1   2   3     2.793810024936   114.17765432    50.51403020
 C      6   1   2     2.857403636289   114.44887489   312.05419587
 C      3   2   1     2.880919661651   110.32978019   305.01544005
 H      7   6   1     2.079949400316   108.38427346   289.89915849
 H      7   6   1     2.069457638791   110.22045124   172.70874041
 H      8   3   2     2.071863658546   109.69638546   179.06218278
 H      8   3   2     2.079619535061   108.64440798   296.48208680
 O      3   2   1     2.709255145246   111.19067817   180.34715288
 H      3   2   1     2.076808623036   109.02900897    65.18791788
 C      1   2   3     2.558840462371   120.89433350   232.65458765
 C      6   1   2     2.528316005799   123.35130207   129.85359129
 H     16   6   1     2.053000564734   121.39093450     0.65953552
 H     16   6   1     2.054991511400   120.94056758   181.34153708
 C     15   1   2     2.729452685674   126.48975094   175.20173294
 H     15   1   2     2.058182055096   116.14420161   357.95937937
 C     19  15   1     2.552016620486   126.40337362   176.38611728
 H     19  15   1     2.055423248013   115.99796543   355.44671202
 C     21  19  15     2.849074994847   125.75170518   357.04216264
 C     23  21  19     2.911364884149   111.83707420   127.55235645
 H     23  21  19     2.066392021810   112.35556025     3.40686080
 H     23  21  19     2.082250542248   107.74375199   246.18676237
 C     24  23  21     2.900287013373   112.64006891    50.76601864
 H     24  23  21     2.073706282448   109.08583369   288.61116339
 H     24  23  21     2.072964495964   109.12535565   172.66652770
 C     27  24  23     2.901257762101   111.86401052   306.25445079
 H     27  24  23     2.069175371151   109.00331100   182.60569312
 H     27  24  23     2.079652310092   109.17010220    66.13591149
 C     21  19  15     2.830732945652   122.73598868   177.39670394
 H     33  21  19     2.089993222673   106.39750446   124.18629648
 C     33  21  19     2.880516312143   121.11033502     1.76290294
 H     13   3   2     1.826560688326   107.51717780    62.53651957
 C     35  33  21     2.925148939017   103.31656881   194.97600366
 H     35  33  21     2.069675557272   112.27649125    73.17776337
 H     35  33  21     2.070812177838   110.65833382   313.50422077
 C     30  27  24     2.941235587442   115.79502303   166.41384289
 H     37  35  33     2.066382858749   111.22933727   251.83994407
 H     37  35  33     2.072199869566   111.22503596   133.50639571
 H     40  30  27     2.081319151218   105.69435050   322.04453269
 C     40  30  27     2.900709062061   118.01937435    82.93750150
 C     30  27  24     2.900344977345   111.13184610   294.65934914
 H     45  30  27     2.068227192422   111.33076837    67.35481338
 H     45  30  27     2.069533016787   110.90354261   307.23764664
 H     45  30  27     2.068379774879   111.62521331   187.23242722
 H     44  40  30     2.081816987966   107.32328706    62.29776817
 C     44  40  30     2.910109333736   114.16875575   303.49116347
 C     44  40  30     2.861922016637   113.68060683   179.74246249
 C     51  44  40     2.518246091030   127.00713494    23.36620195
 H     51  44  40     2.061511307613   113.63747827   199.40230440
 H     52  51  44     2.062950724553   118.61210745   356.52399923
 C     52  51  44     2.853792944498   128.04756111   176.72757881
 C     55  52  51     2.907973622745   108.82105710   132.32575771
 C     55  52  51     2.915850245422   115.10664840     4.03116045
 H     55  52  51     2.085916144292   106.09434870   246.61830404
 H     57  55  52     2.077867466159   106.82975115   315.00975069
 C     57  55  52     2.895244006969   111.42167467   198.75914351
 C     57  55  52     2.896156938291   113.19569868    73.94759064
 H     56  55  52     2.070044595603   110.25285245    58.18878405
 H     56  55  52     2.069778024835   111.03093458   299.03036216
 H     56  55  52     2.068620930097   111.76751774   177.99956524
 H     60  57  55     2.070802661551   110.54745921   176.03346258
 H     60  57  55     2.070996212126   111.27358315    56.01891529
 H     60  57  55     2.071180233487   111.41298334   295.36782450
 H     61  57  55     2.071435059620   110.79351411    71.59199683
 H     61  57  55     2.068583377737   112.05355731   311.05593860
 H     61  57  55     2.070435512401   110.33993466   190.48726498
 H     50  44  40     2.070810961807   110.30913097   187.97566730
 H     50  44  40     2.065623422921   112.09017500    67.98910205
 H     50  44  40     2.071781709773   110.25144400   306.93279531

---------------------
BASIS SET INFORMATION
---------------------
There are 3 groups of distinct atoms

 Group   1 Type C   : 7s4p contracted to 4s3p pattern {4111/211}
 Group   2 Type H   : 5s contracted to 3s pattern {311}
 Group   3 Type O   : 7s4p contracted to 4s3p pattern {4111/211}

Atom   0C    basis set group =>   1
Atom   1C    basis set group =>   1
Atom   2C    basis set group =>   1
Atom   3H    basis set group =>   2
Atom   4H    basis set group =>   2
Atom   5C    basis set group =>   1
Atom   6C    basis set group =>   1
Atom   7C    basis set group =>   1
Atom   8H    basis set group =>   2
Atom   9H    basis set group =>   2
Atom  10H    basis set group =>   2
Atom  11H    basis set group =>   2
Atom  12O    basis set group =>   3
Atom  13H    basis set group =>   2
Atom  14C    basis set group =>   1
Atom  15C    basis set group =>   1
Atom  16H    basis set group =>   2
Atom  17H    basis set group =>   2
Atom  18C    basis set group =>   1
Atom  19H    basis set group =>   2
Atom  20C    basis set group =>   1
Atom  21H    basis set group =>   2
Atom  22C    basis set group =>   1
Atom  23C    basis set group =>   1
Atom  24H    basis set group =>   2
Atom  25H    basis set group =>   2
Atom  26C    basis set group =>   1
Atom  27H    basis set group =>   2
Atom  28H    basis set group =>   2
Atom  29C    basis set group =>   1
Atom  30H    basis set group =>   2
Atom  31H    basis set group =>   2
Atom  32C    basis set group =>   1
Atom  33H    basis set group =>   2
Atom  34C    basis set group =>   1
Atom  35H    basis set group =>   2
Atom  36C    basis set group =>   1
Atom  37H    basis set group =>   2
Atom  38H    basis set group =>   2
Atom  39C    basis set group =>   1
Atom  40H    basis set group =>   2
Atom  41H    basis set group =>   2
Atom  42H    basis set group =>   2
Atom  43C    basis set group =>   1
Atom  44C    basis set group =>   1
Atom  45H    basis set group =>   2
Atom  46H    basis set group =>   2
Atom  47H    basis set group =>   2
Atom  48H    basis set group =>   2
Atom  49C    basis set group =>   1
Atom  50C    basis set group =>   1
Atom  51C    basis set group =>   1
Atom  52H    basis set group =>   2
Atom  53H    basis set group =>   2
Atom  54C    basis set group =>   1
Atom  55C    basis set group =>   1
Atom  56C    basis set group =>   1
Atom  57H    basis set group =>   2
Atom  58H    basis set group =>   2
Atom  59C    basis set group =>   1
Atom  60C    basis set group =>   1
Atom  61H    basis set group =>   2
Atom  62H    basis set group =>   2
Atom  63H    basis set group =>   2
Atom  64H    basis set group =>   2
Atom  65H    basis set group =>   2
Atom  66H    basis set group =>   2
Atom  67H    basis set group =>   2
Atom  68H    basis set group =>   2
Atom  69H    basis set group =>   2
Atom  70H    basis set group =>   2
Atom  71H    basis set group =>   2
Atom  72H    basis set group =>   2

-------------------------
BASIS SET IN INPUT FORMAT
-------------------------

 # Basis set for element : H 
 NewGTO H 
 S 3 
   1    1357.7500000000      0.0012928364
   2      54.3100000000      0.0588280685
   3       4.3448000000      0.9761499708
 S 1 
   1       0.6604910000      1.0000000000
 S 1 
   1       0.1366870000      1.0000000000
  end;

 # Basis set for element : C 
 NewGTO C 
 S 4 
   1  139534.0000000000      0.0001655246
   2    5581.3600000000      0.0074486101
   3     446.5090000000      0.1285821065
   4      67.4620000000      0.9218029311
 S 1 
   1      15.0674000000      1.0000000000
 S 1 
   1       3.9387600000      1.0000000000
 S 1 
   1       0.2999150000      1.0000000000
 P 2 
   1      28.3900000000      0.0816325586
   2       4.3676900000      0.9660360576
 P 1 
   1       0.8698170000      1.0000000000
 P 1 
   1       0.1889340000      1.0000000000
  end;

 # Basis set for element : O 
 NewGTO O 
 S 4 
   1  253789.0000000000      0.0001641076
   2   10151.6000000000      0.0074010921
   3     812.1250000000      0.1277711901
   4     122.6930000000      0.9223372164
 S 1 
   1      27.5608000000      1.0000000000
 S 1 
   1       7.3172600000      1.0000000000
 S 1 
   1       0.5792400000      1.0000000000
 P 2 
   1      53.4157000000      0.0793786106
   2       8.2177900000      0.9670506337
 P 1 
   1       1.6754400000      1.0000000000
 P 1 
   1       0.3506720000      1.0000000000
  end;

---------------------------------
AUXILIARY/J BASIS SET INFORMATION
---------------------------------
There are 3 groups of distinct atoms

 Group   1 Type C   : 12s5p4d2f1g contracted to 6s4p3d1f1g pattern {711111/2111/211/2/1}
 Group   2 Type H   : 5s2p1d contracted to 3s1p1d pattern {311/2/1}
 Group   3 Type O   : 12s5p4d2f1g contracted to 6s4p3d1f1g pattern {711111/2111/211/2/1}

Atom   0C    basis set group =>   1
Atom   1C    basis set group =>   1
Atom   2C    basis set group =>   1
Atom   3H    basis set group =>   2
Atom   4H    basis set group =>   2
Atom   5C    basis set group =>   1
Atom   6C    basis set group =>   1
Atom   7C    basis set group =>   1
Atom   8H    basis set group =>   2
Atom   9H    basis set group =>   2
Atom  10H    basis set group =>   2
Atom  11H    basis set group =>   2
Atom  12O    basis set group =>   3
Atom  13H    basis set group =>   2
Atom  14C    basis set group =>   1
Atom  15C    basis set group =>   1
Atom  16H    basis set group =>   2
Atom  17H    basis set group =>   2
Atom  18C    basis set group =>   1
Atom  19H    basis set group =>   2
Atom  20C    basis set group =>   1
Atom  21H    basis set group =>   2
Atom  22C    basis set group =>   1
Atom  23C    basis set group =>   1
Atom  24H    basis set group =>   2
Atom  25H    basis set group =>   2
Atom  26C    basis set group =>   1
Atom  27H    basis set group =>   2
Atom  28H    basis set group =>   2
Atom  29C    basis set group =>   1
Atom  30H    basis set group =>   2
Atom  31H    basis set group =>   2
Atom  32C    basis set group =>   1
Atom  33H    basis set group =>   2
Atom  34C    basis set group =>   1
Atom  35H    basis set group =>   2
Atom  36C    basis set group =>   1
Atom  37H    basis set group =>   2
Atom  38H    basis set group =>   2
Atom  39C    basis set group =>   1
Atom  40H    basis set group =>   2
Atom  41H    basis set group =>   2
Atom  42H    basis set group =>   2
Atom  43C    basis set group =>   1
Atom  44C    basis set group =>   1
Atom  45H    basis set group =>   2
Atom  46H    basis set group =>   2
Atom  47H    basis set group =>   2
Atom  48H    basis set group =>   2
Atom  49C    basis set group =>   1
Atom  50C    basis set group =>   1
Atom  51C    basis set group =>   1
Atom  52H    basis set group =>   2
Atom  53H    basis set group =>   2
Atom  54C    basis set group =>   1
Atom  55C    basis set group =>   1
Atom  56C    basis set group =>   1
Atom  57H    basis set group =>   2
Atom  58H    basis set group =>   2
Atom  59C    basis set group =>   1
Atom  60C    basis set group =>   1
Atom  61H    basis set group =>   2
Atom  62H    basis set group =>   2
Atom  63H    basis set group =>   2
Atom  64H    basis set group =>   2
Atom  65H    basis set group =>   2
Atom  66H    basis set group =>   2
Atom  67H    basis set group =>   2
Atom  68H    basis set group =>   2
Atom  69H    basis set group =>   2
Atom  70H    basis set group =>   2
Atom  71H    basis set group =>   2
Atom  72H    basis set group =>   2

-------------------------------------
AUXILIARY/J BASIS SET IN INPUT FORMAT
-------------------------------------

 # Auxiliary/J basis set for element : H 
 NewAuxJGTO H 
 S 3 
   1      15.6752927000      0.1007184237
   2       3.6063578000      0.3404257499
   3       1.2080016000      0.6491996172
 S 1 
   1       0.4726794000      1.0000000000
 S 1 
   1       0.2018100000      1.0000000000
 P 2 
   1       2.0281365000      0.5596620919
   2       0.5358730000      0.5596620919
 D 1 
   1       2.2165124000      1.0000000000
  end;

 # Auxiliary/J basis set for element : C 
 NewAuxJGTO C 
 S 7 
   1    1861.0916331000      0.0134602335
   2     642.9939764000      0.0299160374
   3     235.1105725000      0.1008649584
   4      90.7028894000      0.2370970548
   5      36.7794552000      0.3924037254
   6      15.6046273000      0.3195862154
   7       6.8907294000      0.0530104441
 S 1 
   1       3.1478850000     -1.0000000000
 S 1 
   1       1.4777287000      1.0000000000
 S 1 
   1       0.7076466000      1.0000000000
 S 1 
   1       0.3430122000      1.0000000000
 S 1 
   1       0.1669453000      1.0000000000
 P 2 
   1      13.5472892000     -0.6769313712
   2       5.4669419000     -0.3779500978
 P 1 
   1       2.1751721000      1.0000000000
 P 1 
   1       0.8582194000      1.0000000000
 P 1 
   1       0.3376720000      1.0000000000
 D 2 
   1       5.9287253000     -0.3533329857
   2       1.9809209000     -0.7456525731
 D 1 
   1       0.8055417000     -1.0000000000
 D 1 
   1       0.3531244000     -1.0000000000
 F 2 
   1       1.6755626000      0.6311076882
   2       0.5997536000      0.4968166032
 G 1 
   1       1.0024600000     -1.0000000000
  end;

 # Auxiliary/J basis set for element : O 
 NewAuxJGTO O 
 S 7 
   1    2876.8216605000      0.0168151159
   2    1004.7443032000      0.0340137548
   3     369.7579954000      0.1194951309
   4     142.9442404000      0.2664627624
   5      57.8366425000      0.4202764046
   6      24.3864983000      0.2765077335
   7      10.6622662000      0.0057008815
 S 1 
   1       4.8070437000     -1.0000000000
 S 1 
   1       2.2210770000      1.0000000000
 S 1 
   1       1.0447795000      1.0000000000
 S 1 
   1       0.4968425000      1.0000000000
 S 1 
   1       0.2371384000      1.0000000000
 P 2 
   1      64.2613382000     -0.2731534179
   2      16.3006076000     -0.8168011598
 P 1 
   1       4.3550542000      1.0000000000
 P 1 
   1       1.2019554000      1.0000000000
 P 1 
   1       0.3354196000      1.0000000000
 D 2 
   1       9.2146611000     -0.4661230638
   2       2.8435251000     -0.6600908911
 D 1 
   1       0.9955759000     -1.0000000000
 D 1 
   1       0.3649441000     -1.0000000000
 F 2 
   1       2.6420115000      0.5931563945
   2       0.7345613000      0.5931563945
 G 1 
   1       1.3931000000     -1.0000000000
  end;



           ************************************************************
           *        Program running with 4 parallel MPI-processes     *
           *              working on a common directory               *
           ************************************************************
------------------------------------------------------------------------------
                             ORCA STARTUP CALCULATIONS
                           -- RI-GTO INTEGRALS CHOSEN --
------------------------------------------------------------------------------
------------------------------------------------------------------------------
                   ___                                                        
                  /   \      - P O W E R E D   B Y -                         
                 /     \                                                     
                 |  |  |   _    _      __       _____    __    __             
                 |  |  |  | |  | |    /  \     |  _  \  |  |  /  |          
                  \  \/   | |  | |   /    \    | | | |  |  | /  /          
                 / \  \   | |__| |  /  /\  \   | |_| |  |  |/  /          
                |  |  |   |  __  | /  /__\  \  |    /   |      \           
                |  |  |   | |  | | |   __   |  |    \   |  |\   \          
                \     /   | |  | | |  |  |  |  | |\  \  |  | \   \       
                 \___/    |_|  |_| |__|  |__|  |_| \__\ |__|  \__/        
                                                                              
                      - O R C A' S   B I G   F R I E N D -                    
                                      &                                       
                       - I N T E G R A L  F E E D E R -                       
                                                                              
 v1 FN, 2020, v2 2021, v3 2022-2024                                           
------------------------------------------------------------------------------


----------------------
SHARK INTEGRAL PACKAGE
----------------------

Number of atoms                             ...     73
Number of basis functions                   ...    509
Number of shells                            ...    335
Maximum angular momentum                    ...      1
Integral batch strategy                     ... SHARK/LIBINT Hybrid
RI-J (if used) integral strategy            ... SPLIT-RIJ (Revised 2003 algorithm where possible)
Printlevel                                  ...      1
Contraction scheme used                     ... SEGMENTED contraction
Prescreening option                         ... SCHWARTZ
   Thresh                                   ... 3.000e-11
   Tcut                                     ... 1.000e-12
   Tpresel                                  ... 1.000e-12 
Coulomb Range Separation                    ... NOT USED
Exchange Range Separation                   ... NOT USED
Multipole approximations                    ... NOT USED
Finite Nucleus Model                        ... NOT USED
CABS basis                                  ... NOT available
Auxiliary Coulomb fitting basis             ... AVAILABLE
   # of basis functions in Aux-J            ...   1905
   # of shells in Aux-J                     ...    655
   Maximum angular momentum in Aux-J        ...      4
Auxiliary J/K fitting basis                 ... NOT available
Auxiliary Correlation fitting basis         ... NOT available
Auxiliary 'external' fitting basis          ... NOT available

Checking pre-screening integrals            ... done (  0.0 sec) Dimension = 335
Check shell pair data                       ... done (  0.0 sec)
Shell pair information
Shell pair cut-off parameter TPreSel        ...   1.0e-12
Total number of shell pairs                 ...     56280
Shell pairs after pre-screening             ...     21803
Total number of primitive shell pairs       ...    145865
Primitive shell pairs kept                  ...     37468
          la=0 lb=0:  10980 shell pairs
          la=1 lb=0:   8959 shell pairs
          la=1 lb=1:   1864 shell pairs

Calculating one electron integrals          ... done (  0.0 sec)
Calculating RI/J V-Matrix + Cholesky decomp.... done (  0.2 sec)
Calculating Nuclear repulsion               ... done (  0.0 sec) ENN=   2773.193137672711 Eh

Diagonalization of the overlap matrix:
Smallest eigenvalue                        ... 7.549e-03
Time for diagonalization                   ...    0.030 sec
Threshold for overlap eigenvalues          ... 1.000e-07
Number of eigenvalues below threshold      ... 0
Time for construction of square roots      ...    0.015 sec
Total time needed                          ...    0.046 sec

-------------------
DFT GRID GENERATION
-------------------

General Integration Accuracy     IntAcc      ... 4.388
Radial Grid Type                 RadialGrid  ... OptM3 with GC (2021)
Angular Grid (max. ang.)         AngularGrid ... 4 (Lebedev-302)
Angular grid pruning method      GridPruning ... 4 (adaptive)
Weight generation scheme         WeightScheme... mBecke (2022)
Basis function cutoff            BFCut       ... 1.0000e-11
Integration weight cutoff        WCut        ... 1.0000e-14
Partially contracted basis set               ... off
Rotationally invariant grid construction     ... off
Angular grids for H and He will be reduced by one unit

Total number of grid points                  ...   309902
Total number of batches                      ...     4879
Average number of points per batch           ...       63
Average number of grid points per atom       ...     4245

--------------------
COSX GRID GENERATION
--------------------

GRIDX 1
-------
General Integration Accuracy     IntAcc      ... 3.816
Radial Grid Type                 RadialGrid  ... OptM3 with GC (2021)
Angular Grid (max. ang.)         AngularGrid ... 1 (Lebedev-50)
Angular grid pruning method      GridPruning ... 4 (adaptive)
Weight generation scheme         WeightScheme... mBecke (2022)
Basis function cutoff            BFCut       ... 1.0000e-11
Integration weight cutoff        WCut        ... 1.0000e-14
Partially contracted basis set               ... on
Rotationally invariant grid construction     ... off
Angular grids for H and He will be reduced by one unit

Total number of grid points                  ...    39388
Total number of batches                      ...      352
Average number of points per batch           ...      111
Average number of grid points per atom       ...      540
UseSFitting                                  ... on

GRIDX 2
-------
General Integration Accuracy     IntAcc      ... 4.020
Radial Grid Type                 RadialGrid  ... OptM3 with GC (2021)
Angular Grid (max. ang.)         AngularGrid ... 2 (Lebedev-110)
Angular grid pruning method      GridPruning ... 4 (adaptive)
Weight generation scheme         WeightScheme... mBecke (2022)
Basis function cutoff            BFCut       ... 1.0000e-11
Integration weight cutoff        WCut        ... 1.0000e-14
Partially contracted basis set               ... on
Rotationally invariant grid construction     ... off
Angular grids for H and He will be reduced by one unit

Total number of grid points                  ...    81393
Total number of batches                      ...      675
Average number of points per batch           ...      120
Average number of grid points per atom       ...     1115
UseSFitting                                  ... on

GRIDX 3
-------
General Integration Accuracy     IntAcc      ... 4.338
Radial Grid Type                 RadialGrid  ... OptM3 with GC (2021)
Angular Grid (max. ang.)         AngularGrid ... 3 (Lebedev-194)
Angular grid pruning method      GridPruning ... 4 (adaptive)
Weight generation scheme         WeightScheme... mBecke (2022)
Basis function cutoff            BFCut       ... 1.0000e-11
Integration weight cutoff        WCut        ... 1.0000e-14
Partially contracted basis set               ... on
Rotationally invariant grid construction     ... off
Angular grids for H and He will be reduced by one unit

Total number of grid points                  ...   176262
Total number of batches                      ...     1417
Average number of points per batch           ...      124
Average number of grid points per atom       ...     2415
UseSFitting                                  ... on
Initializing property integral containers    ... done (  0.0 sec)

SHARK setup successfully completed in   3.7 seconds

Maximum memory used throughout the entire STARTUP-calculation: 85.3 MB


           ************************************************************
           *        Program running with 4 parallel MPI-processes     *
           *              working on a common directory               *
           ************************************************************
-------------------------------------------------------------------------------
                                 ORCA GUESS
                   Start orbitals & Density for SCF / CASSCF
-------------------------------------------------------------------------------

------------
SCF SETTINGS
------------
Hamiltonian:
 Density Functional     Method          .... DFT(GTOs)
 Exchange Functional    Exchange        .... PBE
   PBE kappa parameter   XKappa         ....  0.804000
   PBE mue parameter    XMuePBE         ....  0.219520
 Correlation Functional Correlation     .... PBE
   PBE beta parameter  CBetaPBE         ....  0.066725
 LDA part of GGA corr.  LDAOpt          .... PW91-LDA
 Gradients option       PostSCFGGA      .... off
 Hybrid DFT is turned on
   Fraction HF Exchange ScalHFX         ....  0.250000
   Scaling of DF-GGA-X  ScalDFX         ....  0.750000
   Scaling of DF-GGA-C  ScalDFC         ....  1.000000
   Scaling of DF-LDA-C  ScalLDAC        ....  1.000000
   Perturbative correction              ....  0.000000
   NL short-range parameter             ....  6.900000
 RI-approximation to the Coulomb term is turned on
   Number of AuxJ basis functions       .... 1905
   RIJ-COSX (HFX calculated with COS-X)).... on


General Settings:
 Integral files         IntName         .... inpJ
 Hartree-Fock type      HFTyp           .... RHF
 Total Charge           Charge          ....    0
 Multiplicity           Mult            ....    1
 Number of Electrons    NEL             ....  220
 Basis Dimension        Dim             ....  509
 Nuclear Repulsion      ENuc            ....   2773.1931376727 Eh

Convergence Acceleration:
 AO-DIIS                CNVDIIS         .... on
   Start iteration      DIISMaxIt       ....    12
   Startup error        DIISStart       ....  0.200000
   # of expansion vecs  DIISMaxEq       ....     5
   Bias factor          DIISBfac        ....   1.050
   Max. coefficient     DIISMaxC        ....  10.000
 MO-DIIS                CNVKDIIS        .... off
 Trust-Rad. Augm. Hess. CNVTRAH         .... auto
   Auto Start mean grad. ratio tolernc. ....  1.125000
   Auto Start start iteration           ....    50
   Auto Start num. interpolation iter.  ....    10
   Max. Number of Micro iterations      ....    24
   Max. Number of Macro iterations      .... Maxiter - #DIIS iter
   Number of Davidson start vectors     ....     2
   Converg. threshold    (grad. norm)   ....   1.000e-04
   Grad. Scal. Fac. for Micro threshold ....   0.100
   Minimum threshold for Micro iter.    ....   1.000e-02
   NR start threshold (gradient norm)   ....   1.000e-04
   Initial trust radius                 ....   0.400
   Minimum AH scaling param. (alpha)    ....   1.000
   Maximum AH scaling param. (alpha)    .... 1000.000
   Quad. conv. algorithm                .... NR
   White noise on init. David. guess    .... on
   Maximum white noise                  ....   0.010
   Pseudo random numbers                .... off
   Inactive MOs                         .... canonical
   Orbital update algorithm             .... Taylor
   Preconditioner                       .... Diag
   Full preconditioner red. dimension   ....   250
 SOSCF                  CNVSOSCF        .... off
 Level Shifting         CNVShift        .... on
   Level shift para.    LevelShift      ....    0.2500
   Turn off err/grad.   ShiftErr        ....    0.0010
 Zerner damping         CNVZerner       .... off
 Static damping         CNVDamp         .... on
   Fraction old density DampFac         ....    0.7000
   Max. Damping (<1)    DampMax         ....    0.9800
   Min. Damping (>=0)   DampMin         ....    0.0000
   Turn off err/grad.   DampErr         ....    0.1000

SCF Procedure:
 Maximum # iterations   MaxIter         ....   125
 SCF integral mode      SCFMode         .... Direct
   Integral package                     .... SHARK and LIBINT hybrid scheme
 Reset frequency        DirectResetFreq ....    20
 Integral Threshold     Thresh          ....  3.000e-11 Eh
 Primitive CutOff       TCut            ....  1.000e-12 Eh

Convergence Tolerance:
 Convergence Check Mode ConvCheckMode   .... Total+1el-Energy
 Convergence forced     ConvForced      .... 0
 Energy Change          TolE            ....  1.000e-07 Eh
 1-El. energy change                    ....  1.000e-04 Eh
 DIIS Error             TolErr          ....  1.000e-07

------------------------------
INITIAL GUESS: MODEL POTENTIAL
------------------------------
Loading Hartree-Fock densities                     ... done
Calculating cut-offs                               ... done
Initializing the effective Hamiltonian             ... done
Setting up the integral package (SHARK)            ... done
Starting the Coulomb interaction                   ... done (   0.3 sec)
Making the grid                                    ... done (   0.4 sec)
Mapping shells                                     ... done
Starting the XC term evaluation                    ... done (   0.1 sec)
  promolecular density results
     # of electrons  =    219.986608500
     EX              =   -164.434820396
     EC              =     -7.328040633
     EX+EC           =   -171.762861029
Transforming the Hamiltonian                       ... done (   0.0 sec)
Diagonalizing the Hamiltonian                      ... done (   0.0 sec)
Back transforming the eigenvectors                 ... done (   0.0 sec)
Now organizing SCF variables                       ... done
                      ------------------
                      INITIAL GUESS DONE (   0.9 sec)
                      ------------------
             **** ENERGY FILE WAS UPDATED (inpJ.en.tmp) ****
Finished Guess after   1.1 sec
Maximum memory used throughout the entire GUESS-calculation: 45.6 MB


           ************************************************************
           *        Program running with 4 parallel MPI-processes     *
           *              working on a common directory               *
           ************************************************************

-------------------------------------------------------------------------------------------
                                      ORCA LEAN-SCF
                              memory conserving SCF solver
-------------------------------------------------------------------------------------------

--------------------
CPCM SOLVATION MODEL
--------------------
CPCM parameters:
  Epsilon                                         ...       4.8030
  Refrac                                          ...       1.4459
  Rsolv                                           ...       1.3000
  Surface type                                    ... GAUSSIAN VDW
  Discretization scheme                           ... Constant charge density
    Threshold for H atoms                         ...       5.0000 (charges/Ang^2)
    Threshold for non-H atoms                     ...       5.0000 (charges/Ang^2)
  Epsilon function type                           ...         CPCM
Solvent:                                          ... CHLOROFORM
Radii:
  Scheme                                          ... Element-dependent radii
  Radius for C  used is    3.8550 Bohr (=   2.0400 Ang.)
  Radius for H  used is    2.4944 Bohr (=   1.3200 Ang.)
  Radius for O  used is    3.4469 Bohr (=   1.8240 Ang.)
Calculating surface                               ...        done! (  0.0s)
Cavity surface points                             ...         5388
Cavity Volume                                     ...    3608.8500
Cavity Surface-area                               ...    1789.2847
Calculating surface distance matrix               ...        done! (  0.3s)
Performing Cholesky decomposition & store         ...        done! (  1.0s)
Overall time for CPCM initialization              ...                 1.2s

----------------------------------------D-I-I-S--------------------------------------------
Iteration    Energy (Eh)           Delta-E    RMSDP     MaxDP     DIISErr   Damp  Time(sec)
-------------------------------------------------------------------------------------------
               ***  Starting incremental Fock matrix formation  ***
    1    -1165.0060326966881803     0.00e+00  1.50e-03  9.77e-02  1.93e-01  0.700   6.1

  HOMO= 109 E= -3.902 eV LUMO=  7.779 eV gap=  11.681 eV
    2    -1165.2244403811719167    -2.18e-01  1.11e-03  6.55e-02  9.36e-02  0.700   3.5

  HOMO= 109 E= -4.745 eV LUMO=  7.086 eV gap=  11.831 eV
                               ***Turning on AO-DIIS***
    3    -1165.3251543132046208    -1.01e-01  4.53e-04  2.23e-02  3.77e-02  0.700   3.5

  HOMO= 109 E= -5.745 eV LUMO=  6.145 eV gap=  11.890 eV
    4    -1165.3829714769422026    -5.78e-02  7.63e-04  3.22e-02  2.69e-02  0.000   3.5

  HOMO= 109 E= -5.913 eV LUMO=  5.981 eV gap=  11.894 eV
    5    -1165.5053987052810953    -1.22e-01  1.07e-04  6.30e-03  3.29e-03  0.000   3.9

  HOMO= 109 E= -5.962 eV LUMO=  5.936 eV gap=  11.898 eV
    6    -1165.5056214723931589    -2.23e-04  3.17e-05  1.95e-03  8.65e-04  0.000   3.5

  HOMO= 109 E= -5.926 eV LUMO=  5.977 eV gap=  11.903 eV
               *** Restarting incremental Fock matrix formation ***
                             ****Resetting DIIS****
    7    -1165.5057476640290588    -1.26e-04  1.53e-05  1.13e-03  2.96e-04  0.000   6.9

  HOMO= 109 E= -5.919 eV LUMO= -0.819 eV gap=   5.100 eV
    8    -1165.5057490572203278    -1.39e-06  6.90e-06  6.88e-04  4.22e-04  0.000   4.3

  HOMO= 109 E= -5.921 eV LUMO= -0.821 eV gap=   5.101 eV
    9    -1165.5057499373920109    -8.80e-07  2.71e-06  2.50e-04  1.95e-04  0.000   3.6

  HOMO= 109 E= -5.922 eV LUMO= -0.821 eV gap=   5.101 eV
   10    -1165.5057501287219566    -1.91e-07  8.87e-07  8.63e-05  5.48e-05  0.000   3.4

  HOMO= 109 E= -5.922 eV LUMO= -0.820 eV gap=   5.101 eV
   11    -1165.5057501332262291    -4.50e-09  2.74e-07  3.04e-05  1.30e-05  0.000   3.1
                 **** Energy Check signals convergence ****

  HOMO= 109 E= -5.922 eV LUMO= -0.820 eV gap=   5.101 eV

               *****************************************************
               *                     SUCCESS                       *
               *           SCF CONVERGED AFTER  11 CYCLES          *
               *****************************************************

Recomputing exchange energy using gridx3       ... done (    8.841 sec)
Old exchange energy                            :    -42.067556760 Eh
New exchange energy                            :    -42.067616245 Eh
Exchange energy change after final integration :     -0.000059485 Eh
Total energy after final integration           :  -1165.505809618 Eh
             **** ENERGY FILE WAS UPDATED (inpJ.en.tmp) ****

----------------
TOTAL SCF ENERGY
----------------

Total Energy       :      -1165.50580961822470 Eh          -31715.02544 eV

Components:
Nuclear Repulsion  :       2773.19313767271115 Eh           75462.42171 eV
Electronic Energy  :      -3938.68332584514246 Eh         -107177.02207 eV
One Electron Energy:      -7088.45776892867707 Eh         -192886.74207 eV
Two Electron Energy:       3149.77444308353461 Eh           85709.71999 eV
CPCM Dielectric    :         -0.01556196079495 Eh              -0.42346 eV

Virial components:
Potential Energy   :      -2322.40502532212395 Eh          -63195.85355 eV
Kinetic Energy     :       1156.89921570389947 Eh           31480.82811 eV
Virial Ratio       :          2.00743936360013

DFT components:
N(Alpha)           :      109.999982544037 electrons
N(Beta)            :      109.999982544037 electrons
N(Total)           :      219.999965088074 electrons
E(X)               :     -125.745759854165 Eh       
E(C)               :       -7.327902069961 Eh       
E(XC)              :     -133.073661924127 Eh       

CPCM Solvation Model Properties:
Surface-charge          :         -0.03319141633554
Corrected charge        :          0.00000000000000
Outlying charge corr.   :          0.00003844258035 Eh               0.00105 eV
Free-energy (cav+disp)  :  This term is not implemented in the current solvation scheme

---------------
SCF CONVERGENCE
---------------

  Last Energy change         ...    4.5043e-09  Tolerance :   1.0000e-07
  Last MAX-Density change    ...    3.0363e-05  Tolerance :   1.0000e-05
  Last RMS-Density change    ...    2.7396e-07  Tolerance :   1.0000e-06
  Last DIIS Error            ...    1.3041e-05  Tolerance :   1.0000e-07


----------------
ORBITAL ENERGIES
----------------

  NO   OCC          E(Eh)            E(eV) 
   0   2.0000     -19.215130      -522.8703 
   1   2.0000     -10.301385      -280.3149 
   2   2.0000     -10.269522      -279.4479 
   3   2.0000     -10.266796      -279.3737 
   4   2.0000     -10.261719      -279.2356 
   5   2.0000     -10.256320      -279.0887 
   6   2.0000     -10.253409      -279.0094 
   7   2.0000     -10.251826      -278.9664 
   8   2.0000     -10.251543      -278.9587 
   9   2.0000     -10.249269      -278.8968 
  10   2.0000     -10.247356      -278.8447 
  11   2.0000     -10.246128      -278.8113 
  12   2.0000     -10.245074      -278.7826 
  13   2.0000     -10.244062      -278.7551 
  14   2.0000     -10.243912      -278.7510 
  15   2.0000     -10.243814      -278.7484 
  16   2.0000     -10.243085      -278.7285 
  17   2.0000     -10.243053      -278.7276 
  18   2.0000     -10.241967      -278.6981 
  19   2.0000     -10.241083      -278.6740 
  20   2.0000     -10.239150      -278.6214 
  21   2.0000     -10.233503      -278.4678 
  22   2.0000     -10.233390      -278.4647 
  23   2.0000     -10.232481      -278.4400 
  24   2.0000     -10.226713      -278.2830 
  25   2.0000     -10.226552      -278.2786 
  26   2.0000     -10.224817      -278.2314 
  27   2.0000     -10.222131      -278.1583 
  28   2.0000     -10.220038      -278.1014 
  29   2.0000      -1.045905       -28.4605 
  30   2.0000      -0.900633       -24.5075 
  31   2.0000      -0.883648       -24.0453 
  32   2.0000      -0.860020       -23.4023 
  33   2.0000      -0.845215       -22.9995 
  34   2.0000      -0.821602       -22.3569 
  35   2.0000      -0.813449       -22.1351 
  36   2.0000      -0.794784       -21.6272 
  37   2.0000      -0.794664       -21.6239 
  38   2.0000      -0.776147       -21.1200 
  39   2.0000      -0.757473       -20.6119 
  40   2.0000      -0.740165       -20.1409 
  41   2.0000      -0.735097       -20.0030 
  42   2.0000      -0.713663       -19.4198 
  43   2.0000      -0.702055       -19.1039 
  44   2.0000      -0.699448       -19.0329 
  45   2.0000      -0.693583       -18.8734 
  46   2.0000      -0.668897       -18.2016 
  47   2.0000      -0.661938       -18.0122 
  48   2.0000      -0.631956       -17.1964 
  49   2.0000      -0.621912       -16.9231 
  50   2.0000      -0.619418       -16.8552 
  51   2.0000      -0.610288       -16.6068 
  52   2.0000      -0.596663       -16.2360 
  53   2.0000      -0.587703       -15.9922 
  54   2.0000      -0.562644       -15.3103 
  55   2.0000      -0.541579       -14.7371 
  56   2.0000      -0.530868       -14.4457 
  57   2.0000      -0.528566       -14.3830 
  58   2.0000      -0.514945       -14.0124 
  59   2.0000      -0.509988       -13.8775 
  60   2.0000      -0.498073       -13.5533 
  61   2.0000      -0.491934       -13.3862 
  62   2.0000      -0.488100       -13.2819 
  63   2.0000      -0.480487       -13.0747 
  64   2.0000      -0.475868       -12.9490 
  65   2.0000      -0.472354       -12.8534 
  66   2.0000      -0.463937       -12.6244 
  67   2.0000      -0.457733       -12.4556 
  68   2.0000      -0.456569       -12.4239 
  69   2.0000      -0.449923       -12.2430 
  70   2.0000      -0.446478       -12.1493 
  71   2.0000      -0.439929       -11.9711 
  72   2.0000      -0.436187       -11.8692 
  73   2.0000      -0.430761       -11.7216 
  74   2.0000      -0.426301       -11.6002 
  75   2.0000      -0.417250       -11.3539 
  76   2.0000      -0.416360       -11.3297 
  77   2.0000      -0.410558       -11.1718 
  78   2.0000      -0.408138       -11.1060 
  79   2.0000      -0.404411       -11.0046 
  80   2.0000      -0.403701       -10.9853 
  81   2.0000      -0.400532       -10.8990 
  82   2.0000      -0.398478       -10.8431 
  83   2.0000      -0.388416       -10.5693 
  84   2.0000      -0.387107       -10.5337 
  85   2.0000      -0.385675       -10.4947 
  86   2.0000      -0.378157       -10.2902 
  87   2.0000      -0.374945       -10.2028 
  88   2.0000      -0.367930       -10.0119 
  89   2.0000      -0.367211        -9.9923 
  90   2.0000      -0.363844        -9.9007 
  91   2.0000      -0.358778        -9.7628 
  92   2.0000      -0.354519        -9.6470 
  93   2.0000      -0.343980        -9.3602 
  94   2.0000      -0.340973        -9.2783 
  95   2.0000      -0.337878        -9.1941 
  96   2.0000      -0.336467        -9.1557 
  97   2.0000      -0.332561        -9.0494 
  98   2.0000      -0.329882        -8.9766 
  99   2.0000      -0.326738        -8.8910 
 100   2.0000      -0.326378        -8.8812 
 101   2.0000      -0.323235        -8.7957 
 102   2.0000      -0.316511        -8.6127 
 103   2.0000      -0.313758        -8.5378 
 104   2.0000      -0.310612        -8.4522 
 105   2.0000      -0.299604        -8.1526 
 106   2.0000      -0.279960        -7.6181 
 107   2.0000      -0.274779        -7.4771 
 108   2.0000      -0.255456        -6.9513 
 109   2.0000      -0.217615        -5.9216 
 110   0.0000      -0.030142        -0.8202 
 111   0.0000       0.021478         0.5844 
 112   0.0000       0.028440         0.7739 
 113   0.0000       0.081714         2.2235 
 114   0.0000       0.091708         2.4955 
 115   0.0000       0.102261         2.7827 
 116   0.0000       0.104794         2.8516 
 117   0.0000       0.108085         2.9411 
 118   0.0000       0.112354         3.0573 
 119   0.0000       0.114469         3.1149 
 120   0.0000       0.118594         3.2271 
*Only the first 10 virtual orbitals were printed.

                    ********************************
                    * MULLIKEN POPULATION ANALYSIS *
                    ********************************

-----------------------
MULLIKEN ATOMIC CHARGES
-----------------------
   0 C :    0.107714
   1 C :   -0.499995
   2 C :   -0.054845
   3 H :    0.207200
   4 H :    0.222142
   5 C :    0.135603
   6 C :   -0.475683
   7 C :   -0.451651
   8 H :    0.214207
   9 H :    0.224018
  10 H :    0.229102
  11 H :    0.204618
  12 O :   -0.487351
  13 H :    0.233881
  14 C :   -0.283391
  15 C :   -0.516690
  16 H :    0.201349
  17 H :    0.196668
  18 C :   -0.259753
  19 H :    0.217852
  20 C :    0.150190
  21 H :    0.219221
  22 C :   -0.480247
  23 C :   -0.427171
  24 H :    0.211595
  25 H :    0.206433
  26 C :   -0.396373
  27 H :    0.207833
  28 H :    0.216696
  29 C :    0.004311
  30 H :    0.222516
  31 H :    0.194194
  32 C :   -0.228892
  33 H :    0.226760
  34 C :   -0.434028
  35 H :    0.343145
  36 C :   -0.419118
  37 H :    0.207163
  38 H :    0.198376
  39 C :   -0.200119
  40 H :    0.209416
  41 H :    0.204222
  42 H :    0.209706
  43 C :   -0.239523
  44 C :   -0.629242
  45 H :    0.209282
  46 H :    0.201478
  47 H :    0.205070
  48 H :    0.219889
  49 C :   -0.619124
  50 C :   -0.183037
  51 C :   -0.179993
  52 H :    0.217265
  53 H :    0.215122
  54 C :   -0.229504
  55 C :   -0.631092
  56 C :   -0.213578
  57 H :    0.227226
  58 H :    0.221688
  59 C :   -0.609878
  60 C :   -0.619819
  61 H :    0.202958
  62 H :    0.202724
  63 H :    0.209062
  64 H :    0.204298
  65 H :    0.199979
  66 H :    0.196573
  67 H :    0.196633
  68 H :    0.208601
  69 H :    0.198180
  70 H :    0.204270
  71 H :    0.208072
  72 H :    0.195595
Sum of atomic charges:   -0.0000000

--------------------------------
MULLIKEN REDUCED ORBITAL CHARGES
--------------------------------
  0 C s       :     3.355909  s :     3.355909
      pz      :     1.006574  p :     2.536377
      px      :     0.798011
      py      :     0.731792

  1 C s       :     3.383624  s :     3.383624
      pz      :     1.006130  p :     3.116372
      px      :     0.957169
      py      :     1.153072

  2 C s       :     3.306315  s :     3.306315
      pz      :     1.045846  p :     2.748530
      px      :     0.808151
      py      :     0.894534

  3 H s       :     0.792800  s :     0.792800

  4 H s       :     0.777858  s :     0.777858

  5 C s       :     3.345312  s :     3.345312
      pz      :     0.820707  p :     2.519085
      px      :     0.947104
      py      :     0.751274

  6 C s       :     3.368326  s :     3.368326
      pz      :     1.014161  p :     3.107357
      px      :     0.956371
      py      :     1.136824

  7 C s       :     3.340451  s :     3.340451
      pz      :     1.191632  p :     3.111200
      px      :     0.992703
      py      :     0.926866

  8 H s       :     0.785793  s :     0.785793

  9 H s       :     0.775982  s :     0.775982

 10 H s       :     0.770898  s :     0.770898

 11 H s       :     0.795382  s :     0.795382

 12 O s       :     3.685548  s :     3.685548
      pz      :     1.667140  p :     4.801804
      px      :     1.273457
      py      :     1.861207

 13 H s       :     0.766119  s :     0.766119

 14 C s       :     3.392580  s :     3.392580
      pz      :     1.003346  p :     2.890811
      px      :     0.805941
      py      :     1.081524

 15 C s       :     3.386805  s :     3.386805
      pz      :     1.005042  p :     3.129884
      px      :     1.014539
      py      :     1.110303

 16 H s       :     0.798651  s :     0.798651

 17 H s       :     0.803332  s :     0.803332

 18 C s       :     3.397060  s :     3.397060
      pz      :     1.023571  p :     2.862692
      px      :     0.757563
      py      :     1.081559

 19 H s       :     0.782148  s :     0.782148

 20 C s       :     3.350531  s :     3.350531
      pz      :     0.951766  p :     2.499279
      px      :     0.755789
      py      :     0.791724

 21 H s       :     0.780779  s :     0.780779

 22 C s       :     3.372542  s :     3.372542
      pz      :     1.106867  p :     3.107705
      px      :     1.117651
      py      :     0.883188

 23 C s       :     3.327188  s :     3.327188
      pz      :     1.099680  p :     3.099984
      px      :     0.894159
      py      :     1.106144

 24 H s       :     0.788405  s :     0.788405

 25 H s       :     0.793567  s :     0.793567

 26 C s       :     3.349408  s :     3.349408
      pz      :     1.172963  p :     3.046965
      px      :     0.960619
      py      :     0.913383

 27 H s       :     0.792167  s :     0.792167

 28 H s       :     0.783304  s :     0.783304

 29 C s       :     3.317529  s :     3.317529
      pz      :     0.870479  p :     2.678160
      px      :     0.903522
      py      :     0.904158

 30 H s       :     0.777484  s :     0.777484

 31 H s       :     0.805806  s :     0.805806

 32 C s       :     3.362144  s :     3.362144
      pz      :     1.080321  p :     2.866748
      px      :     0.867717
      py      :     0.918710

 33 H s       :     0.773240  s :     0.773240

 34 C s       :     3.343789  s :     3.343789
      pz      :     1.189443  p :     3.090238
      px      :     0.934954
      py      :     0.965841

 35 H s       :     0.656855  s :     0.656855

 36 C s       :     3.338614  s :     3.338614
      pz      :     1.170480  p :     3.080504
      px      :     0.934878
      py      :     0.975146

 37 H s       :     0.792837  s :     0.792837

 38 H s       :     0.801624  s :     0.801624

 39 C s       :     3.342332  s :     3.342332
      pz      :     1.066537  p :     2.857786
      px      :     0.866524
      py      :     0.924725

 40 H s       :     0.790584  s :     0.790584

 41 H s       :     0.795778  s :     0.795778

 42 H s       :     0.790294  s :     0.790294

 43 C s       :     3.346923  s :     3.346923
      pz      :     1.051584  p :     2.892600
      px      :     0.883549
      py      :     0.957467

 44 C s       :     3.366391  s :     3.366391
      pz      :     0.955487  p :     3.262851
      px      :     1.160301
      py      :     1.147063

 45 H s       :     0.790718  s :     0.790718

 46 H s       :     0.798522  s :     0.798522

 47 H s       :     0.794930  s :     0.794930

 48 H s       :     0.780111  s :     0.780111

 49 C s       :     3.348527  s :     3.348527
      pz      :     1.149862  p :     3.270597
      px      :     1.154850
      py      :     0.965885

 50 C s       :     3.347915  s :     3.347915
      pz      :     0.888453  p :     2.835122
      px      :     0.962917
      py      :     0.983752

 51 C s       :     3.353457  s :     3.353457
      pz      :     0.886606  p :     2.826535
      px      :     0.954967
      py      :     0.984962

 52 H s       :     0.782735  s :     0.782735

 53 H s       :     0.784878  s :     0.784878

 54 C s       :     3.340805  s :     3.340805
      pz      :     0.940770  p :     2.888699
      px      :     0.926044
      py      :     1.021884

 55 C s       :     3.346888  s :     3.346888
      pz      :     1.069505  p :     3.284204
      px      :     1.162273
      py      :     1.052426

 56 C s       :     3.315832  s :     3.315832
      pz      :     1.009675  p :     2.897746
      px      :     0.884682
      py      :     1.003389

 57 H s       :     0.772774  s :     0.772774

 58 H s       :     0.778312  s :     0.778312

 59 C s       :     3.340449  s :     3.340449
      pz      :     1.125442  p :     3.269429
      px      :     0.982021
      py      :     1.161966

 60 C s       :     3.346595  s :     3.346595
      pz      :     1.114069  p :     3.273224
      px      :     1.156922
      py      :     1.002234

 61 H s       :     0.797042  s :     0.797042

 62 H s       :     0.797276  s :     0.797276

 63 H s       :     0.790938  s :     0.790938

 64 H s       :     0.795702  s :     0.795702

 65 H s       :     0.800021  s :     0.800021

 66 H s       :     0.803427  s :     0.803427

 67 H s       :     0.803367  s :     0.803367

 68 H s       :     0.791399  s :     0.791399

 69 H s       :     0.801820  s :     0.801820

 70 H s       :     0.795730  s :     0.795730

 71 H s       :     0.791928  s :     0.791928

 72 H s       :     0.804405  s :     0.804405


------------------------
MULLIKEN OVERLAP CHARGES
------------------------
B(  0-C ,  1-C ) :   0.4961 B(  0-C ,  2-C ) :  -0.1306 B(  0-C ,  3-H ) :  -0.0877 
B(  0-C ,  4-H ) :  -0.0672 B(  0-C ,  5-C ) :   0.4214 B(  0-C ,  6-C ) :  -0.1563 
B(  0-C , 14-C ) :   0.9462 B(  0-C , 15-C ) :  -0.2027 B(  0-C , 18-C ) :  -0.1836 
B(  0-C , 19-H ) :  -0.0751 B(  1-C ,  2-C ) :   0.5270 B(  1-C ,  3-H ) :   0.7958 
B(  1-C ,  4-H ) :   0.8137 B(  1-C ,  5-C ) :  -0.1485 B(  1-C ,  7-C ) :  -0.1690 
[...]
        0.0000         1.6532        0.0000
        0.0000         0.0000        1.6532

 Diagonalized JT*J matrix:
 
 J[55,60](FC)             1.653            1.653            1.653  iso=      1.653
                ---------------  ---------------  ---------------  ---------------
 J[55,60](Total)          1.653            1.653            1.653  iso=      1.653



-----------------------------------------------------------
 NUCLEUS A = C   56 NUCLEUS B = C   59 
 ( 13C  gnA =  1.405  13C  gnB =  1.405) r(AB) =     1.5321
-----------------------------------------------------------

Fermi-contact contribution to J (Hz):
       26.8470         0.0000        0.0000
        0.0000        26.8470        0.0000
        0.0000         0.0000       26.8470

Total spin-spin coupling tensor J (Hz):
       26.8470         0.0000        0.0000
        0.0000        26.8470        0.0000
        0.0000         0.0000       26.8470

 Diagonalized JT*J matrix:
 
 J[56,59](FC)            26.847           26.847           26.847  iso=     26.847
                ---------------  ---------------  ---------------  ---------------
 J[56,59](Total)         26.847           26.847           26.847  iso=     26.847



-----------------------------------------------------------
 NUCLEUS A = C   56 NUCLEUS B = C   60 
 ( 13C  gnA =  1.405  13C  gnB =  1.405) r(AB) =     1.5326
-----------------------------------------------------------

Fermi-contact contribution to J (Hz):
       26.2582         0.0000        0.0000
        0.0000        26.2582        0.0000
        0.0000         0.0000       26.2582

Total spin-spin coupling tensor J (Hz):
       26.2582         0.0000        0.0000
        0.0000        26.2582        0.0000
        0.0000         0.0000       26.2582

 Diagonalized JT*J matrix:
 
 J[56,60](FC)            26.258           26.258           26.258  iso=     26.258
                ---------------  ---------------  ---------------  ---------------
 J[56,60](Total)         26.258           26.258           26.258  iso=     26.258



-----------------------------------------------------------
 NUCLEUS A = C   59 NUCLEUS B = C   60 
 ( 13C  gnA =  1.405  13C  gnB =  1.405) r(AB) =     2.5129
-----------------------------------------------------------

Fermi-contact contribution to J (Hz):
       -1.0467         0.0000        0.0000
        0.0000        -1.0467        0.0000
        0.0000         0.0000       -1.0467

Total spin-spin coupling tensor J (Hz):
       -1.0467         0.0000        0.0000
        0.0000        -1.0467        0.0000
        0.0000         0.0000       -1.0467

 Diagonalized JT*J matrix:
 
 J[59,60](FC)            -1.047           -1.047           -1.047  iso=     -1.047
                ---------------  ---------------  ---------------  ---------------
 J[59,60](Total)         -1.047           -1.047           -1.047  iso=     -1.047



-----------------------------------------------------------------------------
                SUMMARY OF ISOTROPIC COUPLING CONSTANTS J (Hz)                
-----------------------------------------------------------------------------
                  0 C        1 C        2 C        5 C        6 C        7 C  
      0 C        0.000     32.396     -2.381     42.192     -0.173      0.882
      1 C       32.396      0.000     25.309     -1.182      0.383     -0.390
      2 C       -2.381     25.309      0.000      2.029     -1.360     25.830
      5 C       42.192     -1.182      2.029      0.000     31.022     -2.882
      6 C       -0.173      0.383     -1.360     31.022      0.000     23.080
      7 C        0.882     -0.390     25.830     -2.882     23.080      0.000
     14 C       70.266     -0.377      3.569     -3.180      2.733     -0.705
     15 C       -3.280      2.726     -0.836     64.299     -0.899      2.833
     18 C       -2.640      4.226     -1.073      3.272     -1.014      0.206
     20 C        6.949     -1.151      1.257     -1.506      0.781     -0.146
     22 C       -0.947      0.334     -0.382      0.447     -0.236      0.046
     23 C        0.798     -0.271      0.294     -0.334      0.189      0.000
     26 C       -0.078      0.030      0.000      0.041      0.000      0.000
     29 C        1.126     -0.360      0.000     -0.487      0.257      0.000
     32 C       -1.151      0.556     -0.415      0.514     -0.276      0.058
     34 C        0.021     -0.015      0.016     -0.017      0.008     -0.002
     36 C       -0.013      0.000      0.000      0.016     -0.008      0.000
     39 C       -0.077      0.000      0.000      0.033      0.000      0.000
     43 C        0.000      0.000      0.000      0.000      0.000      0.000
     44 C        0.010     -0.004      0.004     -0.006      0.005     -0.001
     49 C        0.000      0.000      0.000      0.000      0.000      0.000
     50 C        0.000      0.000      0.000      0.000      0.000      0.000
     51 C        0.000      0.000      0.000      0.000      0.000      0.000
     54 C        0.000      0.000      0.000      0.000      0.000      0.000
     55 C        0.000      0.000      0.000      0.000      0.000      0.000
     56 C        0.000      0.000      0.000      0.000      0.000      0.000
     59 C        0.000      0.000      0.000      0.000      0.000      0.000
     60 C        0.000      0.000      0.000      0.000      0.000      0.000
                 14 C       15 C       18 C       20 C       22 C       23 C  
      0 C       70.266     -3.280     -2.640      6.949     -0.947      0.798
      1 C       -0.377      2.726      4.226     -1.151      0.334     -0.271
      2 C        3.569     -0.836     -1.073      1.257     -0.382      0.294
      5 C       -3.180     64.299      3.272     -1.506      0.447     -0.334
      6 C        2.733     -0.899     -1.014      0.781     -0.236      0.189
      7 C       -0.705      2.833      0.206     -0.146      0.046      0.000
     14 C        0.000      3.065     54.471     -2.777      3.862     -0.898
     15 C        3.065      0.000     -1.128      1.070     -0.277      0.239
     18 C       54.471     -1.128      0.000     70.009     -2.174      2.475
     20 C       -2.777      1.070     70.009      0.000     32.226     -2.864
     22 C        3.862     -0.277     -2.174     32.226      0.000     24.427
     23 C       -0.898      0.239      2.475     -2.864     24.427      0.000
     26 C        0.115     -0.021     -0.366      1.024     -1.918     25.406
     29 C       -1.153      0.342      2.403     -2.346      1.104     -2.182
     32 C        4.412     -0.338     -1.312     37.045     -0.227      1.505
     34 C        0.063      0.005      2.428     -1.324      1.605     -0.254
     36 C        0.013     -0.014     -0.161      3.551      0.056      0.175
     39 C        0.265     -0.023     -0.039      2.938     -0.337      2.567
     43 C        0.008      0.000      0.299      0.191      0.002     -0.109
     44 C       -0.000      0.003     -0.067      0.700     -0.135      0.607
     49 C       -0.001      0.000     -0.010     -0.036      0.139      0.041
     50 C        0.000      0.000      0.033      0.150     -0.009      0.135
     51 C        0.000      0.000     -0.006      0.039     -0.002     -0.007
     54 C        0.000      0.000      0.000      0.000      0.000      0.000
     55 C        0.000      0.000      0.000      0.000      0.000      0.000
     56 C        0.000      0.000      0.000      0.000      0.000      0.000
     59 C        0.000      0.000      0.000      0.000      0.000      0.000
     60 C        0.000      0.000      0.000      0.000      0.000      0.000
                 26 C       29 C       32 C       34 C       36 C       39 C  
      0 C       -0.078      1.126     -1.151      0.021     -0.013     -0.077
      1 C        0.030     -0.360      0.556     -0.015      0.000      0.000
      2 C        0.000      0.000     -0.415      0.016      0.000      0.000
      5 C        0.041     -0.487      0.514     -0.017      0.016      0.033
      6 C        0.000      0.257     -0.276      0.008     -0.008      0.000
      7 C        0.000      0.000      0.058     -0.002      0.000      0.000
     14 C        0.115     -1.153      4.412      0.063      0.013      0.265
     15 C       -0.021      0.342     -0.338      0.005     -0.014     -0.023
     18 C       -0.366      2.403     -1.312      2.428     -0.161     -0.039
     20 C        1.024     -2.346     37.045     -1.324      3.551      2.938
     22 C       -1.918      1.104     -0.227      1.605      0.056     -0.337
     23 C       25.406     -2.182      1.505     -0.254      0.175      2.567
     26 C        0.000     27.793     -0.954      2.312      3.025     -0.559
     29 C       27.793      0.000     23.359      0.908      0.552     28.873
     32 C       -0.954     23.359      0.000     27.903      1.326      3.499
     34 C        2.312      0.908     27.903      0.000     25.940      0.051
     36 C        3.025      0.552      1.326     25.940      0.000     26.313
     39 C       -0.559     28.873      3.499      0.051     26.313      0.000
     43 C       -0.011     -0.678      2.718      1.630      0.211     30.562
     44 C       -0.576     27.341     -0.942      0.842      0.243     -1.211
     49 C        0.364      0.213      0.003     -0.007      3.146     -1.011
     50 C       -0.089      3.308      0.013     -0.054      0.580     -1.688
     51 C        0.019     -0.108      0.035      0.003      0.077      2.033
     54 C        0.003      0.006     -0.005     -0.004      0.025     -0.124
     55 C        0.000     -0.001     -0.001     -0.003     -0.075      0.065
     56 C       -0.003      0.047      0.002     -0.002      0.012      0.087
     59 C        0.000      0.000      0.000      0.000      0.001      0.057
     60 C        0.000      0.000      0.002      0.000     -0.004     -0.004
                 43 C       44 C       49 C       50 C       51 C       54 C  
      0 C        0.000      0.010      0.000      0.000      0.000      0.000
      1 C        0.000     -0.004      0.000      0.000      0.000      0.000
      2 C        0.000      0.004      0.000      0.000      0.000      0.000
      5 C        0.000     -0.006      0.000      0.000      0.000      0.000
      6 C        0.000      0.005      0.000      0.000      0.000      0.000
      7 C        0.000     -0.001      0.000      0.000      0.000      0.000
     14 C        0.008     -0.000     -0.001      0.000      0.000      0.000
     15 C        0.000      0.003      0.000      0.000      0.000      0.000
     18 C        0.299     -0.067     -0.010      0.033     -0.006      0.000
     20 C        0.191      0.700     -0.036      0.150      0.039      0.000
     22 C        0.002     -0.135      0.139     -0.009     -0.002      0.000
     23 C       -0.109      0.607      0.041      0.135     -0.007      0.000
     26 C       -0.011     -0.576      0.364     -0.089      0.019      0.003
     29 C       -0.678     27.341      0.213      3.308     -0.108      0.006
     32 C        2.718     -0.942      0.003      0.013      0.035     -0.005
     34 C        1.630      0.842     -0.007     -0.054      0.003     -0.004
     36 C        0.211      0.243      3.146      0.580      0.077      0.025
     39 C       30.562     -1.211     -1.011     -1.688      2.033     -0.124
     43 C        0.000      1.491     24.912     35.499     -1.696      3.317
     44 C        1.491      0.000     -0.069     -0.143      0.140      0.025
     49 C       24.912     -0.069      0.000     -3.424      3.394     -1.066
     50 C       35.499     -0.143     -3.424      0.000     68.457     -1.867
     51 C       -1.696      0.140      3.394     68.457      0.000     36.176
     54 C        3.317      0.025     -1.066     -1.867     36.176      0.000
     55 C       -0.715      0.016      1.188      3.225     -2.177     26.066
     56 C       -0.066      0.001      0.081      2.462     -1.266     27.378
     59 C        0.000      0.000     -0.001     -0.085      3.288     -0.317
     60 C        0.037     -0.001     -0.057     -0.076      0.362     -1.462
                 55 C       56 C       59 C       60 C  
      0 C        0.000      0.000      0.000      0.000
      1 C        0.000      0.000      0.000      0.000
      2 C        0.000      0.000      0.000      0.000
      5 C        0.000      0.000      0.000      0.000
      6 C        0.000      0.000      0.000      0.000
      7 C        0.000      0.000      0.000      0.000
     14 C        0.000      0.000      0.000      0.000
     15 C        0.000      0.000      0.000      0.000
     18 C        0.000      0.000      0.000      0.000
     20 C        0.000      0.000      0.000      0.000
     22 C        0.000      0.000      0.000      0.000
     23 C        0.000      0.000      0.000      0.000
     26 C        0.000     -0.003      0.000      0.000
     29 C       -0.001      0.047      0.000      0.000
     32 C       -0.001      0.002      0.000      0.002
     34 C       -0.003     -0.002      0.000      0.000
     36 C       -0.075      0.012      0.001     -0.004
     39 C        0.065      0.087      0.057     -0.004
     43 C       -0.715     -0.066      0.000      0.037
     44 C        0.016      0.001      0.000     -0.001
     49 C        1.188      0.081     -0.001     -0.057
     50 C        3.225      2.462     -0.085     -0.076
     51 C       -2.177     -1.266      3.288      0.362
     54 C       26.066     27.378     -0.317     -1.462
     55 C        0.000     -1.604      0.510      1.653
     56 C       -1.604      0.000     26.847     26.258
     59 C        0.510     26.847      0.000     -1.047
     60 C        1.653     26.258     -1.047      0.000

NMR spin-spin coupling calculation done in   0.3 sec 

Maximum memory used throughout the entire PROP-calculation: 34.1 MB

--------------------------------
SUGGESTED CITATIONS FOR THIS RUN
--------------------------------

Below you find a list of papers that are relevant to this ORCA run
We neither can nor want to force you to cite these papers, but we appreciate if you do
You receive ORCA, which is the product of decades of hard work by many enthusiastic individuals, for free
The only thing we kindly ask in return is that you cite our papers,
We deeply appreciate it, if you show your appreciation for ORCA by not just citing the generic ORCA reference.

Please note that relegating all ORCA citations to the supporting information does *not* help us.
SI sections are not indexed - citations you put there will not count into any citation statistics
But we need these citations in order to attract the funding resources that allow us to do what we are doing

Therefore, if you are a happy ORCA user, please consider citing a few of the papers listed below in the main body of your paper

In addition to the list printed below, the program has created the file inpJ.bibtex that contains the list in bibtex format
You can import this file easily into all common literature databanks and citation aid programs


List of essential papers. We consider these as the minimum necessary citations

  1. Neese,F.
     Software update: the ORCA program system, version 5.0
     WIRES Comput. Molec. Sci., 2022 12(1)e1606
     doi.org/10.1002/wcms.1606

List of papers to cite with high priority. The work reported in these papers was absolutely
necessary for this run to complete.
Our perspective: the developers of density functionals and basis sets usually get cited in chemistry papers
Good! But without the algorithms to do something with them, the functionals or basis sets would not do anything.
Hence, in our opinion, the algorithm design and method developments papers are equally worthy of getting cited

  1. Neese,F.
     An improvement of the resolution of the identity approximation for the formation of the Coulomb matrix
     J. Comp. Chem., 2003 24(14)1740-1747
     doi.org/10.1002/jcc.10318
  2. Neese,F.; Wennmohs,F.; Hansen,A.; Becker,U.
     Efficient, approximate and parallel Hartree-Fock and hybrid DFT calculations. A 'chain-of-spheres' algorithm for the Hartree-Fock exchange
     Chem. Phys., 2009 356(1-3)98-109
     doi.org/10.1016/j.chemphys.2008.10.036
  3. Stoychev,G.L.; Auer,A.A.; Izsak,R.; Neese,F.
     Self-Consistent Field Calculation of Nuclear Magnetic Resonance Chemical Shielding Constants Using Gauge-Including Atomic Orbitals and Approximate Two-Electron Integrals
     J. Chem. Theory Comput., 2018 14(2)619-637
     doi.org/10.1021/acs.jctc.7b01006
  4. Garcia-Rates,M.; Neese,F.
     Effect of the Solute Cavity on the Solvation Energy and its Derivatives within the Framework of the Gaussian Charge Scheme
     J. Comput. Chem., 2020 41 922-939
     doi.org/10.1002/jcc.26139
  5. Helmich-Paris,B.; de Souza,B.; Neese,F.; Izsák,R.
     An improved chain of spheres for exchange algorithm
     J. Chem. Phys., 2021 155 104109
     doi.org/doi: 10.1063/5.0058766.
  6. Neese,F.
     The SHARK Integral Generation and Digestion System
     J. Comp. Chem., 2022  1-16
     doi.org/10.1002/jcc.26942
  7. Grimme,S.; Bannwarth,C.; Dohm,S.; Hansen,A.; Pisarek,J.; Pracht,P.; Seibert,J.; Neese,F.
     Fully Automated Quantum-Chemistry-Based Computation of Spin-Spin-Coupled Nuclear Magnetic Resonance Spectra
     Angew. Chem., Int. Ed., 2017 56 14763-14769
     doi.org/10.1002/anie.201708266
  8. Caldeweyher,E.; Bannwarth,C.; Grimme,S.
     Extension of the D3 dispersion coefficient model
     J. Chem. Phys., 2017 147 034112-XXXX
     doi.org/10.1063/1.4993215
  9. Caldeweyher,E.; Ehlert,S.; Hansen,A.; Neugebauer,H.; Spicher,S.; Bannwarth,C.; Grimme,S.
     A generally applicable atomic-charge dependent London dispersion correction
     J. Chem. Phys., 2019 150 154122-XXXX
     doi.org/10.1063/1.5090222
 10. Caldeweyher,E.; Mewes,J.; Ehlert,S.; Grimme,S.
     Extension and evaluation of the D4 London-dispersion model for periodic systems
     Phys. Chem. Chem. Phys., 2020 22(16)8499-8512
     doi.org/10.1039/D0CP00502A

List of suggested additional citations. These are papers that are important in the 'surrounding' of 
of this run, or papers that preceded the highly important papers. If you like your results we are grateful for a citation.

  1. Izsak,R.; Neese,F.
     An overlap fitted chain of spheres exchange method
     J. Chem. Phys., 2011 135 144105
     doi.org/10.1063/1.3646921
  2. Izsak,R.; Hansen,A.; Neese,F.
     The resolution of identity and chain of spheres approximations for the LPNO-CCSD singles Fock term
     Molec. Phys., 2012 110 2413-2417
     doi.org/10.1080/00268976.2012.687466
  3. Neese,F.
     The ORCA program system
     WIRES Comput. Molec. Sci., 2012 2(1)73-78
     doi.org/10.1002/wcms.81
  4. Izsak,R.; Neese,F.; Klopper,W.
     Robust fitting techniques in the chain of spheres approximation to the Fock exchange: The role of the complementary space
     J. Chem. Phys., 2013 139 
     doi.org/10.1063/1.4819264
  5. Neese,F.
     Software update: the ORCA program system, version 4.0
     WIRES Comput. Molec. Sci., 2018 8(1)1-6
     doi.org/10.1002/wcms.1327
  6. Neese,F.; Wennmohs,F.; Becker,U.; Riplinger,C.
     The ORCA quantum chemistry program package
     J. Chem. Phys., 2020 152 Art. No. L224108
     doi.org/10.1063/5.0004608

Timings for individual modules:

Sum of individual times          ...      158.611 sec (=   2.644 min)
Startup calculation              ...        3.868 sec (=   0.064 min)   2.4 %
SCF iterations                   ...       57.609 sec (=   0.960 min)  36.3 %
Property integrals               ...        0.769 sec (=   0.013 min)   0.5 %
SCF Response                     ...       95.796 sec (=   1.597 min)  60.4 %
Property calculations            ...        0.569 sec (=   0.009 min)   0.4 %
                             ****ORCA TERMINATED NORMALLY****
TOTAL RUN TIME: 0 days 0 hours 2 minutes 38 seconds 913 msec
