
                                 *****************
                                 * O   R   C   A *
                                 *****************

                                            #,                                       
                                            ###                                      
                                            ####                                     
                                            #####                                    
                                            ######                                   
                                           ########,                                 
                                     ,,################,,,,,                         
                               ,,#################################,,                 
                          ,,##########################################,,             
                       ,#########################################, ''#####,          
                    ,#############################################,,   '####,        
                  ,##################################################,,,,####,       
                ,###########''''           ''''###############################       
              ,#####''   ,,,,##########,,,,          '''####'''          '####       
            ,##' ,,,,###########################,,,                        '##       
           ' ,,###''''                  '''############,,,                           
         ,,##''                                '''############,,,,        ,,,,,,###''
      ,#''                                            '''#######################'''  
     '                                                          ''''####''''         
             ,#######,   #######,   ,#######,      ##                                
            ,#'     '#,  ##    ##  ,#'     '#,    #''#        ,####,   ,####,        
            ##       ##  ##   ,#'  ##            #'  '#       #'       #'  '#        
            ##       ##  #######   ##           ,######,      #####,   #    #        
            '#,     ,#'  ##    ##  '#,     ,#' ,#      #,     #,   #   #,  ,#        
             '#######'   ##     ##  '#######'  #'      '#     '####' # '####'        



                #########################################################
                #                        -***-                          #
                #          Department of theory and spectroscopy        #
                #                                                       #
                #                      Frank Neese                      #
                #                                                       #
                #     Directorship, Architecture, Infrastructure        #
                #                    SHARK, DRIVERS                     #
                #        Core code/Algorithms in most modules           #
                #                                                       #
                #        Max Planck Institute fuer Kohlenforschung      #
                #                Kaiser Wilhelm Platz 1                 #
                #                 D-45470 Muelheim/Ruhr                 #
                #                      Germany                          #
                #                                                       #
                #                  All rights reserved                  #
                #                        -***-                          #
                #########################################################


                         Program Version 6.0.0  -   RELEASE  -


 With contributions from (in alphabetic order):
   Daniel Aravena         : Magnetic Suceptibility
   Michael Atanasov       : Ab Initio Ligand Field Theory (pilot matlab implementation)
   Alexander A. Auer      : GIAO ZORA, VPT2 properties, NMR spectrum
   Ute Becker             : All parallelization in ORCA, NUMFREQ, NUMCALC
   Giovanni Bistoni       : ED, misc. LED, open-shell LED, HFLD
   Martin Brehm           : Molecular dynamics
   Dmytro Bykov           : pre 5.0 version of the SCF Hessian
   Marcos Casanova-Páez   : Triplet and SCS-CIS(D). UHF-(DLPNO)-IP/EA/STEOM-CCSD. UHF-CVS-IP/STEOM-CCSD
   Vijay G. Chilkuri      : MRCI spin determinant printing, contributions to CSF-ICE
   Pauline Colinet        : FMM embedding
   Dipayan Datta          : RHF DLPNO-CCSD density
   Achintya Kumar Dutta   : EOM-CC, STEOM-CC
   Nicolas Foglia         : Exact transition moments, OPA infrastructure, MCD improvements
   Dmitry Ganyushin       : Spin-Orbit,Spin-Spin,Magnetic field MRCI
   Miquel Garcia          : C-PCM and meta-GGA Hessian, CCSD/C-PCM, Gaussian charge scheme
   Tiago L. C. Gouveia    : GS-ROHF, GS-ROCIS
   Yang Guo               : DLPNO-NEVPT2, F12-NEVPT2, CIM, IAO-localization
   Andreas Hansen         : Spin unrestricted coupled pair/coupled cluster methods
   Ingolf Harden          : AUTO-CI MPn and infrastructure 
   Benjamin Helmich-Paris : MC-RPA, TRAH-(SCF,CASSCF), AVAS, COSX integrals, SCF dyn. polar.
   Lee Huntington         : MR-EOM, pCC
   Robert Izsak           : Overlap fitted RIJCOSX, COSX-SCS-MP3, EOM
   Riya Kayal             : Wick's Theorem for AUTO-CI, AUTO-CI UHF-CCSDT
   Emily Kempfer          : AUTO-CI, RHF CISDT and CCSDT
   Christian Kollmar      : KDIIS, OOCD, Brueckner-CCSD(T), CCSD density, CASPT2, CASPT2-K, improved NEVPT2
   Axel Koslowski         : Symmetry handling
   Simone Kossmann        : Meta GGA functionals, TD-DFT gradient, OOMP2, (MP2 Hessian; deprecated post 5.0)
   Lucas Lang             : DCDCAS
   Marvin Lechner         : AUTO-CI (C++ implementation), FIC-MRCC
   Spencer Leger          : CASSCF response
   Dagmar Lenk            : GEPOL surface, SMD, ORCA-2-JSON
   Dimitrios Liakos       : Extrapolation schemes; Compound Job, initial MDCI parallelization
   Dimitrios Manganas     : Further ROCIS development; embedding schemes. LFT, Crystal Embedding
   Dimitrios Pantazis     : SARC Basis sets
   Anastasios Papadopoulos: AUTO-CI, single reference methods and gradients
   Taras Petrenko         : pre 6.0 DFT Hessian and TD-DFT gradient, (ASA, deprecated), ECA, 1-Electron XAS/XES, NRVS
   Peter Pinski           : DLPNO-MP2, DLPNO-MP2 Gradient
   Christoph Reimann      : Effective Core Potentials
   Marius Retegan         : Local ZFS, SOC
   Christoph Riplinger    : Optimizer, TS searches, QM/MM, DLPNO-CCSD(T), (RO)-DLPNO pert. Triples
   Michael Roemelt        : Original ROCIS implementation
   Masaaki Saitow         : Open-shell DLPNO-CCSD energy and density
   Barbara Sandhoefer     : DKH picture change effects
   Kantharuban Sivalingam : CASSCF convergence/infrastructure, NEVPT2 and variants, FIC-MRCI
   Bernardo de Souza      : ESD, SOC TD-DFT
   Georgi Stoychev        : AutoAux, RI-MP2 NMR, DLPNO-MP2 response, X2C
   Van Anh Tran           : RI-MP2 g-tensors
   Willem Van den Heuvel  : Paramagnetic NMR
   Zikuan Wang            : NOTCH, Electric field optimization 
   Frank Wennmohs         : Technical directorship and infrastructure
   Hang Xu                : AUTO-CI-Response properties 


 We gratefully acknowledge several colleagues who have allowed us to
 interface, adapt or use parts of their codes:
   Stefan Grimme, W. Hujo, H. Kruse, P. Pracht,  : VdW corrections, initial TS optimization,
                  C. Bannwarth, S. Ehlert,         DFT functionals, gCP, sTDA/sTD-DF
                  L. Wittmann, M. Mueller
   Ed Valeev, F. Pavosevic, A. Kumar             : LibInt (2-el integral package), F12 methods
   Garnet Chan, S. Sharma, J. Yang, R. Olivares  : DMRG
   Ulf Ekstrom                                   : XCFun DFT Library
   Mihaly Kallay                                 : mrcc  (arbitrary order and MRCC methods)
   Frank Weinhold                                : gennbo (NPA and NBO analysis)
   Simon Mueller                                 : openCOSMO-RS
   Christopher J. Cramer and Donald G. Truhlar   : smd solvation model
   Lars Goerigk                                  : TD-DFT with DH, B97 family of functionals
   V. Asgeirsson, H. Jonsson                     : NEB implementation
   FAccTs GmbH                                   : IRC, NEB, NEB-TS, DLPNO-Multilevel, CI-OPT
                                                   MM, QMMM, 2- and 3-layer-ONIOM, Crystal-QMMM,
                                                   LR-CPCM, SF, NACMEs, symmetry and pop. for TD-DFT,
                                                   nearIR, NL-DFT gradient (VV10), updates on ESD,
                                                   ML-optimized integration grids, MBIS, APM,
                                                   GOAT, DOCKER, SOLVATOR, interface openCOSMO-RS
   S Lehtola, MJT Oliveira, MAL Marques          : LibXC Library
   Liviu Ungur et al                             : ANISO software


 Your calculation uses the libint2 library for the computation of 2-el integrals
 For citations please refer to: http://libint.valeyev.net

 Your ORCA version has been built with support for libXC version: 6.2.2
 For citations please refer to: https://libxc.gitlab.io

 This ORCA versions uses:
   CBLAS   interface :  Fast vector & matrix operations
   LAPACKE interface :  Fast linear algebra routines
   SCALAPACK package :  Parallel linear algebra routines
   Shared memory     :  Shared parallel matrices
   BLAS/LAPACK       :  OpenBLAS 0.3.27  USE64BITINT DYNAMIC_ARCH NO_AFFINITY Zen SINGLE_THREADED
        Core in use  :  Zen
   Copyright (c) 2011-2014, The OpenBLAS Project


NOTE: MaxCore=8000 MB was set to SCF,MP2,MDCI,CIPSI,MRCI and CIS
      => If you want to overwrite this, your respective input block should be placed after the MaxCore statement
Your calculation utilizes the atom-pairwise dispersion correction
based on EEQ partial charges (D4)


================================================================================

----- Orbital basis set information -----
Your calculation utilizes the basis: def2-SVP
   F. Weigend and R. Ahlrichs, Phys. Chem. Chem. Phys. 7, 3297 (2005).

----- AuxJ basis set information -----
Your calculation utilizes the auxiliary basis: def2/J
   F. Weigend, Phys. Chem. Chem. Phys. 8, 1057 (2006).

================================================================================
                                        WARNINGS
                       Please study these warnings very carefully!
================================================================================


================================================================================
                                       INPUT FILE
================================================================================
NAME = inpS
|  1> ! wb97x-d4
|  2> ! def2-svp
|  3> ! def2/J RIJCOSX
|  4> ! DEFGRID2
|  5> ! scfconv7
|  6> ! smallprint printgap noloewdin
|  7> ! NOSOSCF
|  8> %MaxCore 8000
|  9> %output
| 10>        print[P_BondOrder_M] 1
| 11>        print[P_Mayer] 1
| 12>        print[P_basis] 2
| 13> end
| 14> %pal
| 15>     nprocs 4
| 16> end
| 17> ! CPCM(chloroform)
| 18> *xyz 0 1
| 19> C   -5.0318049700   0.2511081400  -0.4971302200
| 20> C   -6.4867457800  -0.1181096600  -0.6673763200
| 21> C   -7.3779896400   0.8096520800   0.1680802400
| 22> H   -6.6572302500  -1.1616516900  -0.3794964400
| 23> H   -6.7794300000  -0.0048992100  -1.7218112900
| 24> C   -4.7359064400   1.6744536200  -0.7722711200
| 25> C   -5.6499086300   2.6515932200  -0.0662313300
| 26> C   -7.1286094800   2.2684853000  -0.2186481000
| 27> H   -5.4752304600   3.6678087100  -0.4354413000
| 28> H   -5.3944855300   2.6509136000   1.0044057600
| 29> H   -7.4388391200   2.4064397100  -1.2634082400
| 30> H   -7.7527005700   2.9233388700   0.4003944100
| 31> O   -7.1656865500   0.5890671900   1.5724521900
| 32> H   -8.4317919200   0.5596344100  -0.0061199200
| 33> C   -4.1244467200  -0.6564153300  -0.0641059300
| 34> C   -3.7681275900   2.0723399400  -1.6054624200
| 35> H   -3.1326724100   1.3548387000  -2.1177390200
| 36> H   -3.5975241200   3.1284989000  -1.8005501700
| 37> C   -2.7350966200  -0.3970889300   0.2367226500
| 38> H   -4.4950688700  -1.6674072700   0.1007710600
| 39> C   -1.7999238600  -1.3160744000   0.5582295900
| 40> H   -2.4313643200   0.6469659200   0.2071176200
| 41> C   -2.0153593900  -2.8070310600   0.6153387100
| 42> C   -1.0203921200  -3.5545068400  -0.2939435400
| 43> H   -3.0381661000  -3.0904002500   0.3531383200
| 44> H   -1.8435576100  -3.1346479900   1.6528894400
| 45> C    0.4356624900  -3.1408441600  -0.0425680200
| 46> H   -1.2848615000  -3.3667677600  -1.3422933500
| 47> H   -1.1283939200  -4.6342671800  -0.1337656800
| 48> C    0.6230678500  -1.6207295900  -0.1409089400
| 49> H    1.0819242600  -3.6683801700  -0.7518681600
| 50> H    0.7345402900  -3.4642570300   0.9659484700
| 51> C   -0.3771735400  -0.9590184400   0.8609791300
| 52> H   -0.1394784800  -1.4243362000   1.8351988600
| 53> C    0.0750698500   0.4968358600   0.9338733200
| 54> H   -6.2125629500   0.4991314800   1.7138942800
| 55> C    1.6165522900   0.4057088000   0.8187845200
| 56> H   -0.2559562500   0.9839409300   1.8570438300
| 57> H   -0.3362320700   1.0750006800   0.0989266600
| 58> C    1.9613186400  -1.0585529500   0.4127249000
| 59> H    2.1134881300   0.6717618700   1.7572019900
| 60> H    1.9947979500   1.1028112000   0.0620175500
| 61> H    2.1869640800  -1.6314649100   1.3275129800
| 62> C    3.2193495600  -1.1161664700  -0.4779071900
| 63> C    0.3741955100  -1.1255633000  -1.5728138100
| 64> H    0.6156022000  -0.0632060500  -1.6799902500
| 65> H   -0.6726750500  -1.2531816600  -1.8649723600
| 66> H    0.9932848100  -1.6802993600  -2.2865469600
| 67> H    3.0260413600  -0.5296152600  -1.3881650700
| 68> C    3.6162585400  -2.5434242800  -0.8833492700
| 69> C    4.3706187700  -0.4748470200   0.2522262000
| 70> C    5.0475143800   0.5851431900  -0.1882614200
| 71> H    4.6315008500  -0.9522625700   1.1959550800
| 72> H    4.7310344400   1.0074956600  -1.1475842100
| 73> C    6.2219640800   1.3169451600   0.4134816500
| 74> C    7.3983541200   1.2620929800  -0.5788008400
| 75> C    6.6717571100   0.9610930300   1.8490358000
| 76> H    5.9130106100   2.3754572000   0.4630245400
| 77> H    7.4645891700   1.6929750600   2.0708565600
| 78> C    7.3124325300  -0.4232471800   2.0059359300
| 79> C    5.5694474500   1.1917711600   2.8891965800
| 80> H    7.7135366600   0.2293014300  -0.7603310500
| 81> H    8.2578333400   1.8235259200  -0.1943514800
| 82> H    7.1122227300   1.6950187900  -1.5433710000
| 83> H    8.1740675400  -0.5464891100   1.3424606100
| 84> H    6.6109413700  -1.2354498400   1.7950364400
| 85> H    7.6676021000  -0.5523353300   3.0347515500
| 86> H    5.0971594000   2.1711291700   2.7490461400
| 87> H    5.9896835400   1.1611804900   3.9008254200
| 88> H    4.7832460600   0.4335339700   2.8348932600
| 89> H    2.8802088200  -2.9968694700  -1.5520055600
| 90> H    3.7143420100  -3.1848759800   0.0012237800
| 91> H    4.5807888600  -2.5338228200  -1.4022759400
| 92> *
| 93> %eprnmr
| 94>  Nuclei = all C { shift }
| 95>  origin giao
| 96>  giao_2el giao_2el_same_as_scf
| 97>  giao_1el giao_1el_analytic
| 98> end
| 99> 
|100>                          ****END OF INPUT****
================================================================================

                       ****************************
                       * Single Point Calculation *
                       ****************************

---------------------------------
CARTESIAN COORDINATES (ANGSTROEM)
---------------------------------
  C     -5.031805    0.251108   -0.497130
  C     -6.486746   -0.118110   -0.667376
  C     -7.377990    0.809652    0.168080
  H     -6.657230   -1.161652   -0.379496
  H     -6.779430   -0.004899   -1.721811
  C     -4.735906    1.674454   -0.772271
  C     -5.649909    2.651593   -0.066231
  C     -7.128609    2.268485   -0.218648
  H     -5.475230    3.667809   -0.435441
  H     -5.394486    2.650914    1.004406
  H     -7.438839    2.406440   -1.263408
  H     -7.752701    2.923339    0.400394
  O     -7.165687    0.589067    1.572452
  H     -8.431792    0.559634   -0.006120
  C     -4.124447   -0.656415   -0.064106
  C     -3.768128    2.072340   -1.605462
  H     -3.132672    1.354839   -2.117739
  H     -3.597524    3.128499   -1.800550
  C     -2.735097   -0.397089    0.236723
  H     -4.495069   -1.667407    0.100771
  C     -1.799924   -1.316074    0.558230
  H     -2.431364    0.646966    0.207118
  C     -2.015359   -2.807031    0.615339
  C     -1.020392   -3.554507   -0.293944
  H     -3.038166   -3.090400    0.353138
  H     -1.843558   -3.134648    1.652889
  C      0.435662   -3.140844   -0.042568
  H     -1.284861   -3.366768   -1.342293
  H     -1.128394   -4.634267   -0.133766
  C      0.623068   -1.620730   -0.140909
  H      1.081924   -3.668380   -0.751868
  H      0.734540   -3.464257    0.965948
  C     -0.377174   -0.959018    0.860979
  H     -0.139478   -1.424336    1.835199
  C      0.075070    0.496836    0.933873
  H     -6.212563    0.499131    1.713894
  C      1.616552    0.405709    0.818785
  H     -0.255956    0.983941    1.857044
  H     -0.336232    1.075001    0.098927
  C      1.961319   -1.058553    0.412725
  H      2.113488    0.671762    1.757202
  H      1.994798    1.102811    0.062018
  H      2.186964   -1.631465    1.327513
  C      3.219350   -1.116166   -0.477907
  C      0.374196   -1.125563   -1.572814
  H      0.615602   -0.063206   -1.679990
  H     -0.672675   -1.253182   -1.864972
  H      0.993285   -1.680299   -2.286547
  H      3.026041   -0.529615   -1.388165
  C      3.616259   -2.543424   -0.883349
  C      4.370619   -0.474847    0.252226
  C      5.047514    0.585143   -0.188261
  H      4.631501   -0.952263    1.195955
  H      4.731034    1.007496   -1.147584
  C      6.221964    1.316945    0.413482
  C      7.398354    1.262093   -0.578801
  C      6.671757    0.961093    1.849036
  H      5.913011    2.375457    0.463025
  H      7.464589    1.692975    2.070857
  C      7.312433   -0.423247    2.005936
  C      5.569447    1.191771    2.889197
  H      7.713537    0.229301   -0.760331
  H      8.257833    1.823526   -0.194351
  H      7.112223    1.695019   -1.543371
  H      8.174068   -0.546489    1.342461
  H      6.610941   -1.235450    1.795036
  H      7.667602   -0.552335    3.034752
  H      5.097159    2.171129    2.749046
  H      5.989684    1.161180    3.900825
  H      4.783246    0.433534    2.834893
  H      2.880209   -2.996869   -1.552006
  H      3.714342   -3.184876    0.001224
  H      4.580789   -2.533823   -1.402276

----------------------------
CARTESIAN COORDINATES (A.U.)
----------------------------
  NO LB      ZA    FRAG     MASS         X           Y           Z
   0 C     6.0000    0    12.011   -9.508733    0.474526   -0.939440
   1 C     6.0000    0    12.011  -12.258173   -0.223195   -1.261158
   2 C     6.0000    0    12.011  -13.942380    1.530021    0.317626
   3 H     1.0000    0     1.008  -12.580342   -2.195204   -0.717144
   4 H     1.0000    0     1.008  -12.811266   -0.009258   -3.253752
   5 C     6.0000    0    12.011   -8.949566    3.164259   -1.459381
   6 C     6.0000    0    12.011  -10.676780    5.010785   -0.125159
   7 C     6.0000    0    12.011  -13.471120    4.286816   -0.413185
   8 H     1.0000    0     1.008  -10.346686    6.931154   -0.822865
   9 H     1.0000    0     1.008  -10.194100    5.009501    1.898052
  10 H     1.0000    0     1.008  -14.057369    4.547512   -2.387496
  11 H     1.0000    0     1.008  -14.650481    5.524310    0.756636
  12 O     8.0000    0    15.999  -13.541185    1.113176    2.971504
  13 H     1.0000    0     1.008  -15.933778    1.057556   -0.011565
  14 C     6.0000    0    12.011   -7.794075   -1.240445   -0.121143
  15 C     6.0000    0    12.011   -7.120729    3.916155   -3.033884
  16 H     1.0000    0     1.008   -5.919893    2.560274   -4.001947
  17 H     1.0000    0     1.008   -6.798335    5.912006   -3.402547
  18 C     6.0000    0    12.011   -5.168584   -0.750389    0.447341
  19 H     1.0000    0     1.008   -8.494449   -3.150943    0.190430
  20 C     6.0000    0    12.011   -3.401363   -2.487020    1.054901
  21 H     1.0000    0     1.008   -4.594613    1.222588    0.391396
  22 C     6.0000    0    12.011   -3.808477   -5.304520    1.162822
  23 C     6.0000    0    12.011   -1.928262   -6.717044   -0.555473
  24 H     1.0000    0     1.008   -5.741302   -5.840010    0.667335
  25 H     1.0000    0     1.008   -3.483819   -5.923626    3.123508
  26 C     6.0000    0    12.011    0.823283   -5.935335   -0.080442
  27 H     1.0000    0     1.008   -2.428036   -6.362269   -2.536567
  28 H     1.0000    0     1.008   -2.132355   -8.757496   -0.252781
  29 C     6.0000    0    12.011    1.177428   -3.062735   -0.266279
  30 H     1.0000    0     1.008    2.044541   -6.932234   -1.420825
  31 H     1.0000    0     1.008    1.388080   -6.546497    1.825378
  32 C     6.0000    0    12.011   -0.712755   -1.812282    1.627015
  33 H     1.0000    0     1.008   -0.263576   -2.691605    3.468023
  34 C     6.0000    0    12.011    0.141861    0.938884    1.764765
  35 H     1.0000    0     1.008  -11.740043    0.943222    3.238791
  36 C     6.0000    0    12.011    3.054841    0.766679    1.547279
  37 H     1.0000    0     1.008   -0.483687    1.859379    3.509304
  38 H     1.0000    0     1.008   -0.635387    2.031457    0.186944
  39 C     6.0000    0    12.011    3.706355   -2.000375    0.779937
  40 H     1.0000    0     1.008    3.993914    1.269446    3.320631
  41 H     1.0000    0     1.008    3.769622    2.084011    0.117196
  42 H     1.0000    0     1.008    4.132763   -3.083022    2.508636
  43 C     6.0000    0    12.011    6.083689   -2.109249   -0.903114
  44 C     6.0000    0    12.011    0.707127   -2.127006   -2.972187
  45 H     1.0000    0     1.008    1.163320   -0.119442   -3.174721
  46 H     1.0000    0     1.008   -1.271172   -2.368170   -3.524287
  47 H     1.0000    0     1.008    1.877036   -3.175306   -4.320948
  48 H     1.0000    0     1.008    5.718389   -1.000828   -2.623252
  49 C     6.0000    0    12.011    6.833738   -4.806375   -1.669288
  50 C     6.0000    0    12.011    8.259273   -0.897331    0.476638
  51 C     6.0000    0    12.011    9.538420    1.105760   -0.355763
  52 H     1.0000    0     1.008    8.752268   -1.799515    2.260028
  53 H     1.0000    0     1.008    8.940359    1.903891   -2.168620
  54 C     6.0000    0    12.011   11.757808    2.488666    0.781367
  55 C     6.0000    0    12.011   13.980863    2.385010   -1.093775
  56 C     6.0000    0    12.011   12.607794    1.816203    3.494171
  57 H     1.0000    0     1.008   11.173971    4.488964    0.874990
  58 H     1.0000    0     1.008   14.106029    3.199259    3.913352
  59 C     6.0000    0    12.011   13.818495   -0.799821    3.790670
  60 C     6.0000    0    12.011   10.524730    2.252121    5.459790
  61 H     1.0000    0     1.008   14.576472    0.433317   -1.436817
  62 H     1.0000    0     1.008   15.605043    3.445965   -0.367271
  63 H     1.0000    0     1.008   13.440153    3.203121   -2.916549
  64 H     1.0000    0     1.008   15.446749   -1.032715    2.536883
  65 H     1.0000    0     1.008   12.492869   -2.334662    3.392127
  66 H     1.0000    0     1.008   14.489668   -1.043763    5.734849
  67 H     1.0000    0     1.008    9.632235    4.102840    5.194944
  68 H     1.0000    0     1.008   11.318862    2.194313    7.371492
  69 H     1.0000    0     1.008    9.039025    0.819260    5.357172
  70 H     1.0000    0     1.008    5.442806   -5.663263   -2.932865
  71 H     1.0000    0     1.008    7.019089   -6.018543    0.002313
  72 H     1.0000    0     1.008    8.656436   -4.788231   -2.649917

--------------------------------
INTERNAL COORDINATES (ANGSTROEM)
--------------------------------
 C      0   0   0     0.000000000000     0.00000000     0.00000000
 C      1   0   0     1.510681395598     0.00000000     0.00000000
 C      2   1   0     1.533963861322   110.51006770     0.00000000
 H      2   1   3     1.095864840296   110.66856061   237.86435217
 H      2   1   3     1.100142611021   109.82131856   118.76467121
 C      1   2   3     1.479584674949   114.00189782   306.32735426
 C      6   1   2     1.512843014419   114.43965134    49.53825982
 C      3   2   1     1.529687431123   110.14431206    56.73873365
 H      7   6   1     1.095227093866   110.21932165   188.82523009
 H      7   6   1     1.100683969348   108.26168642    72.17032434
 H      8   3   2     1.098543398736   108.31019898    64.32711933
 H      8   3   2     1.096146211026   109.52068447   181.32945516
 O      3   2   1     1.437355512623   110.70189466   292.74306948
 H      3   2   1     1.096974829424   109.49992500   177.21014863
 C      1   2   3     1.354403144626   121.16330977   123.21763688
 C      6   1   2     1.337578845731   123.14043877   231.42527335
 H     16   6   1     1.086756012221   121.35242837   359.08603842
 H     16   6   1     1.087490930061   120.94056292   178.46990193
 C     15   1   2     1.445005784297   126.18814410   185.18503424
 H     15   1   2     1.089334614637   116.25240921     3.06042988
 C     19  15   1     1.349981147122   126.40303939   186.06493542
 H     19  15   1     1.087740914774   115.78958380     6.74949489
 C     21  19  15     1.507523028405   125.68191160     2.45211841
 C     23  21  19     1.541257317979   111.41033349   124.09530765
 H     23  21  19     1.093243206418   112.39353407     0.53673797
 H     23  21  19     1.101526314600   107.91141948   242.62015400
 C     24  23  21     1.534405908546   112.65583010    51.34543117
 H     24  23  21     1.097372926240   108.96892477   289.20446190
 H     24  23  21     1.096906435150   109.12833749   173.27433728
 C     27  24  23     1.534776860468   111.86306618   306.31018088
 H     27  24  23     1.095013792522   108.90811537   182.83648886
 H     27  24  23     1.100467779817   109.18571670    66.36691204
 C     21  19  15     1.497786605496   122.94841990   180.20499626
 H     33  21  19     1.105497011141   106.38125226   127.66624903
 C     33  21  19     1.526220622834   121.23324274     5.06949086
 H     13   3   2     0.967749396091   107.60995447    42.64955517
 C     35  33  21     1.548456549529   103.60898178   197.04200286
 H     35  33  21     1.095031240940   112.02509641    74.99999267
 H     35  33  21     1.095709703127   110.83698105   315.42486177
 C     30  27  24     1.553534093701   116.15256752   166.26487170
 H     37  35  33     1.094694849323   111.95556669   249.25375570
 H     37  35  33     1.096228891371   110.93902904   130.68647716
 H     40  30  27     1.102715380238   106.49308412   320.89464329
 C     40  30  27     1.542461225801   118.90039986    81.70123273
 C     30  27  24     1.535408301755   111.06217856   294.08821720
 H     45  30  27     1.094699459165   111.62503744   186.49434381
 H     45  30  27     1.094340455956   111.49526964    66.45224917
 H     45  30  27     1.095636192834   110.64919923   306.34111742
 H     44  40  30     1.099990813708   108.33468388    60.80549016
 C     44  40  30     1.535898718941   113.44702053   299.87247299
 C     44  40  30     1.506587600518   109.11818922   178.10647418
 C     51  44  40     1.332590055308   124.51085609   239.94939304
 H     51  44  40     1.089315962425   114.60147464    60.35762232
 H     52  51  44     1.094916150557   116.71958726     0.10666168
 C     52  51  44     1.508960219296   130.48860124   181.05112798
 C     55  52  51     1.539976242616   108.68288092   120.41092629
 C     55  52  51     1.545884932925   119.02178386   351.23273710
 H     55  52  51     1.103790960010   105.37427226   233.74710845
 H     57  55  52     1.101561814320   104.09150886   185.23645320
 C     57  55  52     1.533453768983   115.11194125    69.46680183
 C     57  55  52     1.533047107704   112.71950731   300.01403519
 H     56  55  52     1.094966500134   111.11905057   298.00471216
 H     56  55  52     1.096226612582   110.77553873   177.45370160
 H     56  55  52     1.095304306058   110.72018956    57.49338628
 H     60  57  55     1.094441850450   111.62655599    56.51722276
 H     60  57  55     1.093728304174   112.50062179   295.27290574
 H     60  57  55     1.096024978675   109.74035748   175.58844530
 H     61  57  55     1.096284753044   110.94347758   313.02196271
 H     61  57  55     1.095868181101   110.26770452   193.47985473
 H     61  57  55     1.093611042602   112.26544923    73.52954898
 H     50  44  40     1.092924043474   111.90128214    67.26696292
 H     50  44  40     1.097064324143   110.70749160   306.58771526
 H     50  44  40     1.095306265421   110.15042111   187.25301919

---------------------------
INTERNAL COORDINATES (A.U.)
---------------------------
 C      0   0   0     0.000000000000     0.00000000     0.00000000
 C      1   0   0     2.854774113290     0.00000000     0.00000000
 C      2   1   0     2.898771597231   110.51006770     0.00000000
 H      2   1   3     2.070884427952   110.66856061   237.86435217
 H      2   1   3     2.078968243088   109.82131856   118.76467121
 C      1   2   3     2.796009827601   114.00189782   306.32735426
 C      6   1   2     2.858858980868   114.43965134    49.53825982
 C      3   2   1     2.890690315324   110.14431206    56.73873365
 H      7   6   1     2.069679261857   110.21932165   188.82523009
 H      7   6   1     2.079991262066   108.26168642    72.17032434
 H      8   3   2     2.075946169838   108.31019898    64.32711933
 H      8   3   2     2.071416141574   109.52068447   181.32945516
 O      3   2   1     2.716208275939   110.70189466   292.74306948
 H      3   2   1     2.072982003416   109.49992500   177.21014863
 C      1   2   3     2.559451018266   121.16330977   123.21763688
 C      6   1   2     2.527657700957   123.14043877   231.42527335
 H     16   6   1     2.053671237490   121.35242837   359.08603842
 H     16   6   1     2.055060030938   120.94056292   178.46990193
 C     15   1   2     2.730665194253   126.18814410   185.18503424
 H     15   1   2     2.058544089865   116.25240921     3.06042988
 C     19  15   1     2.551094654018   126.40303939   186.06493542
 H     19  15   1     2.055532433584   115.78958380     6.74949489
 C     21  19  15     2.848805664265   125.68191160     2.45211841
 C     23  21  19     2.912554232882   111.41033349   124.09530765
 H     23  21  19     2.065930257899   112.39353407     0.53673797
 H     23  21  19     2.081583063902   107.91141948   242.62015400
 C     24  23  21     2.899606945423   112.65583010    51.34543117
 H     24  23  21     2.073734297373   108.96892477   289.20446190
 H     24  23  21     2.072852756970   109.12833749   173.27433728
 C     27  24  23     2.900307942965   111.86306618   306.31018088
 H     27  24  23     2.069276180734   108.90811537   182.83648886
 H     27  24  23     2.079582723059   109.18571670    66.36691204
 C     21  19  15     2.830406491442   122.94841990   180.20499626
 H     33  21  19     2.089086592924   106.38125226   127.66624903
 C     33  21  19     2.884138997098   121.23324274     5.06949086
 H     13   3   2     1.828781324879   107.60995447    42.64955517
 C     35  33  21     2.926158808886   103.60898178   197.04200286
 H     35  33  21     2.069309153465   112.02509641    74.99999267
 H     35  33  21     2.070591261190   110.83698105   315.42486177
 C     30  27  24     2.935753976804   116.15256752   166.26487170
 H     37  35  33     2.068673465435   111.95556669   249.25375570
 H     37  35  33     2.071572384784   110.93902904   130.68647716
 H     40  30  27     2.083830072313   106.49308412   320.89464329
 C     40  30  27     2.914829288957   118.90039986    81.70123273
 C     30  27  24     2.901501194067   111.06217856   294.08821720
 H     45  30  27     2.068682176773   111.62503744   186.49434381
 H     45  30  27     2.068003759027   111.49526964    66.45224917
 H     45  30  27     2.070452346868   110.64919923   306.34111742
 H     44  40  30     2.078681387737   108.33468388    60.80549016
 C     44  40  30     2.902427948239   113.44702053   299.87247299
 C     44  40  30     2.847037961741   109.11818922   178.10647418
 C     51  44  40     2.518230253320   124.51085609   239.94939304
 H     51  44  40     2.058508842291   114.60147464    60.35762232
 H     52  51  44     2.069091664160   116.71958726     0.10666168
 C     52  51  44     2.851521561452   130.48860124   181.05112798
 C     55  52  51     2.910133351290   108.68288092   120.41092629
 C     55  52  51     2.921299157783   119.02178386   351.23273710
 H     55  52  51     2.085862623517   105.37427226   233.74710845
 H     57  55  52     2.081650148650   104.09150886   185.23645320
 C     57  55  52     2.897807662408   115.11194125    69.46680183
 C     57  55  52     2.897039183961   112.71950731   300.01403519
 H     56  55  52     2.069186811071   111.11905057   298.00471216
 H     56  55  52     2.071568078496   110.77553873   177.45370160
 H     56  55  52     2.069825171755   110.72018956    57.49338628
 H     60  57  55     2.068195366853   111.62655599    56.51722276
 H     60  57  55     2.066846959807   112.50062179   295.27290574
 H     60  57  55     2.071187045633   109.74035748   175.58844530
 H     61  57  55     2.071677948046   110.94347758   313.02196271
 H     61  57  55     2.070890741159   110.26770452   193.47985473
 H     61  57  55     2.066625367549   112.26544923    73.52954898
 H     50  44  40     2.065327127343   111.90128214    67.26696292
 H     50  44  40     2.073151123925   110.70749160   306.58771526
 H     50  44  40     2.069828874414   110.15042111   187.25301919

---------------------
BASIS SET INFORMATION
---------------------
There are 3 groups of distinct atoms

 Group   1 Type C   : 7s4p1d contracted to 3s2p1d pattern {511/31/1}
 Group   2 Type H   : 4s1p contracted to 2s1p pattern {31/1}
 Group   3 Type O   : 7s4p1d contracted to 3s2p1d pattern {511/31/1}

Atom   0C    basis set group =>   1
Atom   1C    basis set group =>   1
Atom   2C    basis set group =>   1
Atom   3H    basis set group =>   2
Atom   4H    basis set group =>   2
Atom   5C    basis set group =>   1
Atom   6C    basis set group =>   1
Atom   7C    basis set group =>   1
Atom   8H    basis set group =>   2
Atom   9H    basis set group =>   2
Atom  10H    basis set group =>   2
Atom  11H    basis set group =>   2
Atom  12O    basis set group =>   3
Atom  13H    basis set group =>   2
Atom  14C    basis set group =>   1
Atom  15C    basis set group =>   1
Atom  16H    basis set group =>   2
Atom  17H    basis set group =>   2
Atom  18C    basis set group =>   1
Atom  19H    basis set group =>   2
Atom  20C    basis set group =>   1
Atom  21H    basis set group =>   2
Atom  22C    basis set group =>   1
Atom  23C    basis set group =>   1
Atom  24H    basis set group =>   2
Atom  25H    basis set group =>   2
Atom  26C    basis set group =>   1
Atom  27H    basis set group =>   2
Atom  28H    basis set group =>   2
Atom  29C    basis set group =>   1
Atom  30H    basis set group =>   2
Atom  31H    basis set group =>   2
Atom  32C    basis set group =>   1
Atom  33H    basis set group =>   2
Atom  34C    basis set group =>   1
Atom  35H    basis set group =>   2
Atom  36C    basis set group =>   1
Atom  37H    basis set group =>   2
Atom  38H    basis set group =>   2
Atom  39C    basis set group =>   1
Atom  40H    basis set group =>   2
Atom  41H    basis set group =>   2
Atom  42H    basis set group =>   2
Atom  43C    basis set group =>   1
Atom  44C    basis set group =>   1
Atom  45H    basis set group =>   2
Atom  46H    basis set group =>   2
Atom  47H    basis set group =>   2
Atom  48H    basis set group =>   2
Atom  49C    basis set group =>   1
Atom  50C    basis set group =>   1
Atom  51C    basis set group =>   1
Atom  52H    basis set group =>   2
Atom  53H    basis set group =>   2
Atom  54C    basis set group =>   1
Atom  55C    basis set group =>   1
Atom  56C    basis set group =>   1
Atom  57H    basis set group =>   2
Atom  58H    basis set group =>   2
Atom  59C    basis set group =>   1
Atom  60C    basis set group =>   1
Atom  61H    basis set group =>   2
Atom  62H    basis set group =>   2
Atom  63H    basis set group =>   2
Atom  64H    basis set group =>   2
Atom  65H    basis set group =>   2
Atom  66H    basis set group =>   2
Atom  67H    basis set group =>   2
Atom  68H    basis set group =>   2
Atom  69H    basis set group =>   2
Atom  70H    basis set group =>   2
Atom  71H    basis set group =>   2
Atom  72H    basis set group =>   2

-------------------------
BASIS SET IN INPUT FORMAT
-------------------------

 # Basis set for element : H 
 NewGTO H 
 S 3 
   1      13.0107010000      0.0334854848
   2       1.9622572000      0.2347218709
   3       0.4445379600      0.8137702853
 S 1 
   1       0.1219496200      1.0000000000
 P 1 
   1       0.8000000000      1.0000000000
  end;

 # Basis set for element : C 
 NewGTO C 
 S 5 
   1    1238.4016938000      0.0055173650
   2     186.2900499200      0.0410888285
   3      42.2511763460      0.1822538213
   4      11.6765579320      0.4682845944
   5       3.5930506482      0.4457581734
 S 1 
   1       0.4024514736      1.0000000000
 S 1 
   1       0.1309018267      1.0000000000
 P 3 
   1       9.4680970621      0.0568883320
   2       2.0103545142      0.3129405934
   3       0.5477100471      0.7606501651
 P 1 
   1       0.1526861379      1.0000000000
 D 1 
   1       0.8000000000      1.0000000000
  end;

 # Basis set for element : O 
 NewGTO O 
 S 5 
   1    2266.1767785000     -0.0053893504
   2     340.8701019100     -0.0402347214
   3      77.3631351670     -0.1800818421
   4      21.4796449400     -0.4682885766
   5       6.6589433124     -0.4469261716
 S 1 
   1       0.8097597567      1.0000000000
 S 1 
   1       0.2553077223      1.0000000000
 P 3 
   1      17.7215043170      0.0626302488
   2       3.8635505440      0.3333113849
   3       1.0480920883      0.7414863830
 P 1 
   1       0.2764154441      1.0000000000
 D 1 
   1       1.2000000000      1.0000000000
  end;

---------------------------------
AUXILIARY/J BASIS SET INFORMATION
---------------------------------
There are 3 groups of distinct atoms

 Group   1 Type C   : 12s5p4d2f1g contracted to 6s4p3d1f1g pattern {711111/2111/211/2/1}
 Group   2 Type H   : 5s2p1d contracted to 3s1p1d pattern {311/2/1}
 Group   3 Type O   : 12s5p4d2f1g contracted to 6s4p3d1f1g pattern {711111/2111/211/2/1}

Atom   0C    basis set group =>   1
Atom   1C    basis set group =>   1
Atom   2C    basis set group =>   1
Atom   3H    basis set group =>   2
Atom   4H    basis set group =>   2
Atom   5C    basis set group =>   1
Atom   6C    basis set group =>   1
Atom   7C    basis set group =>   1
Atom   8H    basis set group =>   2
Atom   9H    basis set group =>   2
Atom  10H    basis set group =>   2
Atom  11H    basis set group =>   2
Atom  12O    basis set group =>   3
Atom  13H    basis set group =>   2
Atom  14C    basis set group =>   1
Atom  15C    basis set group =>   1
Atom  16H    basis set group =>   2
Atom  17H    basis set group =>   2
Atom  18C    basis set group =>   1
Atom  19H    basis set group =>   2
Atom  20C    basis set group =>   1
Atom  21H    basis set group =>   2
Atom  22C    basis set group =>   1
Atom  23C    basis set group =>   1
Atom  24H    basis set group =>   2
Atom  25H    basis set group =>   2
Atom  26C    basis set group =>   1
Atom  27H    basis set group =>   2
Atom  28H    basis set group =>   2
Atom  29C    basis set group =>   1
Atom  30H    basis set group =>   2
Atom  31H    basis set group =>   2
Atom  32C    basis set group =>   1
Atom  33H    basis set group =>   2
Atom  34C    basis set group =>   1
Atom  35H    basis set group =>   2
Atom  36C    basis set group =>   1
Atom  37H    basis set group =>   2
Atom  38H    basis set group =>   2
Atom  39C    basis set group =>   1
Atom  40H    basis set group =>   2
Atom  41H    basis set group =>   2
Atom  42H    basis set group =>   2
Atom  43C    basis set group =>   1
Atom  44C    basis set group =>   1
Atom  45H    basis set group =>   2
Atom  46H    basis set group =>   2
Atom  47H    basis set group =>   2
Atom  48H    basis set group =>   2
Atom  49C    basis set group =>   1
Atom  50C    basis set group =>   1
Atom  51C    basis set group =>   1
Atom  52H    basis set group =>   2
Atom  53H    basis set group =>   2
Atom  54C    basis set group =>   1
Atom  55C    basis set group =>   1
Atom  56C    basis set group =>   1
Atom  57H    basis set group =>   2
Atom  58H    basis set group =>   2
Atom  59C    basis set group =>   1
Atom  60C    basis set group =>   1
Atom  61H    basis set group =>   2
Atom  62H    basis set group =>   2
Atom  63H    basis set group =>   2
Atom  64H    basis set group =>   2
Atom  65H    basis set group =>   2
Atom  66H    basis set group =>   2
Atom  67H    basis set group =>   2
Atom  68H    basis set group =>   2
Atom  69H    basis set group =>   2
Atom  70H    basis set group =>   2
Atom  71H    basis set group =>   2
Atom  72H    basis set group =>   2

-------------------------------------
AUXILIARY/J BASIS SET IN INPUT FORMAT
-------------------------------------

 # Auxiliary/J basis set for element : H 
 NewAuxJGTO H 
 S 3 
   1      15.6752927000      0.1007184237
   2       3.6063578000      0.3404257499
   3       1.2080016000      0.6491996172
 S 1 
   1       0.4726794000      1.0000000000
 S 1 
   1       0.2018100000      1.0000000000
 P 2 
   1       2.0281365000      0.5596620919
   2       0.5358730000      0.5596620919
 D 1 
   1       2.2165124000      1.0000000000
  end;

 # Auxiliary/J basis set for element : C 
 NewAuxJGTO C 
 S 7 
   1    1861.0916331000      0.0134602335
   2     642.9939764000      0.0299160374
   3     235.1105725000      0.1008649584
   4      90.7028894000      0.2370970548
   5      36.7794552000      0.3924037254
   6      15.6046273000      0.3195862154
   7       6.8907294000      0.0530104441
 S 1 
   1       3.1478850000     -1.0000000000
 S 1 
   1       1.4777287000      1.0000000000
 S 1 
   1       0.7076466000      1.0000000000
 S 1 
   1       0.3430122000      1.0000000000
 S 1 
   1       0.1669453000      1.0000000000
 P 2 
   1      13.5472892000     -0.6769313712
   2       5.4669419000     -0.3779500978
 P 1 
   1       2.1751721000      1.0000000000
 P 1 
   1       0.8582194000      1.0000000000
 P 1 
   1       0.3376720000      1.0000000000
 D 2 
   1       5.9287253000     -0.3533329857
   2       1.9809209000     -0.7456525731
 D 1 
   1       0.8055417000     -1.0000000000
 D 1 
   1       0.3531244000     -1.0000000000
 F 2 
   1       1.6755626000      0.6311076882
   2       0.5997536000      0.4968166032
 G 1 
   1       1.0024600000     -1.0000000000
  end;

 # Auxiliary/J basis set for element : O 
 NewAuxJGTO O 
 S 7 
   1    2876.8216605000      0.0168151159
   2    1004.7443032000      0.0340137548
   3     369.7579954000      0.1194951309
   4     142.9442404000      0.2664627624
   5      57.8366425000      0.4202764046
   6      24.3864983000      0.2765077335
   7      10.6622662000      0.0057008815
 S 1 
   1       4.8070437000     -1.0000000000
 S 1 
   1       2.2210770000      1.0000000000
 S 1 
   1       1.0447795000      1.0000000000
 S 1 
   1       0.4968425000      1.0000000000
 S 1 
   1       0.2371384000      1.0000000000
 P 2 
   1      64.2613382000     -0.2731534179
   2      16.3006076000     -0.8168011598
 P 1 
   1       4.3550542000      1.0000000000
 P 1 
   1       1.2019554000      1.0000000000
 P 1 
   1       0.3354196000      1.0000000000
 D 2 
   1       9.2146611000     -0.4661230638
   2       2.8435251000     -0.6600908911
 D 1 
   1       0.9955759000     -1.0000000000
 D 1 
   1       0.3649441000     -1.0000000000
 F 2 
   1       2.6420115000      0.5931563945
   2       0.7345613000      0.5931563945
 G 1 
   1       1.3931000000     -1.0000000000
  end;



           ************************************************************
           *        Program running with 4 parallel MPI-processes     *
           *              working on a common directory               *
           ************************************************************
------------------------------------------------------------------------------
                             ORCA STARTUP CALCULATIONS
                           -- RI-GTO INTEGRALS CHOSEN --
------------------------------------------------------------------------------
------------------------------------------------------------------------------
                   ___                                                        
                  /   \      - P O W E R E D   B Y -                         
                 /     \                                                     
                 |  |  |   _    _      __       _____    __    __             
                 |  |  |  | |  | |    /  \     |  _  \  |  |  /  |          
                  \  \/   | |  | |   /    \    | | | |  |  | /  /          
                 / \  \   | |__| |  /  /\  \   | |_| |  |  |/  /          
                |  |  |   |  __  | /  /__\  \  |    /   |      \           
                |  |  |   | |  | | |   __   |  |    \   |  |\   \          
                \     /   | |  | | |  |  |  |  | |\  \  |  | \   \       
                 \___/    |_|  |_| |__|  |__|  |_| \__\ |__|  \__/        
                                                                              
                      - O R C A' S   B I G   F R I E N D -                    
                                      &                                       
                       - I N T E G R A L  F E E D E R -                       
                                                                              
 v1 FN, 2020, v2 2021, v3 2022-2024                                           
------------------------------------------------------------------------------


----------------------
SHARK INTEGRAL PACKAGE
----------------------

Number of atoms                             ...     73
Number of basis functions                   ...    626
Number of shells                            ...    306
Maximum angular momentum                    ...      2
Integral batch strategy                     ... SHARK/LIBINT Hybrid
RI-J (if used) integral strategy            ... SPLIT-RIJ (Revised 2003 algorithm where possible)
Printlevel                                  ...      1
Contraction scheme used                     ... SEGMENTED contraction
Prescreening option                         ... SCHWARTZ
   Thresh                                   ... 3.000e-11
   Tcut                                     ... 1.000e-12
   Tpresel                                  ... 1.000e-12 
Coulomb Range Separation                    ... NOT USED
Exchange Range Separation                   ... Long Range
   Mu parameter                             ... 3.000e-01
   Scaling (regular/separated)              ... 1.670e-01 8.330e-01
Multipole approximations                    ... NOT USED
Finite Nucleus Model                        ... NOT USED
CABS basis                                  ... NOT available
Auxiliary Coulomb fitting basis             ... AVAILABLE
   # of basis functions in Aux-J            ...   1905
   # of shells in Aux-J                     ...    655
   Maximum angular momentum in Aux-J        ...      4
Auxiliary J/K fitting basis                 ... NOT available
Auxiliary Correlation fitting basis         ... NOT available
Auxiliary 'external' fitting basis          ... NOT available

Checking pre-screening integrals            ... done (  0.0 sec) Dimension = 306
Check shell pair data                       ... done (  0.0 sec)
Shell pair information
Shell pair cut-off parameter TPreSel        ...   1.0e-12
Total number of shell pairs                 ...     46971
Shell pairs after pre-screening             ...     27888
Total number of primitive shell pairs       ...    162105
Primitive shell pairs kept                  ...     61383
          la=0 lb=0:   9769 shell pairs
          la=1 lb=0:  10694 shell pairs
          la=1 lb=1:   2951 shell pairs
          la=2 lb=0:   2792 shell pairs
          la=2 lb=1:   1485 shell pairs
          la=2 lb=2:    197 shell pairs

Calculating one electron integrals          ... done (  0.1 sec)
Calculating RI/J V-Matrix + Cholesky decomp.... done (  0.2 sec)
Calculating Nuclear repulsion               ... done (  0.0 sec) ENN=   2798.406840549321 Eh

Diagonalization of the overlap matrix:
Smallest eigenvalue                        ... 4.568e-04
Time for diagonalization                   ...    0.050 sec
Threshold for overlap eigenvalues          ... 1.000e-07
Number of eigenvalues below threshold      ... 0
Time for construction of square roots      ...    0.030 sec
Total time needed                          ...    0.083 sec

-------------------
DFT GRID GENERATION
-------------------

General Integration Accuracy     IntAcc      ... 4.388
Radial Grid Type                 RadialGrid  ... OptM3 with GC (2021)
Angular Grid (max. ang.)         AngularGrid ... 4 (Lebedev-302)
Angular grid pruning method      GridPruning ... 4 (adaptive)
Weight generation scheme         WeightScheme... mBecke (2022)
Basis function cutoff            BFCut       ... 1.0000e-11
Integration weight cutoff        WCut        ... 1.0000e-14
Partially contracted basis set               ... off
Rotationally invariant grid construction     ... off
Angular grids for H and He will be reduced by one unit

Total number of grid points                  ...   309841
Total number of batches                      ...     4877
Average number of points per batch           ...       63
Average number of grid points per atom       ...     4244

--------------------
COSX GRID GENERATION
--------------------

GRIDX 1
-------
General Integration Accuracy     IntAcc      ... 3.816
Radial Grid Type                 RadialGrid  ... OptM3 with GC (2021)
Angular Grid (max. ang.)         AngularGrid ... 1 (Lebedev-50)
Angular grid pruning method      GridPruning ... 4 (adaptive)
Weight generation scheme         WeightScheme... mBecke (2022)
Basis function cutoff            BFCut       ... 1.0000e-11
Integration weight cutoff        WCut        ... 1.0000e-14
Partially contracted basis set               ... on
Rotationally invariant grid construction     ... off
Angular grids for H and He will be reduced by one unit

Total number of grid points                  ...    39387
Total number of batches                      ...      352
Average number of points per batch           ...      111
Average number of grid points per atom       ...      540
UseSFitting                                  ... on

GRIDX 2
-------
General Integration Accuracy     IntAcc      ... 4.020
Radial Grid Type                 RadialGrid  ... OptM3 with GC (2021)
Angular Grid (max. ang.)         AngularGrid ... 2 (Lebedev-110)
Angular grid pruning method      GridPruning ... 4 (adaptive)
Weight generation scheme         WeightScheme... mBecke (2022)
Basis function cutoff            BFCut       ... 1.0000e-11
Integration weight cutoff        WCut        ... 1.0000e-14
Partially contracted basis set               ... on
Rotationally invariant grid construction     ... off
Angular grids for H and He will be reduced by one unit

Total number of grid points                  ...    81329
Total number of batches                      ...      679
Average number of points per batch           ...      119
Average number of grid points per atom       ...     1114
UseSFitting                                  ... on

GRIDX 3
-------
General Integration Accuracy     IntAcc      ... 4.338
Radial Grid Type                 RadialGrid  ... OptM3 with GC (2021)
Angular Grid (max. ang.)         AngularGrid ... 3 (Lebedev-194)
Angular grid pruning method      GridPruning ... 4 (adaptive)
Weight generation scheme         WeightScheme... mBecke (2022)
Basis function cutoff            BFCut       ... 1.0000e-11
Integration weight cutoff        WCut        ... 1.0000e-14
Partially contracted basis set               ... on
Rotationally invariant grid construction     ... off
Angular grids for H and He will be reduced by one unit

Total number of grid points                  ...   176126
Total number of batches                      ...     1417
Average number of points per batch           ...      124
Average number of grid points per atom       ...     2413
UseSFitting                                  ... on
Initializing property integral containers    ... done (  0.0 sec)

SHARK setup successfully completed in   4.4 seconds

Maximum memory used throughout the entire STARTUP-calculation: 96.1 MB


           ************************************************************
           *        Program running with 4 parallel MPI-processes     *
           *              working on a common directory               *
           ************************************************************
-------------------------------------------------------------------------------
                                 ORCA GUESS
                   Start orbitals & Density for SCF / CASSCF
-------------------------------------------------------------------------------

------------
SCF SETTINGS
------------
Hamiltonian:
 Density Functional     Method          .... DFT(GTOs)
 Exchange Functional    Exchange        .... WB97X-V
 Correlation Functional Correlation     .... WB97X-V
 Gradients option       PostSCFGGA      .... off
 Hybrid DFT is turned on
   Fraction HF Exchange ScalHFX         ....  0.167000
   Scaling of DF-GGA-X  ScalDFX         ....  0.000000
   Scaling of DF-GGA-C  ScalDFC         ....  1.000000
   Scaling of DF-LDA-C  ScalLDAC        ....  1.000000
   Perturbative correction              ....  0.000000
 Long-range corrected/Screened/Range-Separated Hybrid DFT is turned on
   Amount of maximum screened exact exchange              ....  0.833000
   Range separation parameter mu (erf(mu*r12)/r12)        ....  0.300000
 RI-approximation to the Coulomb term is turned on
   Number of AuxJ basis functions       .... 1905
   RIJ-COSX (HFX calculated with COS-X)).... on


General Settings:
 Integral files         IntName         .... inpS
 Hartree-Fock type      HFTyp           .... RHF
 Total Charge           Charge          ....    0
 Multiplicity           Mult            ....    1
 Number of Electrons    NEL             ....  220
 Basis Dimension        Dim             ....  626
 Nuclear Repulsion      ENuc            ....   2798.4068405493 Eh

Convergence Acceleration:
 AO-DIIS                CNVDIIS         .... on
   Start iteration      DIISMaxIt       ....    12
   Startup error        DIISStart       ....  0.200000
   # of expansion vecs  DIISMaxEq       ....     5
   Bias factor          DIISBfac        ....   1.050
   Max. coefficient     DIISMaxC        ....  10.000
 MO-DIIS                CNVKDIIS        .... off
 Trust-Rad. Augm. Hess. CNVTRAH         .... auto
   Auto Start mean grad. ratio tolernc. ....  1.125000
   Auto Start start iteration           ....    50
   Auto Start num. interpolation iter.  ....    10
   Max. Number of Micro iterations      ....    24
   Max. Number of Macro iterations      .... Maxiter - #DIIS iter
   Number of Davidson start vectors     ....     2
   Converg. threshold    (grad. norm)   ....   1.000e-04
   Grad. Scal. Fac. for Micro threshold ....   0.100
   Minimum threshold for Micro iter.    ....   1.000e-02
   NR start threshold (gradient norm)   ....   1.000e-04
   Initial trust radius                 ....   0.400
   Minimum AH scaling param. (alpha)    ....   1.000
   Maximum AH scaling param. (alpha)    .... 1000.000
   Quad. conv. algorithm                .... NR
   White noise on init. David. guess    .... on
   Maximum white noise                  ....   0.010
   Pseudo random numbers                .... off
   Inactive MOs                         .... canonical
   Orbital update algorithm             .... Taylor
   Preconditioner                       .... Diag
   Full preconditioner red. dimension   ....   250
 SOSCF                  CNVSOSCF        .... off
 Level Shifting         CNVShift        .... on
   Level shift para.    LevelShift      ....    0.2500
   Turn off err/grad.   ShiftErr        ....    0.0010
 Zerner damping         CNVZerner       .... off
 Static damping         CNVDamp         .... on
   Fraction old density DampFac         ....    0.7000
   Max. Damping (<1)    DampMax         ....    0.9800
   Min. Damping (>=0)   DampMin         ....    0.0000
   Turn off err/grad.   DampErr         ....    0.1000

SCF Procedure:
 Maximum # iterations   MaxIter         ....   125
 SCF integral mode      SCFMode         .... Direct
   Integral package                     .... SHARK and LIBINT hybrid scheme
 Reset frequency        DirectResetFreq ....    20
 Integral Threshold     Thresh          ....  3.000e-11 Eh
 Primitive CutOff       TCut            ....  1.000e-12 Eh

Convergence Tolerance:
 Convergence Check Mode ConvCheckMode   .... Total+1el-Energy
 Convergence forced     ConvForced      .... 0
 Energy Change          TolE            ....  1.000e-07 Eh
 1-El. energy change                    ....  1.000e-04 Eh
 DIIS Error             TolErr          ....  1.000e-07

------------------------------
INITIAL GUESS: MODEL POTENTIAL
------------------------------
Loading Hartree-Fock densities                     ... done
Calculating cut-offs                               ... done
Initializing the effective Hamiltonian             ... done
Setting up the integral package (SHARK)            ... done
Starting the Coulomb interaction                   ... done (   0.6 sec)
Making the grid                                    ... done (   0.4 sec)
Mapping shells                                     ... done
Starting the XC term evaluation                    ... done (   0.2 sec)
  promolecular density results
     # of electrons  =    219.985910240
     EX              =   -109.112908318
     EC              =     -8.882412673
     EX+EC           =   -117.995320991
Transforming the Hamiltonian                       ... done (   0.0 sec)
Diagonalizing the Hamiltonian                      ... done (   0.0 sec)
Back transforming the eigenvectors                 ... done (   0.0 sec)
Now organizing SCF variables                       ... done
                      ------------------
                      INITIAL GUESS DONE (   1.4 sec)
                      ------------------
             **** ENERGY FILE WAS UPDATED (inpS.en.tmp) ****
Finished Guess after   1.5 sec
Maximum memory used throughout the entire GUESS-calculation: 56.9 MB


           ************************************************************
           *        Program running with 4 parallel MPI-processes     *
           *              working on a common directory               *
           ************************************************************

-------------------------------------------------------------------------------------------
                                      ORCA LEAN-SCF
                              memory conserving SCF solver
-------------------------------------------------------------------------------------------

--------------------
CPCM SOLVATION MODEL
--------------------
CPCM parameters:
  Epsilon                                         ...       4.8030
  Refrac                                          ...       1.4459
  Rsolv                                           ...       1.3000
  Surface type                                    ... GAUSSIAN VDW
  Discretization scheme                           ... Constant charge density
    Threshold for H atoms                         ...       5.0000 (charges/Ang^2)
    Threshold for non-H atoms                     ...       5.0000 (charges/Ang^2)
  Epsilon function type                           ...         CPCM
Solvent:                                          ... CHLOROFORM
Radii:
  Scheme                                          ... Element-dependent radii
  Radius for C  used is    3.8550 Bohr (=   2.0400 Ang.)
  Radius for H  used is    2.4944 Bohr (=   1.3200 Ang.)
  Radius for O  used is    3.4469 Bohr (=   1.8240 Ang.)
Calculating surface                               ...        done! (  0.0s)
Cavity surface points                             ...         5353
Cavity Volume                                     ...    3609.5660
Cavity Surface-area                               ...    1784.3051
Calculating surface distance matrix               ...        done! (  0.2s)
Performing Cholesky decomposition & store         ...        done! (  0.9s)
Overall time for CPCM initialization              ...                 1.1s

----------------------------------------D-I-I-S--------------------------------------------
Iteration    Energy (Eh)           Delta-E    RMSDP     MaxDP     DIISErr   Damp  Time(sec)
-------------------------------------------------------------------------------------------
               ***  Starting incremental Fock matrix formation  ***
    1    -1168.2247612906944596     0.00e+00  7.22e-04  5.68e-02  5.65e-02  0.700  24.3

  HOMO= 109 E= -7.436 eV LUMO=  8.206 eV gap=  15.641 eV
    2    -1168.2677837249780168    -4.30e-02  6.06e-04  4.62e-02  3.93e-02  0.700  11.0

  HOMO= 109 E= -7.587 eV LUMO=  8.150 eV gap=  15.737 eV
                               ***Turning on AO-DIIS***
    3    -1168.2952019794929583    -2.74e-02  4.80e-04  3.71e-02  2.71e-02  0.700  10.9

  HOMO= 109 E= -7.877 eV LUMO=  8.010 eV gap=  15.887 eV
    4    -1168.3135653673525667    -1.84e-02  1.25e-03  9.37e-02  1.91e-02  0.000  10.7

  HOMO= 109 E= -7.927 eV LUMO=  8.003 eV gap=  15.930 eV
    5    -1168.3579903051181645    -4.44e-02  1.30e-04  5.31e-03  3.27e-03  0.000  11.9

  HOMO= 109 E= -7.939 eV LUMO=  8.039 eV gap=  15.978 eV
    6    -1168.3583531765521002    -3.63e-04  5.11e-05  1.78e-03  1.89e-03  0.000  10.1

  HOMO= 109 E= -7.938 eV LUMO=  8.061 eV gap=  15.998 eV
    7    -1168.3584170319381883    -6.39e-05  2.59e-05  9.89e-04  1.18e-03  0.000   9.3

  HOMO= 109 E= -7.950 eV LUMO=  8.061 eV gap=  16.011 eV
    8    -1168.3584367132793886    -1.97e-05  1.22e-05  6.01e-04  6.31e-04  0.000   8.5

  HOMO= 109 E= -7.952 eV LUMO=  8.066 eV gap=  16.019 eV
               *** Restarting incremental Fock matrix formation ***
                             ****Resetting DIIS****
    9    -1168.3584508577087036    -1.41e-05  6.61e-06  3.88e-04  3.33e-04  0.000  24.1

  HOMO= 109 E= -7.953 eV LUMO=  1.264 eV gap=   9.217 eV
   10    -1168.3584523989925401    -1.54e-06  3.48e-06  2.16e-04  1.45e-04  0.000  13.6

  HOMO= 109 E= -7.955 eV LUMO=  1.265 eV gap=   9.220 eV
   11    -1168.3584526844429092    -2.85e-07  1.21e-06  6.50e-05  8.58e-05  0.000  11.5

  HOMO= 109 E= -7.955 eV LUMO=  1.266 eV gap=   9.221 eV
   12    -1168.3584527462921869    -6.18e-08  3.30e-07  1.94e-05  1.74e-05  0.000   9.3
                 **** Energy Check signals convergence ****

  HOMO= 109 E= -7.955 eV LUMO=  1.266 eV gap=   9.222 eV

               *****************************************************
               *                     SUCCESS                       *
               *           SCF CONVERGED AFTER  12 CYCLES          *
               *****************************************************

Recomputing exchange energy using gridx3       ... done (   41.363 sec)
Old exchange energy                            :    -56.782352869 Eh
New exchange energy                            :    -56.782358631 Eh
Exchange energy change after final integration :     -0.000005762 Eh
Total energy after final integration           :  -1168.358458509 Eh
             **** ENERGY FILE WAS UPDATED (inpS.en.tmp) ****

----------------
TOTAL SCF ENERGY
----------------

Total Energy       :      -1168.35845850873943 Eh          -31792.64996 eV

Components:
Nuclear Repulsion  :       2798.40684054932126 Eh           76148.52145 eV
Electronic Energy  :      -3966.75597914716536 Eh         -107940.91780 eV
One Electron Energy:      -7141.86779219050550 Eh         -194340.10269 eV
Two Electron Energy:       3175.11181304334013 Eh           86399.18488 eV
CPCM Dielectric    :         -0.00931414844799 Eh              -0.25345 eV

Virial components:
Potential Energy   :      -2321.65072742123266 Eh          -63175.32806 eV
Kinetic Energy     :       1153.29226891249300 Eh           31382.67810 eV
Virial Ratio       :          2.01306363530075

DFT components:
N(Alpha)           :      110.000123856514 electrons
N(Beta)            :      110.000123856514 electrons
N(Total)           :      220.000247713028 electrons
E(X)               :     -111.767705931689 Eh       
E(C)               :       -8.951492973563 Eh       
E(XC)              :     -120.719198905251 Eh       

CPCM Solvation Model Properties:
Surface-charge          :         -0.04173366325300
Corrected charge        :          0.00000000000000
Outlying charge corr.   :          0.00006138136315 Eh               0.00167 eV
Free-energy (cav+disp)  :  This term is not implemented in the current solvation scheme

---------------
SCF CONVERGENCE
---------------

  Last Energy change         ...    6.1849e-08  Tolerance :   1.0000e-07
  Last MAX-Density change    ...    1.9402e-05  Tolerance :   1.0000e-05
  Last RMS-Density change    ...    3.2954e-07  Tolerance :   1.0000e-06
  Last DIIS Error            ...    1.7365e-05  Tolerance :   1.0000e-07


----------------
ORBITAL ENERGIES
----------------

  NO   OCC          E(Eh)            E(eV) 
   0   2.0000     -19.212378      -522.7954 
   1   2.0000     -10.330265      -281.1008 
   2   2.0000     -10.294174      -280.1187 
   3   2.0000     -10.291894      -280.0567 
   4   2.0000     -10.287423      -279.9350 
   5   2.0000     -10.286552      -279.9113 
   6   2.0000     -10.285385      -279.8795 
   7   2.0000     -10.284111      -279.8449 
   8   2.0000     -10.284064      -279.8436 
   9   2.0000     -10.282878      -279.8113 
  10   2.0000     -10.281631      -279.7774 
  11   2.0000     -10.281303      -279.7685 
  12   2.0000     -10.279206      -279.7114 
  13   2.0000     -10.278059      -279.6802 
  14   2.0000     -10.277589      -279.6674 
  15   2.0000     -10.277423      -279.6629 
  16   2.0000     -10.277245      -279.6580 
  17   2.0000     -10.276976      -279.6507 
  18   2.0000     -10.274828      -279.5923 
  19   2.0000     -10.272996      -279.5424 
  20   2.0000     -10.272463      -279.5279 
  21   2.0000     -10.272219      -279.5213 
  22   2.0000     -10.271274      -279.4956 
  23   2.0000     -10.270749      -279.4813 
  24   2.0000     -10.269876      -279.4575 
  25   2.0000     -10.269711      -279.4530 
  26   2.0000     -10.267493      -279.3927 
  27   2.0000     -10.267331      -279.3883 
  28   2.0000     -10.267228      -279.3855 
  29   2.0000      -1.130906       -30.7735 
  30   2.0000      -0.998565       -27.1723 
  31   2.0000      -0.977165       -26.5900 
  32   2.0000      -0.956644       -26.0316 
  33   2.0000      -0.942424       -25.6447 
  34   2.0000      -0.917268       -24.9601 
  35   2.0000      -0.910606       -24.7789 
  36   2.0000      -0.889698       -24.2099 
  37   2.0000      -0.888053       -24.1652 
  38   2.0000      -0.873063       -23.7573 
  39   2.0000      -0.853622       -23.2282 
  40   2.0000      -0.836881       -22.7727 
  41   2.0000      -0.830854       -22.6087 
  42   2.0000      -0.809512       -22.0280 
  43   2.0000      -0.801587       -21.8123 
  44   2.0000      -0.796870       -21.6839 
  45   2.0000      -0.791342       -21.5335 
  46   2.0000      -0.760566       -20.6961 
  47   2.0000      -0.751718       -20.4553 
  48   2.0000      -0.725083       -19.7305 
  49   2.0000      -0.712935       -19.4000 
  50   2.0000      -0.704602       -19.1732 
  51   2.0000      -0.698882       -19.0176 
  52   2.0000      -0.689248       -18.7554 
  53   2.0000      -0.678577       -18.4650 
  54   2.0000      -0.654683       -17.8148 
  55   2.0000      -0.636772       -17.3275 
  56   2.0000      -0.630592       -17.1593 
  57   2.0000      -0.619798       -16.8656 
  58   2.0000      -0.607426       -16.5289 
  59   2.0000      -0.598377       -16.2827 
  60   2.0000      -0.592139       -16.1129 
  61   2.0000      -0.584532       -15.9059 
  62   2.0000      -0.571320       -15.5464 
  63   2.0000      -0.568910       -15.4808 
  64   2.0000      -0.560673       -15.2567 
  65   2.0000      -0.556886       -15.1536 
  66   2.0000      -0.555501       -15.1159 
  67   2.0000      -0.550230       -14.9725 
  68   2.0000      -0.548670       -14.9301 
  69   2.0000      -0.542049       -14.7499 
  70   2.0000      -0.537832       -14.6352 
  71   2.0000      -0.527964       -14.3666 
  72   2.0000      -0.523723       -14.2512 
  73   2.0000      -0.519916       -14.1476 
  74   2.0000      -0.518677       -14.1139 
  75   2.0000      -0.513409       -13.9706 
  76   2.0000      -0.508086       -13.8257 
  77   2.0000      -0.500825       -13.6281 
  78   2.0000      -0.499704       -13.5976 
  79   2.0000      -0.493874       -13.4390 
  80   2.0000      -0.489802       -13.3282 
  81   2.0000      -0.487779       -13.2732 
  82   2.0000      -0.484686       -13.1890 
  83   2.0000      -0.478290       -13.0149 
  84   2.0000      -0.477160       -12.9842 
  85   2.0000      -0.467504       -12.7214 
  86   2.0000      -0.464316       -12.6347 
  87   2.0000      -0.462568       -12.5871 
  88   2.0000      -0.460673       -12.5355 
  89   2.0000      -0.453386       -12.3373 
  90   2.0000      -0.449185       -12.2229 
  91   2.0000      -0.445626       -12.1261 
  92   2.0000      -0.441032       -12.0011 
  93   2.0000      -0.434378       -11.8200 
  94   2.0000      -0.428360       -11.6563 
  95   2.0000      -0.424786       -11.5590 
  96   2.0000      -0.422731       -11.5031 
  97   2.0000      -0.420954       -11.4547 
  98   2.0000      -0.416695       -11.3388 
  99   2.0000      -0.412342       -11.2204 
 100   2.0000      -0.410231       -11.1629 
 101   2.0000      -0.406079       -11.0500 
 102   2.0000      -0.403682       -10.9848 
 103   2.0000      -0.397904       -10.8275 
 104   2.0000      -0.392362       -10.6767 
 105   2.0000      -0.380126       -10.3438 
 106   2.0000      -0.372617       -10.1394 
 107   2.0000      -0.355759        -9.6807 
 108   2.0000      -0.336452        -9.1553 
 109   2.0000      -0.292356        -7.9554 
 110   0.0000       0.046535         1.2663 
 111   0.0000       0.099529         2.7083 
 112   0.0000       0.108004         2.9389 
 113   0.0000       0.132010         3.5922 
 114   0.0000       0.137878         3.7519 
 115   0.0000       0.144068         3.9203 
 116   0.0000       0.148001         4.0273 
 117   0.0000       0.157010         4.2725 
 118   0.0000       0.160211         4.3596 
 119   0.0000       0.165023         4.4905 
 120   0.0000       0.168271         4.5789 
*Only the first 10 virtual orbitals were printed.

                    ********************************
                    * MULLIKEN POPULATION ANALYSIS *
                    ********************************

-----------------------
MULLIKEN ATOMIC CHARGES
-----------------------
   0 C :   -0.174267
   1 C :    0.142431
   2 C :    0.068399
   3 H :    0.017126
   4 H :    0.030756
   5 C :   -0.169653
   6 C :    0.094730
   7 C :    0.023895
   8 H :    0.013735
   9 H :    0.027405
  10 H :    0.019945
  11 H :    0.022620
  12 O :   -0.359179
  13 H :    0.018189
  14 C :   -0.009042
  15 C :   -0.047125
  16 H :    0.035486
  17 H :    0.029370
  18 C :   -0.061805
  19 H :   -0.002101
  20 C :   -0.114138
  21 H :    0.003442
  22 C :    0.114205
  23 C :   -0.001718
  24 H :    0.014311
  25 H :    0.016554
  26 C :    0.106559
  27 H :    0.013117
  28 H :    0.015674
  29 C :   -0.410475
  30 H :    0.009144
  31 H :   -0.002431
  32 C :   -0.041561
  33 H :    0.010583
  34 C :    0.121008
  35 H :    0.178989
  36 C :    0.070322
  37 H :    0.006967
  38 H :    0.015207
  39 C :   -0.039254
  40 H :    0.009100
  41 H :    0.000268
  42 H :   -0.008386
  43 C :   -0.042586
  44 C :    0.090987
  45 H :    0.019815
  46 H :    0.024570
  47 H :    0.018684
  48 H :    0.000191
  49 C :    0.052957
  50 C :   -0.052644
  51 C :   -0.072544
  52 H :    0.020402
  53 H :    0.004626
  54 C :   -0.040645
  55 C :    0.017097
  56 C :   -0.151650
  57 H :    0.017033
  58 H :    0.009641
  59 C :    0.022144
  60 C :    0.035274
  61 H :    0.024066
  62 H :    0.019575
  63 H :    0.020594
  64 H :    0.019026
  65 H :    0.011755
  66 H :    0.016899
  67 H :    0.014489
  68 H :    0.016849
  69 H :    0.015530
  70 H :    0.030719
  71 H :    0.012552
  72 H :    0.016192
Sum of atomic charges:    0.0000000

--------------------------------
MULLIKEN REDUCED ORBITAL CHARGES
--------------------------------
  0 C s       :     3.102520  s :     3.102520
      pz      :     1.015858  p :     3.028742
      px      :     1.005183
      py      :     1.007701
      dz2     :     0.005019  d :     0.043005
      dxz     :     0.006334
      dyz     :     0.005950
      dx2y2   :     0.014083
      dxy     :     0.011619

  1 C s       :     2.939240  s :     2.939240
      pz      :     0.989828  p :     2.883938
      px      :     0.929243
      py      :     0.964867
      dz2     :     0.008028  d :     0.034391
      dxz     :     0.006516
      dyz     :     0.003898
      dx2y2   :     0.009953
      dxy     :     0.005997

  2 C s       :     3.085201  s :     3.085201
      pz      :     0.737122  p :     2.775748
      px      :     1.048197
      py      :     0.990430
      dz2     :     0.022881  d :     0.070652
      dxz     :     0.011277
      dyz     :     0.017649
      dx2y2   :     0.011738
      dxy     :     0.007107

  3 H s       :     0.960217  s :     0.960217
      pz      :     0.004960  p :     0.022657
      px      :     0.003792
      py      :     0.013905

  4 H s       :     0.945932  s :     0.945932
      pz      :     0.014323  p :     0.023311
      px      :     0.004544
      py      :     0.004445

  5 C s       :     3.108624  s :     3.108624
      pz      :     0.975541  p :     3.016237
      px      :     0.985405
      py      :     1.055290
      dz2     :     0.009367  d :     0.044792
      dxz     :     0.005503
      dyz     :     0.008780
      dx2y2   :     0.011097
      dxy     :     0.010044

  6 C s       :     2.955746  s :     2.955746
      pz      :     1.003418  p :     2.914072
      px      :     0.947000
      py      :     0.963654
      dz2     :     0.009012  d :     0.035452
      dxz     :     0.006109
      dyz     :     0.004175
      dx2y2   :     0.008881
      dxy     :     0.007274

  7 C s       :     3.002674  s :     3.002674
      pz      :     0.985566  p :     2.938644
      px      :     0.980737
      py      :     0.972340
      dz2     :     0.007692  d :     0.034787
      dxz     :     0.006081
      dyz     :     0.004471
      dx2y2   :     0.008654
      dxy     :     0.007889

  8 H s       :     0.963433  s :     0.963433
      pz      :     0.005595  p :     0.022832
      px      :     0.003849
      py      :     0.013388

  9 H s       :     0.949193  s :     0.949193
      pz      :     0.014462  p :     0.023402
      px      :     0.004527
      py      :     0.004413

 10 H s       :     0.957232  s :     0.957232
      pz      :     0.014071  p :     0.022823
      px      :     0.004570
      py      :     0.004181

 11 H s       :     0.954753  s :     0.954753
      pz      :     0.007967  p :     0.022627
      px      :     0.007210
      py      :     0.007449

 12 O s       :     3.713588  s :     3.713588
      pz      :     1.403759  p :     4.633450
      px      :     1.348529
      py      :     1.881163
      dz2     :     0.005308  d :     0.012141
      dxz     :     0.001418
      dyz     :     0.001644
      dx2y2   :     0.003191
      dxy     :     0.000580

 13 H s       :     0.961462  s :     0.961462
      pz      :     0.001936  p :     0.020349
      px      :     0.014236
      py      :     0.004177

 14 C s       :     3.194441  s :     3.194441
      pz      :     0.992671  p :     2.778245
      px      :     0.869986
      py      :     0.915588
      dz2     :     0.004027  d :     0.036356
      dxz     :     0.007442
      dyz     :     0.003363
      dx2y2   :     0.010970
      dxy     :     0.010554

 15 C s       :     3.124625  s :     3.124625
      pz      :     1.008170  p :     2.896241
      px      :     0.982493
      py      :     0.905578
      dz2     :     0.005216  d :     0.026259
      dxz     :     0.004122
      dyz     :     0.004404
      dx2y2   :     0.006572
      dxy     :     0.005945

 16 H s       :     0.939973  s :     0.939973
      pz      :     0.006888  p :     0.024540
      px      :     0.008279
      py      :     0.009373

 17 H s       :     0.946017  s :     0.946017
      pz      :     0.004767  p :     0.024613
      px      :     0.004476
      py      :     0.015370

 18 C s       :     3.199579  s :     3.199579
      pz      :     1.029255  p :     2.827059
      px      :     0.880188
      py      :     0.917615
      dz2     :     0.003444  d :     0.035167
      dxz     :     0.006538
      dyz     :     0.003342
      dx2y2   :     0.012049
      dxy     :     0.009793

 19 H s       :     0.977785  s :     0.977785
      pz      :     0.004614  p :     0.024316
      px      :     0.005014
      py      :     0.014688

 20 C s       :     3.100499  s :     3.100499
      pz      :     0.958912  p :     2.969514
      px      :     0.987998
      py      :     1.022604
      dz2     :     0.004180  d :     0.044126
      dxz     :     0.006935
      dyz     :     0.007169
      dx2y2   :     0.014360
      dxy     :     0.011483

 21 H s       :     0.971975  s :     0.971975
      pz      :     0.004569  p :     0.024583
      px      :     0.004520
      py      :     0.015495

 22 C s       :     2.926569  s :     2.926569
      pz      :     0.999704  p :     2.923705
      px      :     0.976501
      py      :     0.947500
      dz2     :     0.009348  d :     0.035521
      dxz     :     0.004288
      dyz     :     0.005952
      dx2y2   :     0.009894
      dxy     :     0.006039

 23 C s       :     3.000420  s :     3.000420
      pz      :     1.013303  p :     2.964819
      px      :     0.965164
      py      :     0.986351
      dz2     :     0.010004  d :     0.036479
      dxz     :     0.007447
      dyz     :     0.002997
      dx2y2   :     0.010319
      dxy     :     0.005712

 24 H s       :     0.962489  s :     0.962489
      pz      :     0.005010  p :     0.023200
      px      :     0.013603
      py      :     0.004586

 25 H s       :     0.960185  s :     0.960185
      pz      :     0.013611  p :     0.023261
      px      :     0.004685
      py      :     0.004966

 26 C s       :     2.969149  s :     2.969149
      pz      :     0.968527  p :     2.888957
      px      :     0.974099
      py      :     0.946332
      dz2     :     0.007005  d :     0.035335
      dxz     :     0.006499
      dyz     :     0.005798
      dx2y2   :     0.008659
      dxy     :     0.007374

 27 H s       :     0.964029  s :     0.964029
      pz      :     0.013731  p :     0.022854
      px      :     0.004231
      py      :     0.004892

 28 H s       :     0.961686  s :     0.961686
[...]
 Total          139.698          173.775          192.189  iso=     168.554

 Orientation: 
  X           0.2194229   -0.5056535    0.8343669
  Y          -0.1879905   -0.8610951   -0.4724137
  Z           0.9573469   -0.0531947   -0.2840021

 --------------
 Nucleus  39C :
 --------------

Diamagnetic contribution to the shielding tensor (ppm) : 
           264.890          3.964        -6.923
             3.914        259.095         9.726
            -6.958          8.475       263.240

Paramagnetic contribution to the shielding tensor (ppm): 
           -99.716         -0.474        10.858
             3.401       -124.738        -3.947
            15.548         -5.429      -132.940

Total shielding tensor (ppm): 
           165.174          3.490         3.935
             7.315        134.358         5.779
             8.590          3.047       130.301


 Diagonalized sT*s matrix:
 
 sDSO           255.603          267.453          264.170  iso=     262.409
 sPSO          -128.306         -132.308          -96.780  iso=    -119.131
        ---------------  ---------------  ---------------
 Total          127.297          135.145          167.390  iso=     143.277

 Orientation: 
  X          -0.0707114   -0.2399438   -0.9682081
  Y          -0.4918504    0.8528238   -0.1754276
  Z           0.8678036    0.4638088   -0.1783208

 --------------
 Nucleus  43C :
 --------------

Diamagnetic contribution to the shielding tensor (ppm) : 
           258.409         -1.440        -5.822
            -3.559        244.206        10.814
            -9.684         15.186       248.093

Paramagnetic contribution to the shielding tensor (ppm): 
           -95.419         -0.875         6.583
             8.226        -95.113        -9.311
            12.357        -14.536       -95.388

Total shielding tensor (ppm): 
           162.990         -2.315         0.760
             4.666        149.094         1.503
             2.673          0.650       152.704


 Diagonalized sT*s matrix:
 
 sDSO           238.323          256.905          255.481  iso=     250.236
 sPSO           -89.559         -104.273          -92.089  iso=     -95.307
        ---------------  ---------------  ---------------
 Total          148.764          152.632          163.392  iso=     154.929

 Orientation: 
  X           0.0398762    0.1791201    0.9830188
  Y          -0.9685854   -0.2347499    0.0820655
  Z           0.2454632   -0.9554101    0.1641322

 --------------
 Nucleus  44C :
 --------------

Diamagnetic contribution to the shielding tensor (ppm) : 
           250.440          0.243         0.664
            -0.946        254.922         0.058
            -0.988          4.566       273.097

Paramagnetic contribution to the shielding tensor (ppm): 
           -71.308         -4.370        -1.934
            -1.342        -75.236        -3.794
            -0.118         -8.686       -80.562

Total shielding tensor (ppm): 
           179.132         -4.127        -1.270
            -2.288        179.686        -3.736
            -1.106         -4.120       192.536


 Diagonalized sT*s matrix:
 
 sDSO           253.942          253.913          270.605  iso=     259.486
 sPSO           -78.508          -71.640          -76.958  iso=     -75.702
        ---------------  ---------------  ---------------
 Total          175.434          182.273          193.647  iso=     183.784

 Orientation: 
  X           0.6800430    0.7328884   -0.0203983
  Y           0.7027067   -0.6594697   -0.2670262
  Z           0.2091525   -0.1672552    0.9634734

 --------------
 Nucleus  49C :
 --------------

Diamagnetic contribution to the shielding tensor (ppm) : 
           242.065         -7.019        -2.901
           -18.150        255.788         6.245
            -9.815          8.977       244.360

Paramagnetic contribution to the shielding tensor (ppm): 
           -68.323          2.490        -2.732
            17.039        -68.892         2.690
             5.361         -2.866       -77.143

Total shielding tensor (ppm): 
           173.741         -4.529        -5.634
            -1.111        186.896         8.936
            -4.454          6.111       167.218


 Diagonalized sT*s matrix:
 
 sDSO           239.484          237.596          265.133  iso=     247.404
 sPSO           -76.330          -63.469          -74.560  iso=     -71.453
        ---------------  ---------------  ---------------
 Total          163.154          174.127          190.574  iso=     175.952

 Orientation: 
  X           0.3638265   -0.8972969    0.2499772
  Y          -0.2472890   -0.3517857   -0.9028261
  Z           0.8980414    0.2666555   -0.3498807

 --------------
 Nucleus  50C :
 --------------

Diamagnetic contribution to the shielding tensor (ppm) : 
           265.441         13.096         8.129
            13.776        255.972        -0.332
            14.075        -11.063       259.367

Paramagnetic contribution to the shielding tensor (ppm): 
          -190.082        -36.167       -89.652
           -46.399       -158.508        33.156
           -85.210         52.991      -247.132

Total shielding tensor (ppm): 
            75.359        -23.071       -81.523
           -32.623         97.463        32.823
           -71.134         41.927        12.235


 Diagonalized sT*s matrix:
 
 sDSO           273.833          266.683          240.264  iso=     260.260
 sPSO          -306.268         -207.785          -81.670  iso=    -198.574
        ---------------  ---------------  ---------------
 Total          -32.435           58.899          158.594  iso=      61.686

 Orientation: 
  X          -0.6601630    0.3861485   -0.6442625
  Y          -0.1021023    0.8036377    0.5862947
  Z          -0.7441505   -0.4528308    0.4911053

 --------------
 Nucleus  51C :
 --------------

Diamagnetic contribution to the shielding tensor (ppm) : 
           262.814         15.453         7.068
            18.459        258.030        -7.004
           -13.436          2.411       273.904

Paramagnetic contribution to the shielding tensor (ppm): 
          -179.974        -32.001       -83.931
           -32.477       -154.748        33.652
           -59.587         26.370      -257.639

Total shielding tensor (ppm): 
            82.840        -16.548       -76.863
           -14.019        103.282        26.648
           -73.023         28.782        16.264


 Diagonalized sT*s matrix:
 
 sDSO           266.106          275.703          252.939  iso=     264.916
 sPSO          -300.153         -188.294         -103.914  iso=    -197.454
        ---------------  ---------------  ---------------
 Total          -34.048           87.409          149.025  iso=      67.462

 Orientation: 
  X           0.5441446   -0.4969020    0.6760141
  Y          -0.1003568   -0.8385104   -0.5355640
  Z           0.8329677    0.2235817   -0.5061384

 --------------
 Nucleus  54C :
 --------------

Diamagnetic contribution to the shielding tensor (ppm) : 
           252.647          5.417         3.017
            15.657        231.995        -9.506
             1.458         -4.531       253.658

Paramagnetic contribution to the shielding tensor (ppm): 
           -93.849        -10.387         1.773
           -19.890        -77.545        13.692
            -1.543          1.350       -86.711

Total shielding tensor (ppm): 
           158.798         -4.970         4.790
            -4.233        154.450         4.186
            -0.085         -3.181       166.948


 Diagonalized sT*s matrix:
 
 sDSO           248.899          234.182          255.219  iso=     246.100
 sPSO           -97.546          -72.959          -87.598  iso=     -86.035
        ---------------  ---------------  ---------------
 Total          151.353          161.223          167.620  iso=     160.065

 Orientation: 
  X          -0.5489167    0.7878204    0.2793376
  Y          -0.8304059   -0.5521448   -0.0745793
  Z           0.0954797   -0.2729015    0.9572922

 --------------
 Nucleus  55C :
 --------------

Diamagnetic contribution to the shielding tensor (ppm) : 
           252.681          0.804        -4.792
             1.729        230.803        -5.650
           -22.039         -2.827       232.924

Paramagnetic contribution to the shielding tensor (ppm): 
           -64.858          9.424        -4.025
             5.042        -70.121         7.624
            10.409          0.651       -55.871

Total shielding tensor (ppm): 
           187.823         10.229        -8.816
             6.771        160.682         1.974
           -11.630         -2.175       177.053


 Diagonalized sT*s matrix:
 
 sDSO           232.266          224.730          259.413  iso=     238.803
 sPSO           -74.481          -52.521          -63.848  iso=     -63.617
        ---------------  ---------------  ---------------
 Total          157.785          172.209          195.565  iso=     175.186

 Orientation: 
  X           0.3243969    0.4023866   -0.8560676
  Y          -0.9320653    0.2903076   -0.2167389
  Z           0.1613101    0.8682203    0.4692255

 --------------
 Nucleus  56C :
 --------------

Diamagnetic contribution to the shielding tensor (ppm) : 
           243.100         -6.732        -0.021
             2.378        241.057        -5.501
            13.143         -5.302       244.451

Paramagnetic contribution to the shielding tensor (ppm): 
           -80.101          9.280         3.830
             0.969        -83.099         2.177
           -12.371          6.331       -68.603

Total shielding tensor (ppm): 
           162.999          2.548         3.808
             3.347        157.958        -3.324
             0.772          1.029       175.848


 Diagonalized sT*s matrix:
 
 sDSO           241.688          240.130          246.790  iso=     242.869
 sPSO           -85.296          -75.982          -70.525  iso=     -77.268
        ---------------  ---------------  ---------------
 Total          156.392          164.148          176.265  iso=     165.602

 Orientation: 
  X          -0.4339591    0.8870758    0.1574038
  Y           0.8957943    0.4434806   -0.0296232
  Z           0.0960836   -0.1281462    0.9870899

 --------------
 Nucleus  59C :
 --------------

Diamagnetic contribution to the shielding tensor (ppm) : 
           246.044         -6.731         3.176
           -17.553        238.324        -8.173
            15.166         -3.615       233.956

Paramagnetic contribution to the shielding tensor (ppm): 
           -65.092          0.220        -3.714
             6.817        -49.545        10.020
           -13.531          0.886       -56.655

Total shielding tensor (ppm): 
           180.951         -6.511        -0.538
           -10.736        188.780         1.846
             1.635         -2.729       177.301


 Diagonalized sT*s matrix:
 
 sDSO           231.738          234.218          252.369  iso=     239.441
 sPSO           -56.367          -56.917          -58.009  iso=     -57.097
        ---------------  ---------------  ---------------
 Total          175.370          177.301          194.360  iso=     182.344

 Orientation: 
  X          -0.8344339    0.0722924    0.5463459
  Y          -0.5405808    0.0854747   -0.8369388
  Z           0.1072031    0.9937142    0.0322431

 --------------
 Nucleus  60C :
 --------------

Diamagnetic contribution to the shielding tensor (ppm) : 
           245.796         -2.319        -8.516
             7.395        250.241        -1.609
            15.203         -1.010       262.019

Paramagnetic contribution to the shielding tensor (ppm): 
           -67.985        -11.932        -3.684
           -18.065        -80.466         1.547
           -27.027          5.481       -82.010

Total shielding tensor (ppm): 
           177.811        -14.251       -12.200
           -10.670        169.775        -0.062
           -11.824          4.472       180.009


 Diagonalized sT*s matrix:
 
 sDSO           252.433          258.064          247.559  iso=     252.685
 sPSO           -93.412          -84.759          -52.291  iso=     -76.820
        ---------------  ---------------  ---------------
 Total          159.021          173.306          195.268  iso=     175.865

 Orientation: 
  X           0.6570180   -0.2986884   -0.6921795
  Y           0.6931583    0.6003527    0.3988837
  Z           0.2964099   -0.7418638    0.6014809



--------------------------------
CHEMICAL SHIELDING SUMMARY (ppm)
--------------------------------


  Nucleus  Element    Isotropic     Anisotropy
  -------  -------  ------------   ------------
      0       C           61.514        151.736 
      1       C          154.569         12.263 
      2       C          132.366         51.015 
      5       C           50.874        177.616 
      6       C          168.015         31.796 
      7       C          164.903         17.203 
     14       C           71.646        133.236 
     15       C           83.682        119.561 
     18       C           80.207        134.019 
     20       C           52.121        175.886 
     22       C          168.946          7.303 
     23       C          174.101         13.199 
     26       C          158.748         23.795 
     29       C          154.223         16.818 
     32       C          142.668         28.302 
     34       C          174.918         23.906 
     36       C          168.554         35.453 
     39       C          143.277         36.169 
     43       C          154.929         12.694 
     44       C          183.784         14.794 
     49       C          175.952         21.933 
     50       C           61.686        145.362 
     51       C           67.462        122.344 
     54       C          160.065         11.333 
     55       C          175.186         30.568 
     56       C          165.602         15.995 
     59       C          182.344         18.025 
     60       C          175.865         29.105 


NMR shielding tensor and spin rotation calculation done in   1.0 sec 

Maximum memory used throughout the entire PROP-calculation: 52.2 MB

--------------------------------
SUGGESTED CITATIONS FOR THIS RUN
--------------------------------

Below you find a list of papers that are relevant to this ORCA run
We neither can nor want to force you to cite these papers, but we appreciate if you do
You receive ORCA, which is the product of decades of hard work by many enthusiastic individuals, for free
The only thing we kindly ask in return is that you cite our papers,
We deeply appreciate it, if you show your appreciation for ORCA by not just citing the generic ORCA reference.

Please note that relegating all ORCA citations to the supporting information does *not* help us.
SI sections are not indexed - citations you put there will not count into any citation statistics
But we need these citations in order to attract the funding resources that allow us to do what we are doing

Therefore, if you are a happy ORCA user, please consider citing a few of the papers listed below in the main body of your paper

In addition to the list printed below, the program has created the file inpS.bibtex that contains the list in bibtex format
You can import this file easily into all common literature databanks and citation aid programs


List of essential papers. We consider these as the minimum necessary citations

  1. Neese,F.
     Software update: the ORCA program system, version 5.0
     WIRES Comput. Molec. Sci., 2022 12(1)e1606
     doi.org/10.1002/wcms.1606

List of papers to cite with high priority. The work reported in these papers was absolutely
necessary for this run to complete.
Our perspective: the developers of density functionals and basis sets usually get cited in chemistry papers
Good! But without the algorithms to do something with them, the functionals or basis sets would not do anything.
Hence, in our opinion, the algorithm design and method developments papers are equally worthy of getting cited

  1. Neese,F.
     An improvement of the resolution of the identity approximation for the formation of the Coulomb matrix
     J. Comp. Chem., 2003 24(14)1740-1747
     doi.org/10.1002/jcc.10318
  2. Neese,F.; Wennmohs,F.; Hansen,A.; Becker,U.
     Efficient, approximate and parallel Hartree-Fock and hybrid DFT calculations. A 'chain-of-spheres' algorithm for the Hartree-Fock exchange
     Chem. Phys., 2009 356(1-3)98-109
     doi.org/10.1016/j.chemphys.2008.10.036
  3. Stoychev,G.L.; Auer,A.A.; Izsak,R.; Neese,F.
     Self-Consistent Field Calculation of Nuclear Magnetic Resonance Chemical Shielding Constants Using Gauge-Including Atomic Orbitals and Approximate Two-Electron Integrals
     J. Chem. Theory Comput., 2018 14(2)619-637
     doi.org/10.1021/acs.jctc.7b01006
  4. Garcia-Rates,M.; Neese,F.
     Effect of the Solute Cavity on the Solvation Energy and its Derivatives within the Framework of the Gaussian Charge Scheme
     J. Comput. Chem., 2020 41 922-939
     doi.org/10.1002/jcc.26139
  5. Helmich-Paris,B.; de Souza,B.; Neese,F.; Izsák,R.
     An improved chain of spheres for exchange algorithm
     J. Chem. Phys., 2021 155 104109
     doi.org/doi: 10.1063/5.0058766.
  6. Neese,F.
     The SHARK Integral Generation and Digestion System
     J. Comp. Chem., 2022  1-16
     doi.org/10.1002/jcc.26942
  7. Caldeweyher,E.; Bannwarth,C.; Grimme,S.
     Extension of the D3 dispersion coefficient model
     J. Chem. Phys., 2017 147 034112-XXXX
     doi.org/10.1063/1.4993215
  8. Caldeweyher,E.; Ehlert,S.; Hansen,A.; Neugebauer,H.; Spicher,S.; Bannwarth,C.; Grimme,S.
     A generally applicable atomic-charge dependent London dispersion correction
     J. Chem. Phys., 2019 150 154122-XXXX
     doi.org/10.1063/1.5090222
  9. Caldeweyher,E.; Mewes,J.; Ehlert,S.; Grimme,S.
     Extension and evaluation of the D4 London-dispersion model for periodic systems
     Phys. Chem. Chem. Phys., 2020 22(16)8499-8512
     doi.org/10.1039/D0CP00502A

List of suggested additional citations. These are papers that are important in the 'surrounding' of 
of this run, or papers that preceded the highly important papers. If you like your results we are grateful for a citation.

  1. Izsak,R.; Neese,F.
     An overlap fitted chain of spheres exchange method
     J. Chem. Phys., 2011 135 144105
     doi.org/10.1063/1.3646921
  2. Izsak,R.; Hansen,A.; Neese,F.
     The resolution of identity and chain of spheres approximations for the LPNO-CCSD singles Fock term
     Molec. Phys., 2012 110 2413-2417
     doi.org/10.1080/00268976.2012.687466
  3. Neese,F.
     The ORCA program system
     WIRES Comput. Molec. Sci., 2012 2(1)73-78
     doi.org/10.1002/wcms.81
  4. Izsak,R.; Neese,F.; Klopper,W.
     Robust fitting techniques in the chain of spheres approximation to the Fock exchange: The role of the complementary space
     J. Chem. Phys., 2013 139 
     doi.org/10.1063/1.4819264
  5. Neese,F.
     Software update: the ORCA program system, version 4.0
     WIRES Comput. Molec. Sci., 2018 8(1)1-6
     doi.org/10.1002/wcms.1327
  6. Neese,F.; Wennmohs,F.; Becker,U.; Riplinger,C.
     The ORCA quantum chemistry program package
     J. Chem. Phys., 2020 152 Art. No. L224108
     doi.org/10.1063/5.0004608

Timings for individual modules:

Sum of individual times          ...      306.335 sec (=   5.106 min)
Startup calculation              ...        4.567 sec (=   0.076 min)   1.5 %
SCF iterations                   ...      200.372 sec (=   3.340 min)  65.4 %
Property integrals               ...       60.810 sec (=   1.014 min)  19.9 %
SCF Response                     ...       39.246 sec (=   0.654 min)  12.8 %
Property calculations            ...        1.340 sec (=   0.022 min)   0.4 %
                             ****ORCA TERMINATED NORMALLY****
TOTAL RUN TIME: 0 days 0 hours 5 minutes 6 seconds 612 msec
