
                                 *****************
                                 * O   R   C   A *
                                 *****************

                                            #,                                       
                                            ###                                      
                                            ####                                     
                                            #####                                    
                                            ######                                   
                                           ########,                                 
                                     ,,################,,,,,                         
                               ,,#################################,,                 
                          ,,##########################################,,             
                       ,#########################################, ''#####,          
                    ,#############################################,,   '####,        
                  ,##################################################,,,,####,       
                ,###########''''           ''''###############################       
              ,#####''   ,,,,##########,,,,          '''####'''          '####       
            ,##' ,,,,###########################,,,                        '##       
           ' ,,###''''                  '''############,,,                           
         ,,##''                                '''############,,,,        ,,,,,,###''
      ,#''                                            '''#######################'''  
     '                                                          ''''####''''         
             ,#######,   #######,   ,#######,      ##                                
            ,#'     '#,  ##    ##  ,#'     '#,    #''#        ,####,   ,####,        
            ##       ##  ##   ,#'  ##            #'  '#       #'       #'  '#        
            ##       ##  #######   ##           ,######,      #####,   #    #        
            '#,     ,#'  ##    ##  '#,     ,#' ,#      #,     #,   #   #,  ,#        
             '#######'   ##     ##  '#######'  #'      '#     '####' # '####'        



                #########################################################
                #                        -***-                          #
                #          Department of theory and spectroscopy        #
                #                                                       #
                #                      Frank Neese                      #
                #                                                       #
                #     Directorship, Architecture, Infrastructure        #
                #                    SHARK, DRIVERS                     #
                #        Core code/Algorithms in most modules           #
                #                                                       #
                #        Max Planck Institute fuer Kohlenforschung      #
                #                Kaiser Wilhelm Platz 1                 #
                #                 D-45470 Muelheim/Ruhr                 #
                #                      Germany                          #
                #                                                       #
                #                  All rights reserved                  #
                #                        -***-                          #
                #########################################################


                         Program Version 6.0.0  -   RELEASE  -


 With contributions from (in alphabetic order):
   Daniel Aravena         : Magnetic Suceptibility
   Michael Atanasov       : Ab Initio Ligand Field Theory (pilot matlab implementation)
   Alexander A. Auer      : GIAO ZORA, VPT2 properties, NMR spectrum
   Ute Becker             : All parallelization in ORCA, NUMFREQ, NUMCALC
   Giovanni Bistoni       : ED, misc. LED, open-shell LED, HFLD
   Martin Brehm           : Molecular dynamics
   Dmytro Bykov           : pre 5.0 version of the SCF Hessian
   Marcos Casanova-Páez   : Triplet and SCS-CIS(D). UHF-(DLPNO)-IP/EA/STEOM-CCSD. UHF-CVS-IP/STEOM-CCSD
   Vijay G. Chilkuri      : MRCI spin determinant printing, contributions to CSF-ICE
   Pauline Colinet        : FMM embedding
   Dipayan Datta          : RHF DLPNO-CCSD density
   Achintya Kumar Dutta   : EOM-CC, STEOM-CC
   Nicolas Foglia         : Exact transition moments, OPA infrastructure, MCD improvements
   Dmitry Ganyushin       : Spin-Orbit,Spin-Spin,Magnetic field MRCI
   Miquel Garcia          : C-PCM and meta-GGA Hessian, CCSD/C-PCM, Gaussian charge scheme
   Tiago L. C. Gouveia    : GS-ROHF, GS-ROCIS
   Yang Guo               : DLPNO-NEVPT2, F12-NEVPT2, CIM, IAO-localization
   Andreas Hansen         : Spin unrestricted coupled pair/coupled cluster methods
   Ingolf Harden          : AUTO-CI MPn and infrastructure 
   Benjamin Helmich-Paris : MC-RPA, TRAH-(SCF,CASSCF), AVAS, COSX integrals, SCF dyn. polar.
   Lee Huntington         : MR-EOM, pCC
   Robert Izsak           : Overlap fitted RIJCOSX, COSX-SCS-MP3, EOM
   Riya Kayal             : Wick's Theorem for AUTO-CI, AUTO-CI UHF-CCSDT
   Emily Kempfer          : AUTO-CI, RHF CISDT and CCSDT
   Christian Kollmar      : KDIIS, OOCD, Brueckner-CCSD(T), CCSD density, CASPT2, CASPT2-K, improved NEVPT2
   Axel Koslowski         : Symmetry handling
   Simone Kossmann        : Meta GGA functionals, TD-DFT gradient, OOMP2, (MP2 Hessian; deprecated post 5.0)
   Lucas Lang             : DCDCAS
   Marvin Lechner         : AUTO-CI (C++ implementation), FIC-MRCC
   Spencer Leger          : CASSCF response
   Dagmar Lenk            : GEPOL surface, SMD, ORCA-2-JSON
   Dimitrios Liakos       : Extrapolation schemes; Compound Job, initial MDCI parallelization
   Dimitrios Manganas     : Further ROCIS development; embedding schemes. LFT, Crystal Embedding
   Dimitrios Pantazis     : SARC Basis sets
   Anastasios Papadopoulos: AUTO-CI, single reference methods and gradients
   Taras Petrenko         : pre 6.0 DFT Hessian and TD-DFT gradient, (ASA, deprecated), ECA, 1-Electron XAS/XES, NRVS
   Peter Pinski           : DLPNO-MP2, DLPNO-MP2 Gradient
   Christoph Reimann      : Effective Core Potentials
   Marius Retegan         : Local ZFS, SOC
   Christoph Riplinger    : Optimizer, TS searches, QM/MM, DLPNO-CCSD(T), (RO)-DLPNO pert. Triples
   Michael Roemelt        : Original ROCIS implementation
   Masaaki Saitow         : Open-shell DLPNO-CCSD energy and density
   Barbara Sandhoefer     : DKH picture change effects
   Kantharuban Sivalingam : CASSCF convergence/infrastructure, NEVPT2 and variants, FIC-MRCI
   Bernardo de Souza      : ESD, SOC TD-DFT
   Georgi Stoychev        : AutoAux, RI-MP2 NMR, DLPNO-MP2 response, X2C
   Van Anh Tran           : RI-MP2 g-tensors
   Willem Van den Heuvel  : Paramagnetic NMR
   Zikuan Wang            : NOTCH, Electric field optimization 
   Frank Wennmohs         : Technical directorship and infrastructure
   Hang Xu                : AUTO-CI-Response properties 


 We gratefully acknowledge several colleagues who have allowed us to
 interface, adapt or use parts of their codes:
   Stefan Grimme, W. Hujo, H. Kruse, P. Pracht,  : VdW corrections, initial TS optimization,
                  C. Bannwarth, S. Ehlert,         DFT functionals, gCP, sTDA/sTD-DF
                  L. Wittmann, M. Mueller
   Ed Valeev, F. Pavosevic, A. Kumar             : LibInt (2-el integral package), F12 methods
   Garnet Chan, S. Sharma, J. Yang, R. Olivares  : DMRG
   Ulf Ekstrom                                   : XCFun DFT Library
   Mihaly Kallay                                 : mrcc  (arbitrary order and MRCC methods)
   Frank Weinhold                                : gennbo (NPA and NBO analysis)
   Simon Mueller                                 : openCOSMO-RS
   Christopher J. Cramer and Donald G. Truhlar   : smd solvation model
   Lars Goerigk                                  : TD-DFT with DH, B97 family of functionals
   V. Asgeirsson, H. Jonsson                     : NEB implementation
   FAccTs GmbH                                   : IRC, NEB, NEB-TS, DLPNO-Multilevel, CI-OPT
                                                   MM, QMMM, 2- and 3-layer-ONIOM, Crystal-QMMM,
                                                   LR-CPCM, SF, NACMEs, symmetry and pop. for TD-DFT,
                                                   nearIR, NL-DFT gradient (VV10), updates on ESD,
                                                   ML-optimized integration grids, MBIS, APM,
                                                   GOAT, DOCKER, SOLVATOR, interface openCOSMO-RS
   S Lehtola, MJT Oliveira, MAL Marques          : LibXC Library
   Liviu Ungur et al                             : ANISO software


 Your calculation uses the libint2 library for the computation of 2-el integrals
 For citations please refer to: http://libint.valeyev.net

 Your ORCA version has been built with support for libXC version: 6.2.2
 For citations please refer to: https://libxc.gitlab.io

 This ORCA versions uses:
   CBLAS   interface :  Fast vector & matrix operations
   LAPACKE interface :  Fast linear algebra routines
   SCALAPACK package :  Parallel linear algebra routines
   Shared memory     :  Shared parallel matrices
   BLAS/LAPACK       :  OpenBLAS 0.3.27  USE64BITINT DYNAMIC_ARCH NO_AFFINITY Zen SINGLE_THREADED
        Core in use  :  Zen
   Copyright (c) 2011-2014, The OpenBLAS Project


NOTE: MaxCore=8000 MB was set to SCF,MP2,MDCI,CIPSI,MRCI and CIS
      => If you want to overwrite this, your respective input block should be placed after the MaxCore statement
Your calculation utilizes the atom-pairwise dispersion correction
based on EEQ partial charges (D4)


================================================================================

----- Orbital basis set information -----
Your calculation utilizes the basis: pcJ-0
   F. Jensen, Theor. Chem. Acc. 126, 371 (2010).

----- AuxJ basis set information -----
Your calculation utilizes the auxiliary basis: def2/J
   F. Weigend, Phys. Chem. Chem. Phys. 8, 1057 (2006).

================================================================================
                                        WARNINGS
                       Please study these warnings very carefully!
================================================================================


================================================================================
                                       INPUT FILE
================================================================================
NAME = inpJ
|  1> ! pbe0
|  2> ! D4
|  3> ! pcJ-0
|  4> ! def2/J RIJCOSX
|  5> ! DEFGRID2
|  6> ! scfconv7
|  7> ! smallprint printgap noloewdin
|  8> ! NOSOSCF
|  9> %MaxCore 8000
| 10> %output
| 11>        print[P_BondOrder_M] 1
| 12>        print[P_Mayer] 1
| 13>        print[P_basis] 2
| 14> end
| 15> %pal
| 16>     nprocs 4
| 17> end
| 18> ! CPCM(chloroform)
| 19> *xyz 0 1
| 20> C   -5.0318049700   0.2511081400  -0.4971302200
| 21> C   -6.4867457800  -0.1181096600  -0.6673763200
| 22> C   -7.3779896400   0.8096520800   0.1680802400
| 23> H   -6.6572302500  -1.1616516900  -0.3794964400
| 24> H   -6.7794300000  -0.0048992100  -1.7218112900
| 25> C   -4.7359064400   1.6744536200  -0.7722711200
| 26> C   -5.6499086300   2.6515932200  -0.0662313300
| 27> C   -7.1286094800   2.2684853000  -0.2186481000
| 28> H   -5.4752304600   3.6678087100  -0.4354413000
| 29> H   -5.3944855300   2.6509136000   1.0044057600
| 30> H   -7.4388391200   2.4064397100  -1.2634082400
| 31> H   -7.7527005700   2.9233388700   0.4003944100
| 32> O   -7.1656865500   0.5890671900   1.5724521900
| 33> H   -8.4317919200   0.5596344100  -0.0061199200
| 34> C   -4.1244467200  -0.6564153300  -0.0641059300
| 35> C   -3.7681275900   2.0723399400  -1.6054624200
| 36> H   -3.1326724100   1.3548387000  -2.1177390200
| 37> H   -3.5975241200   3.1284989000  -1.8005501700
| 38> C   -2.7350966200  -0.3970889300   0.2367226500
| 39> H   -4.4950688700  -1.6674072700   0.1007710600
| 40> C   -1.7999238600  -1.3160744000   0.5582295900
| 41> H   -2.4313643200   0.6469659200   0.2071176200
| 42> C   -2.0153593900  -2.8070310600   0.6153387100
| 43> C   -1.0203921200  -3.5545068400  -0.2939435400
| 44> H   -3.0381661000  -3.0904002500   0.3531383200
| 45> H   -1.8435576100  -3.1346479900   1.6528894400
| 46> C    0.4356624900  -3.1408441600  -0.0425680200
| 47> H   -1.2848615000  -3.3667677600  -1.3422933500
| 48> H   -1.1283939200  -4.6342671800  -0.1337656800
| 49> C    0.6230678500  -1.6207295900  -0.1409089400
| 50> H    1.0819242600  -3.6683801700  -0.7518681600
| 51> H    0.7345402900  -3.4642570300   0.9659484700
| 52> C   -0.3771735400  -0.9590184400   0.8609791300
| 53> H   -0.1394784800  -1.4243362000   1.8351988600
| 54> C    0.0750698500   0.4968358600   0.9338733200
| 55> H   -6.2125629500   0.4991314800   1.7138942800
| 56> C    1.6165522900   0.4057088000   0.8187845200
| 57> H   -0.2559562500   0.9839409300   1.8570438300
| 58> H   -0.3362320700   1.0750006800   0.0989266600
| 59> C    1.9613186400  -1.0585529500   0.4127249000
| 60> H    2.1134881300   0.6717618700   1.7572019900
| 61> H    1.9947979500   1.1028112000   0.0620175500
| 62> H    2.1869640800  -1.6314649100   1.3275129800
| 63> C    3.2193495600  -1.1161664700  -0.4779071900
| 64> C    0.3741955100  -1.1255633000  -1.5728138100
| 65> H    0.6156022000  -0.0632060500  -1.6799902500
| 66> H   -0.6726750500  -1.2531816600  -1.8649723600
| 67> H    0.9932848100  -1.6802993600  -2.2865469600
| 68> H    3.0260413600  -0.5296152600  -1.3881650700
| 69> C    3.6162585400  -2.5434242800  -0.8833492700
| 70> C    4.3706187700  -0.4748470200   0.2522262000
| 71> C    5.0475143800   0.5851431900  -0.1882614200
| 72> H    4.6315008500  -0.9522625700   1.1959550800
| 73> H    4.7310344400   1.0074956600  -1.1475842100
| 74> C    6.2219640800   1.3169451600   0.4134816500
| 75> C    7.3983541200   1.2620929800  -0.5788008400
| 76> C    6.6717571100   0.9610930300   1.8490358000
| 77> H    5.9130106100   2.3754572000   0.4630245400
| 78> H    7.4645891700   1.6929750600   2.0708565600
| 79> C    7.3124325300  -0.4232471800   2.0059359300
| 80> C    5.5694474500   1.1917711600   2.8891965800
| 81> H    7.7135366600   0.2293014300  -0.7603310500
| 82> H    8.2578333400   1.8235259200  -0.1943514800
| 83> H    7.1122227300   1.6950187900  -1.5433710000
| 84> H    8.1740675400  -0.5464891100   1.3424606100
| 85> H    6.6109413700  -1.2354498400   1.7950364400
| 86> H    7.6676021000  -0.5523353300   3.0347515500
| 87> H    5.0971594000   2.1711291700   2.7490461400
| 88> H    5.9896835400   1.1611804900   3.9008254200
| 89> H    4.7832460600   0.4335339700   2.8348932600
| 90> H    2.8802088200  -2.9968694700  -1.5520055600
| 91> H    3.7143420100  -3.1848759800   0.0012237800
| 92> H    4.5807888600  -2.5338228200  -1.4022759400
| 93> *
| 94> %eprnmr
| 95>  Nuclei = all C { ssfc }
| 96>  SpinSpinRThresh 8.0
| 97> end
| 98> 
| 99>                          ****END OF INPUT****
================================================================================

                       ****************************
                       * Single Point Calculation *
                       ****************************

---------------------------------
CARTESIAN COORDINATES (ANGSTROEM)
---------------------------------
  C     -5.031805    0.251108   -0.497130
  C     -6.486746   -0.118110   -0.667376
  C     -7.377990    0.809652    0.168080
  H     -6.657230   -1.161652   -0.379496
  H     -6.779430   -0.004899   -1.721811
  C     -4.735906    1.674454   -0.772271
  C     -5.649909    2.651593   -0.066231
  C     -7.128609    2.268485   -0.218648
  H     -5.475230    3.667809   -0.435441
  H     -5.394486    2.650914    1.004406
  H     -7.438839    2.406440   -1.263408
  H     -7.752701    2.923339    0.400394
  O     -7.165687    0.589067    1.572452
  H     -8.431792    0.559634   -0.006120
  C     -4.124447   -0.656415   -0.064106
  C     -3.768128    2.072340   -1.605462
  H     -3.132672    1.354839   -2.117739
  H     -3.597524    3.128499   -1.800550
  C     -2.735097   -0.397089    0.236723
  H     -4.495069   -1.667407    0.100771
  C     -1.799924   -1.316074    0.558230
  H     -2.431364    0.646966    0.207118
  C     -2.015359   -2.807031    0.615339
  C     -1.020392   -3.554507   -0.293944
  H     -3.038166   -3.090400    0.353138
  H     -1.843558   -3.134648    1.652889
  C      0.435662   -3.140844   -0.042568
  H     -1.284861   -3.366768   -1.342293
  H     -1.128394   -4.634267   -0.133766
  C      0.623068   -1.620730   -0.140909
  H      1.081924   -3.668380   -0.751868
  H      0.734540   -3.464257    0.965948
  C     -0.377174   -0.959018    0.860979
  H     -0.139478   -1.424336    1.835199
  C      0.075070    0.496836    0.933873
  H     -6.212563    0.499131    1.713894
  C      1.616552    0.405709    0.818785
  H     -0.255956    0.983941    1.857044
  H     -0.336232    1.075001    0.098927
  C      1.961319   -1.058553    0.412725
  H      2.113488    0.671762    1.757202
  H      1.994798    1.102811    0.062018
  H      2.186964   -1.631465    1.327513
  C      3.219350   -1.116166   -0.477907
  C      0.374196   -1.125563   -1.572814
  H      0.615602   -0.063206   -1.679990
  H     -0.672675   -1.253182   -1.864972
  H      0.993285   -1.680299   -2.286547
  H      3.026041   -0.529615   -1.388165
  C      3.616259   -2.543424   -0.883349
  C      4.370619   -0.474847    0.252226
  C      5.047514    0.585143   -0.188261
  H      4.631501   -0.952263    1.195955
  H      4.731034    1.007496   -1.147584
  C      6.221964    1.316945    0.413482
  C      7.398354    1.262093   -0.578801
  C      6.671757    0.961093    1.849036
  H      5.913011    2.375457    0.463025
  H      7.464589    1.692975    2.070857
  C      7.312433   -0.423247    2.005936
  C      5.569447    1.191771    2.889197
  H      7.713537    0.229301   -0.760331
  H      8.257833    1.823526   -0.194351
  H      7.112223    1.695019   -1.543371
  H      8.174068   -0.546489    1.342461
  H      6.610941   -1.235450    1.795036
  H      7.667602   -0.552335    3.034752
  H      5.097159    2.171129    2.749046
  H      5.989684    1.161180    3.900825
  H      4.783246    0.433534    2.834893
  H      2.880209   -2.996869   -1.552006
  H      3.714342   -3.184876    0.001224
  H      4.580789   -2.533823   -1.402276

----------------------------
CARTESIAN COORDINATES (A.U.)
----------------------------
  NO LB      ZA    FRAG     MASS         X           Y           Z
   0 C     6.0000    0    12.011   -9.508733    0.474526   -0.939440
   1 C     6.0000    0    12.011  -12.258173   -0.223195   -1.261158
   2 C     6.0000    0    12.011  -13.942380    1.530021    0.317626
   3 H     1.0000    0     1.008  -12.580342   -2.195204   -0.717144
   4 H     1.0000    0     1.008  -12.811266   -0.009258   -3.253752
   5 C     6.0000    0    12.011   -8.949566    3.164259   -1.459381
   6 C     6.0000    0    12.011  -10.676780    5.010785   -0.125159
   7 C     6.0000    0    12.011  -13.471120    4.286816   -0.413185
   8 H     1.0000    0     1.008  -10.346686    6.931154   -0.822865
   9 H     1.0000    0     1.008  -10.194100    5.009501    1.898052
  10 H     1.0000    0     1.008  -14.057369    4.547512   -2.387496
  11 H     1.0000    0     1.008  -14.650481    5.524310    0.756636
  12 O     8.0000    0    15.999  -13.541185    1.113176    2.971504
  13 H     1.0000    0     1.008  -15.933778    1.057556   -0.011565
  14 C     6.0000    0    12.011   -7.794075   -1.240445   -0.121143
  15 C     6.0000    0    12.011   -7.120729    3.916155   -3.033884
  16 H     1.0000    0     1.008   -5.919893    2.560274   -4.001947
  17 H     1.0000    0     1.008   -6.798335    5.912006   -3.402547
  18 C     6.0000    0    12.011   -5.168584   -0.750389    0.447341
  19 H     1.0000    0     1.008   -8.494449   -3.150943    0.190430
  20 C     6.0000    0    12.011   -3.401363   -2.487020    1.054901
  21 H     1.0000    0     1.008   -4.594613    1.222588    0.391396
  22 C     6.0000    0    12.011   -3.808477   -5.304520    1.162822
  23 C     6.0000    0    12.011   -1.928262   -6.717044   -0.555473
  24 H     1.0000    0     1.008   -5.741302   -5.840010    0.667335
  25 H     1.0000    0     1.008   -3.483819   -5.923626    3.123508
  26 C     6.0000    0    12.011    0.823283   -5.935335   -0.080442
  27 H     1.0000    0     1.008   -2.428036   -6.362269   -2.536567
  28 H     1.0000    0     1.008   -2.132355   -8.757496   -0.252781
  29 C     6.0000    0    12.011    1.177428   -3.062735   -0.266279
  30 H     1.0000    0     1.008    2.044541   -6.932234   -1.420825
  31 H     1.0000    0     1.008    1.388080   -6.546497    1.825378
  32 C     6.0000    0    12.011   -0.712755   -1.812282    1.627015
  33 H     1.0000    0     1.008   -0.263576   -2.691605    3.468023
  34 C     6.0000    0    12.011    0.141861    0.938884    1.764765
  35 H     1.0000    0     1.008  -11.740043    0.943222    3.238791
  36 C     6.0000    0    12.011    3.054841    0.766679    1.547279
  37 H     1.0000    0     1.008   -0.483687    1.859379    3.509304
  38 H     1.0000    0     1.008   -0.635387    2.031457    0.186944
  39 C     6.0000    0    12.011    3.706355   -2.000375    0.779937
  40 H     1.0000    0     1.008    3.993914    1.269446    3.320631
  41 H     1.0000    0     1.008    3.769622    2.084011    0.117196
  42 H     1.0000    0     1.008    4.132763   -3.083022    2.508636
  43 C     6.0000    0    12.011    6.083689   -2.109249   -0.903114
  44 C     6.0000    0    12.011    0.707127   -2.127006   -2.972187
  45 H     1.0000    0     1.008    1.163320   -0.119442   -3.174721
  46 H     1.0000    0     1.008   -1.271172   -2.368170   -3.524287
  47 H     1.0000    0     1.008    1.877036   -3.175306   -4.320948
  48 H     1.0000    0     1.008    5.718389   -1.000828   -2.623252
  49 C     6.0000    0    12.011    6.833738   -4.806375   -1.669288
  50 C     6.0000    0    12.011    8.259273   -0.897331    0.476638
  51 C     6.0000    0    12.011    9.538420    1.105760   -0.355763
  52 H     1.0000    0     1.008    8.752268   -1.799515    2.260028
  53 H     1.0000    0     1.008    8.940359    1.903891   -2.168620
  54 C     6.0000    0    12.011   11.757808    2.488666    0.781367
  55 C     6.0000    0    12.011   13.980863    2.385010   -1.093775
  56 C     6.0000    0    12.011   12.607794    1.816203    3.494171
  57 H     1.0000    0     1.008   11.173971    4.488964    0.874990
  58 H     1.0000    0     1.008   14.106029    3.199259    3.913352
  59 C     6.0000    0    12.011   13.818495   -0.799821    3.790670
  60 C     6.0000    0    12.011   10.524730    2.252121    5.459790
  61 H     1.0000    0     1.008   14.576472    0.433317   -1.436817
  62 H     1.0000    0     1.008   15.605043    3.445965   -0.367271
  63 H     1.0000    0     1.008   13.440153    3.203121   -2.916549
  64 H     1.0000    0     1.008   15.446749   -1.032715    2.536883
  65 H     1.0000    0     1.008   12.492869   -2.334662    3.392127
  66 H     1.0000    0     1.008   14.489668   -1.043763    5.734849
  67 H     1.0000    0     1.008    9.632235    4.102840    5.194944
  68 H     1.0000    0     1.008   11.318862    2.194313    7.371492
  69 H     1.0000    0     1.008    9.039025    0.819260    5.357172
  70 H     1.0000    0     1.008    5.442806   -5.663263   -2.932865
  71 H     1.0000    0     1.008    7.019089   -6.018543    0.002313
  72 H     1.0000    0     1.008    8.656436   -4.788231   -2.649917

--------------------------------
INTERNAL COORDINATES (ANGSTROEM)
--------------------------------
 C      0   0   0     0.000000000000     0.00000000     0.00000000
 C      1   0   0     1.510681395598     0.00000000     0.00000000
 C      2   1   0     1.533963861322   110.51006770     0.00000000
 H      2   1   3     1.095864840296   110.66856061   237.86435217
 H      2   1   3     1.100142611021   109.82131856   118.76467121
 C      1   2   3     1.479584674949   114.00189782   306.32735426
 C      6   1   2     1.512843014419   114.43965134    49.53825982
 C      3   2   1     1.529687431123   110.14431206    56.73873365
 H      7   6   1     1.095227093866   110.21932165   188.82523009
 H      7   6   1     1.100683969348   108.26168642    72.17032434
 H      8   3   2     1.098543398736   108.31019898    64.32711933
 H      8   3   2     1.096146211026   109.52068447   181.32945516
 O      3   2   1     1.437355512623   110.70189466   292.74306948
 H      3   2   1     1.096974829424   109.49992500   177.21014863
 C      1   2   3     1.354403144626   121.16330977   123.21763688
 C      6   1   2     1.337578845731   123.14043877   231.42527335
 H     16   6   1     1.086756012221   121.35242837   359.08603842
 H     16   6   1     1.087490930061   120.94056292   178.46990193
 C     15   1   2     1.445005784297   126.18814410   185.18503424
 H     15   1   2     1.089334614637   116.25240921     3.06042988
 C     19  15   1     1.349981147122   126.40303939   186.06493542
 H     19  15   1     1.087740914774   115.78958380     6.74949489
 C     21  19  15     1.507523028405   125.68191160     2.45211841
 C     23  21  19     1.541257317979   111.41033349   124.09530765
 H     23  21  19     1.093243206418   112.39353407     0.53673797
 H     23  21  19     1.101526314600   107.91141948   242.62015400
 C     24  23  21     1.534405908546   112.65583010    51.34543117
 H     24  23  21     1.097372926240   108.96892477   289.20446190
 H     24  23  21     1.096906435150   109.12833749   173.27433728
 C     27  24  23     1.534776860468   111.86306618   306.31018088
 H     27  24  23     1.095013792522   108.90811537   182.83648886
 H     27  24  23     1.100467779817   109.18571670    66.36691204
 C     21  19  15     1.497786605496   122.94841990   180.20499626
 H     33  21  19     1.105497011141   106.38125226   127.66624903
 C     33  21  19     1.526220622834   121.23324274     5.06949086
 H     13   3   2     0.967749396091   107.60995447    42.64955517
 C     35  33  21     1.548456549529   103.60898178   197.04200286
 H     35  33  21     1.095031240940   112.02509641    74.99999267
 H     35  33  21     1.095709703127   110.83698105   315.42486177
 C     30  27  24     1.553534093701   116.15256752   166.26487170
 H     37  35  33     1.094694849323   111.95556669   249.25375570
 H     37  35  33     1.096228891371   110.93902904   130.68647716
 H     40  30  27     1.102715380238   106.49308412   320.89464329
 C     40  30  27     1.542461225801   118.90039986    81.70123273
 C     30  27  24     1.535408301755   111.06217856   294.08821720
 H     45  30  27     1.094699459165   111.62503744   186.49434381
 H     45  30  27     1.094340455956   111.49526964    66.45224917
 H     45  30  27     1.095636192834   110.64919923   306.34111742
 H     44  40  30     1.099990813708   108.33468388    60.80549016
 C     44  40  30     1.535898718941   113.44702053   299.87247299
 C     44  40  30     1.506587600518   109.11818922   178.10647418
 C     51  44  40     1.332590055308   124.51085609   239.94939304
 H     51  44  40     1.089315962425   114.60147464    60.35762232
 H     52  51  44     1.094916150557   116.71958726     0.10666168
 C     52  51  44     1.508960219296   130.48860124   181.05112798
 C     55  52  51     1.539976242616   108.68288092   120.41092629
 C     55  52  51     1.545884932925   119.02178386   351.23273710
 H     55  52  51     1.103790960010   105.37427226   233.74710845
 H     57  55  52     1.101561814320   104.09150886   185.23645320
 C     57  55  52     1.533453768983   115.11194125    69.46680183
 C     57  55  52     1.533047107704   112.71950731   300.01403519
 H     56  55  52     1.094966500134   111.11905057   298.00471216
 H     56  55  52     1.096226612582   110.77553873   177.45370160
 H     56  55  52     1.095304306058   110.72018956    57.49338628
 H     60  57  55     1.094441850450   111.62655599    56.51722276
 H     60  57  55     1.093728304174   112.50062179   295.27290574
 H     60  57  55     1.096024978675   109.74035748   175.58844530
 H     61  57  55     1.096284753044   110.94347758   313.02196271
 H     61  57  55     1.095868181101   110.26770452   193.47985473
 H     61  57  55     1.093611042602   112.26544923    73.52954898
 H     50  44  40     1.092924043474   111.90128214    67.26696292
 H     50  44  40     1.097064324143   110.70749160   306.58771526
 H     50  44  40     1.095306265421   110.15042111   187.25301919

---------------------------
INTERNAL COORDINATES (A.U.)
---------------------------
 C      0   0   0     0.000000000000     0.00000000     0.00000000
 C      1   0   0     2.854774113290     0.00000000     0.00000000
 C      2   1   0     2.898771597231   110.51006770     0.00000000
 H      2   1   3     2.070884427952   110.66856061   237.86435217
 H      2   1   3     2.078968243088   109.82131856   118.76467121
 C      1   2   3     2.796009827601   114.00189782   306.32735426
 C      6   1   2     2.858858980868   114.43965134    49.53825982
 C      3   2   1     2.890690315324   110.14431206    56.73873365
 H      7   6   1     2.069679261857   110.21932165   188.82523009
 H      7   6   1     2.079991262066   108.26168642    72.17032434
 H      8   3   2     2.075946169838   108.31019898    64.32711933
 H      8   3   2     2.071416141574   109.52068447   181.32945516
 O      3   2   1     2.716208275939   110.70189466   292.74306948
 H      3   2   1     2.072982003416   109.49992500   177.21014863
 C      1   2   3     2.559451018266   121.16330977   123.21763688
 C      6   1   2     2.527657700957   123.14043877   231.42527335
 H     16   6   1     2.053671237490   121.35242837   359.08603842
 H     16   6   1     2.055060030938   120.94056292   178.46990193
 C     15   1   2     2.730665194253   126.18814410   185.18503424
 H     15   1   2     2.058544089865   116.25240921     3.06042988
 C     19  15   1     2.551094654018   126.40303939   186.06493542
 H     19  15   1     2.055532433584   115.78958380     6.74949489
 C     21  19  15     2.848805664265   125.68191160     2.45211841
 C     23  21  19     2.912554232882   111.41033349   124.09530765
 H     23  21  19     2.065930257899   112.39353407     0.53673797
 H     23  21  19     2.081583063902   107.91141948   242.62015400
 C     24  23  21     2.899606945423   112.65583010    51.34543117
 H     24  23  21     2.073734297373   108.96892477   289.20446190
 H     24  23  21     2.072852756970   109.12833749   173.27433728
 C     27  24  23     2.900307942965   111.86306618   306.31018088
 H     27  24  23     2.069276180734   108.90811537   182.83648886
 H     27  24  23     2.079582723059   109.18571670    66.36691204
 C     21  19  15     2.830406491442   122.94841990   180.20499626
 H     33  21  19     2.089086592924   106.38125226   127.66624903
 C     33  21  19     2.884138997098   121.23324274     5.06949086
 H     13   3   2     1.828781324879   107.60995447    42.64955517
 C     35  33  21     2.926158808886   103.60898178   197.04200286
 H     35  33  21     2.069309153465   112.02509641    74.99999267
 H     35  33  21     2.070591261190   110.83698105   315.42486177
 C     30  27  24     2.935753976804   116.15256752   166.26487170
 H     37  35  33     2.068673465435   111.95556669   249.25375570
 H     37  35  33     2.071572384784   110.93902904   130.68647716
 H     40  30  27     2.083830072313   106.49308412   320.89464329
 C     40  30  27     2.914829288957   118.90039986    81.70123273
 C     30  27  24     2.901501194067   111.06217856   294.08821720
 H     45  30  27     2.068682176773   111.62503744   186.49434381
 H     45  30  27     2.068003759027   111.49526964    66.45224917
 H     45  30  27     2.070452346868   110.64919923   306.34111742
 H     44  40  30     2.078681387737   108.33468388    60.80549016
 C     44  40  30     2.902427948239   113.44702053   299.87247299
 C     44  40  30     2.847037961741   109.11818922   178.10647418
 C     51  44  40     2.518230253320   124.51085609   239.94939304
 H     51  44  40     2.058508842291   114.60147464    60.35762232
 H     52  51  44     2.069091664160   116.71958726     0.10666168
 C     52  51  44     2.851521561452   130.48860124   181.05112798
 C     55  52  51     2.910133351290   108.68288092   120.41092629
 C     55  52  51     2.921299157783   119.02178386   351.23273710
 H     55  52  51     2.085862623517   105.37427226   233.74710845
 H     57  55  52     2.081650148650   104.09150886   185.23645320
 C     57  55  52     2.897807662408   115.11194125    69.46680183
 C     57  55  52     2.897039183961   112.71950731   300.01403519
 H     56  55  52     2.069186811071   111.11905057   298.00471216
 H     56  55  52     2.071568078496   110.77553873   177.45370160
 H     56  55  52     2.069825171755   110.72018956    57.49338628
 H     60  57  55     2.068195366853   111.62655599    56.51722276
 H     60  57  55     2.066846959807   112.50062179   295.27290574
 H     60  57  55     2.071187045633   109.74035748   175.58844530
 H     61  57  55     2.071677948046   110.94347758   313.02196271
 H     61  57  55     2.070890741159   110.26770452   193.47985473
 H     61  57  55     2.066625367549   112.26544923    73.52954898
 H     50  44  40     2.065327127343   111.90128214    67.26696292
 H     50  44  40     2.073151123925   110.70749160   306.58771526
 H     50  44  40     2.069828874414   110.15042111   187.25301919

---------------------
BASIS SET INFORMATION
---------------------
There are 3 groups of distinct atoms

 Group   1 Type C   : 7s4p contracted to 4s3p pattern {4111/211}
 Group   2 Type H   : 5s contracted to 3s pattern {311}
 Group   3 Type O   : 7s4p contracted to 4s3p pattern {4111/211}

Atom   0C    basis set group =>   1
Atom   1C    basis set group =>   1
Atom   2C    basis set group =>   1
Atom   3H    basis set group =>   2
Atom   4H    basis set group =>   2
Atom   5C    basis set group =>   1
Atom   6C    basis set group =>   1
Atom   7C    basis set group =>   1
Atom   8H    basis set group =>   2
Atom   9H    basis set group =>   2
Atom  10H    basis set group =>   2
Atom  11H    basis set group =>   2
Atom  12O    basis set group =>   3
Atom  13H    basis set group =>   2
Atom  14C    basis set group =>   1
Atom  15C    basis set group =>   1
Atom  16H    basis set group =>   2
Atom  17H    basis set group =>   2
Atom  18C    basis set group =>   1
Atom  19H    basis set group =>   2
Atom  20C    basis set group =>   1
Atom  21H    basis set group =>   2
Atom  22C    basis set group =>   1
Atom  23C    basis set group =>   1
Atom  24H    basis set group =>   2
Atom  25H    basis set group =>   2
Atom  26C    basis set group =>   1
Atom  27H    basis set group =>   2
Atom  28H    basis set group =>   2
Atom  29C    basis set group =>   1
Atom  30H    basis set group =>   2
Atom  31H    basis set group =>   2
Atom  32C    basis set group =>   1
Atom  33H    basis set group =>   2
Atom  34C    basis set group =>   1
Atom  35H    basis set group =>   2
Atom  36C    basis set group =>   1
Atom  37H    basis set group =>   2
Atom  38H    basis set group =>   2
Atom  39C    basis set group =>   1
Atom  40H    basis set group =>   2
Atom  41H    basis set group =>   2
Atom  42H    basis set group =>   2
Atom  43C    basis set group =>   1
Atom  44C    basis set group =>   1
Atom  45H    basis set group =>   2
Atom  46H    basis set group =>   2
Atom  47H    basis set group =>   2
Atom  48H    basis set group =>   2
Atom  49C    basis set group =>   1
Atom  50C    basis set group =>   1
Atom  51C    basis set group =>   1
Atom  52H    basis set group =>   2
Atom  53H    basis set group =>   2
Atom  54C    basis set group =>   1
Atom  55C    basis set group =>   1
Atom  56C    basis set group =>   1
Atom  57H    basis set group =>   2
Atom  58H    basis set group =>   2
Atom  59C    basis set group =>   1
Atom  60C    basis set group =>   1
Atom  61H    basis set group =>   2
Atom  62H    basis set group =>   2
Atom  63H    basis set group =>   2
Atom  64H    basis set group =>   2
Atom  65H    basis set group =>   2
Atom  66H    basis set group =>   2
Atom  67H    basis set group =>   2
Atom  68H    basis set group =>   2
Atom  69H    basis set group =>   2
Atom  70H    basis set group =>   2
Atom  71H    basis set group =>   2
Atom  72H    basis set group =>   2

-------------------------
BASIS SET IN INPUT FORMAT
-------------------------

 # Basis set for element : H 
 NewGTO H 
 S 3 
   1    1357.7500000000      0.0012928364
   2      54.3100000000      0.0588280685
   3       4.3448000000      0.9761499708
 S 1 
   1       0.6604910000      1.0000000000
 S 1 
   1       0.1366870000      1.0000000000
  end;

 # Basis set for element : C 
 NewGTO C 
 S 4 
   1  139534.0000000000      0.0001655246
   2    5581.3600000000      0.0074486101
   3     446.5090000000      0.1285821065
   4      67.4620000000      0.9218029311
 S 1 
   1      15.0674000000      1.0000000000
 S 1 
   1       3.9387600000      1.0000000000
 S 1 
   1       0.2999150000      1.0000000000
 P 2 
   1      28.3900000000      0.0816325586
   2       4.3676900000      0.9660360576
 P 1 
   1       0.8698170000      1.0000000000
 P 1 
   1       0.1889340000      1.0000000000
  end;

 # Basis set for element : O 
 NewGTO O 
 S 4 
   1  253789.0000000000      0.0001641076
   2   10151.6000000000      0.0074010921
   3     812.1250000000      0.1277711901
   4     122.6930000000      0.9223372164
 S 1 
   1      27.5608000000      1.0000000000
 S 1 
   1       7.3172600000      1.0000000000
 S 1 
   1       0.5792400000      1.0000000000
 P 2 
   1      53.4157000000      0.0793786106
   2       8.2177900000      0.9670506337
 P 1 
   1       1.6754400000      1.0000000000
 P 1 
   1       0.3506720000      1.0000000000
  end;

---------------------------------
AUXILIARY/J BASIS SET INFORMATION
---------------------------------
There are 3 groups of distinct atoms

 Group   1 Type C   : 12s5p4d2f1g contracted to 6s4p3d1f1g pattern {711111/2111/211/2/1}
 Group   2 Type H   : 5s2p1d contracted to 3s1p1d pattern {311/2/1}
 Group   3 Type O   : 12s5p4d2f1g contracted to 6s4p3d1f1g pattern {711111/2111/211/2/1}

Atom   0C    basis set group =>   1
Atom   1C    basis set group =>   1
Atom   2C    basis set group =>   1
Atom   3H    basis set group =>   2
Atom   4H    basis set group =>   2
Atom   5C    basis set group =>   1
Atom   6C    basis set group =>   1
Atom   7C    basis set group =>   1
Atom   8H    basis set group =>   2
Atom   9H    basis set group =>   2
Atom  10H    basis set group =>   2
Atom  11H    basis set group =>   2
Atom  12O    basis set group =>   3
Atom  13H    basis set group =>   2
Atom  14C    basis set group =>   1
Atom  15C    basis set group =>   1
Atom  16H    basis set group =>   2
Atom  17H    basis set group =>   2
Atom  18C    basis set group =>   1
Atom  19H    basis set group =>   2
Atom  20C    basis set group =>   1
Atom  21H    basis set group =>   2
Atom  22C    basis set group =>   1
Atom  23C    basis set group =>   1
Atom  24H    basis set group =>   2
Atom  25H    basis set group =>   2
Atom  26C    basis set group =>   1
Atom  27H    basis set group =>   2
Atom  28H    basis set group =>   2
Atom  29C    basis set group =>   1
Atom  30H    basis set group =>   2
Atom  31H    basis set group =>   2
Atom  32C    basis set group =>   1
Atom  33H    basis set group =>   2
Atom  34C    basis set group =>   1
Atom  35H    basis set group =>   2
Atom  36C    basis set group =>   1
Atom  37H    basis set group =>   2
Atom  38H    basis set group =>   2
Atom  39C    basis set group =>   1
Atom  40H    basis set group =>   2
Atom  41H    basis set group =>   2
Atom  42H    basis set group =>   2
Atom  43C    basis set group =>   1
Atom  44C    basis set group =>   1
Atom  45H    basis set group =>   2
Atom  46H    basis set group =>   2
Atom  47H    basis set group =>   2
Atom  48H    basis set group =>   2
Atom  49C    basis set group =>   1
Atom  50C    basis set group =>   1
Atom  51C    basis set group =>   1
Atom  52H    basis set group =>   2
Atom  53H    basis set group =>   2
Atom  54C    basis set group =>   1
Atom  55C    basis set group =>   1
Atom  56C    basis set group =>   1
Atom  57H    basis set group =>   2
Atom  58H    basis set group =>   2
Atom  59C    basis set group =>   1
Atom  60C    basis set group =>   1
Atom  61H    basis set group =>   2
Atom  62H    basis set group =>   2
Atom  63H    basis set group =>   2
Atom  64H    basis set group =>   2
Atom  65H    basis set group =>   2
Atom  66H    basis set group =>   2
Atom  67H    basis set group =>   2
Atom  68H    basis set group =>   2
Atom  69H    basis set group =>   2
Atom  70H    basis set group =>   2
Atom  71H    basis set group =>   2
Atom  72H    basis set group =>   2

-------------------------------------
AUXILIARY/J BASIS SET IN INPUT FORMAT
-------------------------------------

 # Auxiliary/J basis set for element : H 
 NewAuxJGTO H 
 S 3 
   1      15.6752927000      0.1007184237
   2       3.6063578000      0.3404257499
   3       1.2080016000      0.6491996172
 S 1 
   1       0.4726794000      1.0000000000
 S 1 
   1       0.2018100000      1.0000000000
 P 2 
   1       2.0281365000      0.5596620919
   2       0.5358730000      0.5596620919
 D 1 
   1       2.2165124000      1.0000000000
  end;

 # Auxiliary/J basis set for element : C 
 NewAuxJGTO C 
 S 7 
   1    1861.0916331000      0.0134602335
   2     642.9939764000      0.0299160374
   3     235.1105725000      0.1008649584
   4      90.7028894000      0.2370970548
   5      36.7794552000      0.3924037254
   6      15.6046273000      0.3195862154
   7       6.8907294000      0.0530104441
 S 1 
   1       3.1478850000     -1.0000000000
 S 1 
   1       1.4777287000      1.0000000000
 S 1 
   1       0.7076466000      1.0000000000
 S 1 
   1       0.3430122000      1.0000000000
 S 1 
   1       0.1669453000      1.0000000000
 P 2 
   1      13.5472892000     -0.6769313712
   2       5.4669419000     -0.3779500978
 P 1 
   1       2.1751721000      1.0000000000
 P 1 
   1       0.8582194000      1.0000000000
 P 1 
   1       0.3376720000      1.0000000000
 D 2 
   1       5.9287253000     -0.3533329857
   2       1.9809209000     -0.7456525731
 D 1 
   1       0.8055417000     -1.0000000000
 D 1 
   1       0.3531244000     -1.0000000000
 F 2 
   1       1.6755626000      0.6311076882
   2       0.5997536000      0.4968166032
 G 1 
   1       1.0024600000     -1.0000000000
  end;

 # Auxiliary/J basis set for element : O 
 NewAuxJGTO O 
 S 7 
   1    2876.8216605000      0.0168151159
   2    1004.7443032000      0.0340137548
   3     369.7579954000      0.1194951309
   4     142.9442404000      0.2664627624
   5      57.8366425000      0.4202764046
   6      24.3864983000      0.2765077335
   7      10.6622662000      0.0057008815
 S 1 
   1       4.8070437000     -1.0000000000
 S 1 
   1       2.2210770000      1.0000000000
 S 1 
   1       1.0447795000      1.0000000000
 S 1 
   1       0.4968425000      1.0000000000
 S 1 
   1       0.2371384000      1.0000000000
 P 2 
   1      64.2613382000     -0.2731534179
   2      16.3006076000     -0.8168011598
 P 1 
   1       4.3550542000      1.0000000000
 P 1 
   1       1.2019554000      1.0000000000
 P 1 
   1       0.3354196000      1.0000000000
 D 2 
   1       9.2146611000     -0.4661230638
   2       2.8435251000     -0.6600908911
 D 1 
   1       0.9955759000     -1.0000000000
 D 1 
   1       0.3649441000     -1.0000000000
 F 2 
   1       2.6420115000      0.5931563945
   2       0.7345613000      0.5931563945
 G 1 
   1       1.3931000000     -1.0000000000
  end;



           ************************************************************
           *        Program running with 4 parallel MPI-processes     *
           *              working on a common directory               *
           ************************************************************
------------------------------------------------------------------------------
                             ORCA STARTUP CALCULATIONS
                           -- RI-GTO INTEGRALS CHOSEN --
------------------------------------------------------------------------------
------------------------------------------------------------------------------
                   ___                                                        
                  /   \      - P O W E R E D   B Y -                         
                 /     \                                                     
                 |  |  |   _    _      __       _____    __    __             
                 |  |  |  | |  | |    /  \     |  _  \  |  |  /  |          
                  \  \/   | |  | |   /    \    | | | |  |  | /  /          
                 / \  \   | |__| |  /  /\  \   | |_| |  |  |/  /          
                |  |  |   |  __  | /  /__\  \  |    /   |      \           
                |  |  |   | |  | | |   __   |  |    \   |  |\   \          
                \     /   | |  | | |  |  |  |  | |\  \  |  | \   \       
                 \___/    |_|  |_| |__|  |__|  |_| \__\ |__|  \__/        
                                                                              
                      - O R C A' S   B I G   F R I E N D -                    
                                      &                                       
                       - I N T E G R A L  F E E D E R -                       
                                                                              
 v1 FN, 2020, v2 2021, v3 2022-2024                                           
------------------------------------------------------------------------------


----------------------
SHARK INTEGRAL PACKAGE
----------------------

Number of atoms                             ...     73
Number of basis functions                   ...    509
Number of shells                            ...    335
Maximum angular momentum                    ...      1
Integral batch strategy                     ... SHARK/LIBINT Hybrid
RI-J (if used) integral strategy            ... SPLIT-RIJ (Revised 2003 algorithm where possible)
Printlevel                                  ...      1
Contraction scheme used                     ... SEGMENTED contraction
Prescreening option                         ... SCHWARTZ
   Thresh                                   ... 3.000e-11
   Tcut                                     ... 1.000e-12
   Tpresel                                  ... 1.000e-12 
Coulomb Range Separation                    ... NOT USED
Exchange Range Separation                   ... NOT USED
Multipole approximations                    ... NOT USED
Finite Nucleus Model                        ... NOT USED
CABS basis                                  ... NOT available
Auxiliary Coulomb fitting basis             ... AVAILABLE
   # of basis functions in Aux-J            ...   1905
   # of shells in Aux-J                     ...    655
   Maximum angular momentum in Aux-J        ...      4
Auxiliary J/K fitting basis                 ... NOT available
Auxiliary Correlation fitting basis         ... NOT available
Auxiliary 'external' fitting basis          ... NOT available

Checking pre-screening integrals            ... done (  0.0 sec) Dimension = 335
Check shell pair data                       ... done (  0.0 sec)
Shell pair information
Shell pair cut-off parameter TPreSel        ...   1.0e-12
Total number of shell pairs                 ...     56280
Shell pairs after pre-screening             ...     22061
Total number of primitive shell pairs       ...    145865
Primitive shell pairs kept                  ...     37880
          la=0 lb=0:  11093 shell pairs
          la=1 lb=0:   9082 shell pairs
          la=1 lb=1:   1886 shell pairs

Calculating one electron integrals          ... done (  0.0 sec)
Calculating RI/J V-Matrix + Cholesky decomp.... done (  0.2 sec)
Calculating Nuclear repulsion               ... done (  0.0 sec) ENN=   2798.406840549321 Eh

Diagonalization of the overlap matrix:
Smallest eigenvalue                        ... 7.572e-03
Time for diagonalization                   ...    0.034 sec
Threshold for overlap eigenvalues          ... 1.000e-07
Number of eigenvalues below threshold      ... 0
Time for construction of square roots      ...    0.021 sec
Total time needed                          ...    0.058 sec

-------------------
DFT GRID GENERATION
-------------------

General Integration Accuracy     IntAcc      ... 4.388
Radial Grid Type                 RadialGrid  ... OptM3 with GC (2021)
Angular Grid (max. ang.)         AngularGrid ... 4 (Lebedev-302)
Angular grid pruning method      GridPruning ... 4 (adaptive)
Weight generation scheme         WeightScheme... mBecke (2022)
Basis function cutoff            BFCut       ... 1.0000e-11
Integration weight cutoff        WCut        ... 1.0000e-14
Partially contracted basis set               ... off
Rotationally invariant grid construction     ... off
Angular grids for H and He will be reduced by one unit

Total number of grid points                  ...   309841
Total number of batches                      ...     4877
Average number of points per batch           ...       63
Average number of grid points per atom       ...     4244

--------------------
COSX GRID GENERATION
--------------------

GRIDX 1
-------
General Integration Accuracy     IntAcc      ... 3.816
Radial Grid Type                 RadialGrid  ... OptM3 with GC (2021)
Angular Grid (max. ang.)         AngularGrid ... 1 (Lebedev-50)
Angular grid pruning method      GridPruning ... 4 (adaptive)
Weight generation scheme         WeightScheme... mBecke (2022)
Basis function cutoff            BFCut       ... 1.0000e-11
Integration weight cutoff        WCut        ... 1.0000e-14
Partially contracted basis set               ... on
Rotationally invariant grid construction     ... off
Angular grids for H and He will be reduced by one unit

Total number of grid points                  ...    39387
Total number of batches                      ...      352
Average number of points per batch           ...      111
Average number of grid points per atom       ...      540
UseSFitting                                  ... on

GRIDX 2
-------
General Integration Accuracy     IntAcc      ... 4.020
Radial Grid Type                 RadialGrid  ... OptM3 with GC (2021)
Angular Grid (max. ang.)         AngularGrid ... 2 (Lebedev-110)
Angular grid pruning method      GridPruning ... 4 (adaptive)
Weight generation scheme         WeightScheme... mBecke (2022)
Basis function cutoff            BFCut       ... 1.0000e-11
Integration weight cutoff        WCut        ... 1.0000e-14
Partially contracted basis set               ... on
Rotationally invariant grid construction     ... off
Angular grids for H and He will be reduced by one unit

Total number of grid points                  ...    81329
Total number of batches                      ...      679
Average number of points per batch           ...      119
Average number of grid points per atom       ...     1114
UseSFitting                                  ... on

GRIDX 3
-------
General Integration Accuracy     IntAcc      ... 4.338
Radial Grid Type                 RadialGrid  ... OptM3 with GC (2021)
Angular Grid (max. ang.)         AngularGrid ... 3 (Lebedev-194)
Angular grid pruning method      GridPruning ... 4 (adaptive)
Weight generation scheme         WeightScheme... mBecke (2022)
Basis function cutoff            BFCut       ... 1.0000e-11
Integration weight cutoff        WCut        ... 1.0000e-14
Partially contracted basis set               ... on
Rotationally invariant grid construction     ... off
Angular grids for H and He will be reduced by one unit

Total number of grid points                  ...   176126
Total number of batches                      ...     1417
Average number of points per batch           ...      124
Average number of grid points per atom       ...     2413
UseSFitting                                  ... on
Initializing property integral containers    ... done (  0.0 sec)

SHARK setup successfully completed in   3.9 seconds

Maximum memory used throughout the entire STARTUP-calculation: 85.8 MB


           ************************************************************
           *        Program running with 4 parallel MPI-processes     *
           *              working on a common directory               *
           ************************************************************
-------------------------------------------------------------------------------
                                 ORCA GUESS
                   Start orbitals & Density for SCF / CASSCF
-------------------------------------------------------------------------------

------------
SCF SETTINGS
------------
Hamiltonian:
 Density Functional     Method          .... DFT(GTOs)
 Exchange Functional    Exchange        .... PBE
   PBE kappa parameter   XKappa         ....  0.804000
   PBE mue parameter    XMuePBE         ....  0.219520
 Correlation Functional Correlation     .... PBE
   PBE beta parameter  CBetaPBE         ....  0.066725
 LDA part of GGA corr.  LDAOpt          .... PW91-LDA
 Gradients option       PostSCFGGA      .... off
 Hybrid DFT is turned on
   Fraction HF Exchange ScalHFX         ....  0.250000
   Scaling of DF-GGA-X  ScalDFX         ....  0.750000
   Scaling of DF-GGA-C  ScalDFC         ....  1.000000
   Scaling of DF-LDA-C  ScalLDAC        ....  1.000000
   Perturbative correction              ....  0.000000
   NL short-range parameter             ....  6.900000
 RI-approximation to the Coulomb term is turned on
   Number of AuxJ basis functions       .... 1905
   RIJ-COSX (HFX calculated with COS-X)).... on


General Settings:
 Integral files         IntName         .... inpJ
 Hartree-Fock type      HFTyp           .... RHF
 Total Charge           Charge          ....    0
 Multiplicity           Mult            ....    1
 Number of Electrons    NEL             ....  220
 Basis Dimension        Dim             ....  509
 Nuclear Repulsion      ENuc            ....   2798.4068405493 Eh

Convergence Acceleration:
 AO-DIIS                CNVDIIS         .... on
   Start iteration      DIISMaxIt       ....    12
   Startup error        DIISStart       ....  0.200000
   # of expansion vecs  DIISMaxEq       ....     5
   Bias factor          DIISBfac        ....   1.050
   Max. coefficient     DIISMaxC        ....  10.000
 MO-DIIS                CNVKDIIS        .... off
 Trust-Rad. Augm. Hess. CNVTRAH         .... auto
   Auto Start mean grad. ratio tolernc. ....  1.125000
   Auto Start start iteration           ....    50
   Auto Start num. interpolation iter.  ....    10
   Max. Number of Micro iterations      ....    24
   Max. Number of Macro iterations      .... Maxiter - #DIIS iter
   Number of Davidson start vectors     ....     2
   Converg. threshold    (grad. norm)   ....   1.000e-04
   Grad. Scal. Fac. for Micro threshold ....   0.100
   Minimum threshold for Micro iter.    ....   1.000e-02
   NR start threshold (gradient norm)   ....   1.000e-04
   Initial trust radius                 ....   0.400
   Minimum AH scaling param. (alpha)    ....   1.000
   Maximum AH scaling param. (alpha)    .... 1000.000
   Quad. conv. algorithm                .... NR
   White noise on init. David. guess    .... on
   Maximum white noise                  ....   0.010
   Pseudo random numbers                .... off
   Inactive MOs                         .... canonical
   Orbital update algorithm             .... Taylor
   Preconditioner                       .... Diag
   Full preconditioner red. dimension   ....   250
 SOSCF                  CNVSOSCF        .... off
 Level Shifting         CNVShift        .... on
   Level shift para.    LevelShift      ....    0.2500
   Turn off err/grad.   ShiftErr        ....    0.0010
 Zerner damping         CNVZerner       .... off
 Static damping         CNVDamp         .... on
   Fraction old density DampFac         ....    0.7000
   Max. Damping (<1)    DampMax         ....    0.9800
   Min. Damping (>=0)   DampMin         ....    0.0000
   Turn off err/grad.   DampErr         ....    0.1000

SCF Procedure:
 Maximum # iterations   MaxIter         ....   125
 SCF integral mode      SCFMode         .... Direct
   Integral package                     .... SHARK and LIBINT hybrid scheme
 Reset frequency        DirectResetFreq ....    20
 Integral Threshold     Thresh          ....  3.000e-11 Eh
 Primitive CutOff       TCut            ....  1.000e-12 Eh

Convergence Tolerance:
 Convergence Check Mode ConvCheckMode   .... Total+1el-Energy
 Convergence forced     ConvForced      .... 0
 Energy Change          TolE            ....  1.000e-07 Eh
 1-El. energy change                    ....  1.000e-04 Eh
 DIIS Error             TolErr          ....  1.000e-07

------------------------------
INITIAL GUESS: MODEL POTENTIAL
------------------------------
Loading Hartree-Fock densities                     ... done
Calculating cut-offs                               ... done
Initializing the effective Hamiltonian             ... done
Setting up the integral package (SHARK)            ... done
Starting the Coulomb interaction                   ... done (   0.4 sec)
Making the grid                                    ... done (   0.4 sec)
Mapping shells                                     ... done
Starting the XC term evaluation                    ... done (   0.2 sec)
  promolecular density results
     # of electrons  =    219.985910240
     EX              =   -164.429818593
     EC              =     -7.326024555
     EX+EC           =   -171.755843148
Transforming the Hamiltonian                       ... done (   0.0 sec)
Diagonalizing the Hamiltonian                      ... done (   0.0 sec)
Back transforming the eigenvectors                 ... done (   0.0 sec)
Now organizing SCF variables                       ... done
                      ------------------
                      INITIAL GUESS DONE (   1.0 sec)
                      ------------------
             **** ENERGY FILE WAS UPDATED (inpJ.en.tmp) ****
Finished Guess after   1.2 sec
Maximum memory used throughout the entire GUESS-calculation: 46.1 MB


           ************************************************************
           *        Program running with 4 parallel MPI-processes     *
           *              working on a common directory               *
           ************************************************************

-------------------------------------------------------------------------------------------
                                      ORCA LEAN-SCF
                              memory conserving SCF solver
-------------------------------------------------------------------------------------------

--------------------
CPCM SOLVATION MODEL
--------------------
CPCM parameters:
  Epsilon                                         ...       4.8030
  Refrac                                          ...       1.4459
  Rsolv                                           ...       1.3000
  Surface type                                    ... GAUSSIAN VDW
  Discretization scheme                           ... Constant charge density
    Threshold for H atoms                         ...       5.0000 (charges/Ang^2)
    Threshold for non-H atoms                     ...       5.0000 (charges/Ang^2)
  Epsilon function type                           ...         CPCM
Solvent:                                          ... CHLOROFORM
Radii:
  Scheme                                          ... Element-dependent radii
  Radius for C  used is    3.8550 Bohr (=   2.0400 Ang.)
  Radius for H  used is    2.4944 Bohr (=   1.3200 Ang.)
  Radius for O  used is    3.4469 Bohr (=   1.8240 Ang.)
Calculating surface                               ...        done! (  0.0s)
Cavity surface points                             ...         5353
Cavity Volume                                     ...    3609.5660
Cavity Surface-area                               ...    1784.3051
Calculating surface distance matrix               ...        done! (  0.3s)
Performing Cholesky decomposition & store         ...        done! (  0.9s)
Overall time for CPCM initialization              ...                 1.2s

----------------------------------------D-I-I-S--------------------------------------------
Iteration    Energy (Eh)           Delta-E    RMSDP     MaxDP     DIISErr   Damp  Time(sec)
-------------------------------------------------------------------------------------------
               ***  Starting incremental Fock matrix formation  ***
    1    -1165.0062506997091987     0.00e+00  1.51e-03  9.75e-02  1.97e-01  0.700   6.8

  HOMO= 109 E= -3.982 eV LUMO=  7.693 eV gap=  11.675 eV
    2    -1165.2251312639973548    -2.19e-01  1.11e-03  6.54e-02  9.53e-02  0.700   3.9

  HOMO= 109 E= -4.846 eV LUMO=  7.012 eV gap=  11.858 eV
                               ***Turning on AO-DIIS***
    3    -1165.3259710559082123    -1.01e-01  4.54e-04  2.21e-02  3.76e-02  0.700   3.9

  HOMO= 109 E= -5.847 eV LUMO=  6.085 eV gap=  11.932 eV
    4    -1165.3838724128931972    -5.79e-02  7.64e-04  3.17e-02  2.69e-02  0.000   3.8

  HOMO= 109 E= -6.005 eV LUMO=  5.930 eV gap=  11.934 eV
    5    -1165.5065332283984390    -1.23e-01  1.06e-04  6.23e-03  3.06e-03  0.000   3.8

  HOMO= 109 E= -6.045 eV LUMO=  5.892 eV gap=  11.938 eV
    6    -1165.5067510747235247    -2.18e-04  3.13e-05  1.92e-03  8.97e-04  0.000   3.5

  HOMO= 109 E= -6.012 eV LUMO=  5.931 eV gap=  11.943 eV
               *** Restarting incremental Fock matrix formation ***
                             ****Resetting DIIS****
    7    -1165.5067876101556976    -3.65e-05  1.52e-05  1.08e-03  3.07e-04  0.000   6.9

  HOMO= 109 E= -6.006 eV LUMO= -0.866 eV gap=   5.140 eV
    8    -1165.5067888680955548    -1.26e-06  7.08e-06  6.67e-04  4.18e-04  0.000   4.0

  HOMO= 109 E= -6.008 eV LUMO= -0.867 eV gap=   5.141 eV
    9    -1165.5067898591241828    -9.91e-07  2.68e-06  2.51e-04  1.82e-04  0.000   3.4

  HOMO= 109 E= -6.009 eV LUMO= -0.867 eV gap=   5.141 eV
   10    -1165.5067900554972766    -1.96e-07  8.97e-07  8.70e-05  4.99e-05  0.000   3.3

  HOMO= 109 E= -6.008 eV LUMO= -0.867 eV gap=   5.141 eV
   11    -1165.5067900644990004    -9.00e-09  2.70e-07  2.41e-05  1.53e-05  0.000   2.7
                 **** Energy Check signals convergence ****

  HOMO= 109 E= -6.008 eV LUMO= -0.867 eV gap=   5.141 eV

               *****************************************************
               *                     SUCCESS                       *
               *           SCF CONVERGED AFTER  11 CYCLES          *
               *****************************************************

Recomputing exchange energy using gridx3       ... done (    8.310 sec)
Old exchange energy                            :    -42.066864714 Eh
New exchange energy                            :    -42.066867096 Eh
Exchange energy change after final integration :     -0.000002382 Eh
Total energy after final integration           :  -1165.506792446 Eh
             **** ENERGY FILE WAS UPDATED (inpJ.en.tmp) ****

----------------
TOTAL SCF ENERGY
----------------

Total Energy       :      -1165.50679244637968 Eh          -31715.05218 eV

Components:
Nuclear Repulsion  :       2798.40684054932126 Eh           76148.52145 eV
Electronic Energy  :      -3963.89986058937575 Eh         -107863.19887 eV
One Electron Energy:      -7138.62415589848933 Eh         -194251.83885 eV
Two Electron Energy:       3174.72429530911359 Eh           86388.63999 eV
CPCM Dielectric    :         -0.01377002444456 Eh              -0.37470 eV

Virial components:
Potential Energy   :      -2322.39947229909603 Eh          -63195.70245 eV
Kinetic Energy     :       1156.89267985271636 Eh           31480.65026 eV
Virial Ratio       :          2.00744590465795

DFT components:
N(Alpha)           :      110.000140591416 electrons
N(Beta)            :      110.000140591416 electrons
N(Total)           :      220.000281182831 electrons
E(X)               :     -125.744140919636 Eh       
E(C)               :       -7.326975582528 Eh       
E(XC)              :     -133.071116502164 Eh       

CPCM Solvation Model Properties:
Surface-charge          :         -0.03320860978605
Corrected charge        :         -0.00000000000000
Outlying charge corr.   :          0.00003886555773 Eh               0.00106 eV
Free-energy (cav+disp)  :  This term is not implemented in the current solvation scheme

---------------
SCF CONVERGENCE
---------------

  Last Energy change         ...    9.0017e-09  Tolerance :   1.0000e-07
  Last MAX-Density change    ...    2.4147e-05  Tolerance :   1.0000e-05
  Last RMS-Density change    ...    2.7046e-07  Tolerance :   1.0000e-06
  Last DIIS Error            ...    1.5290e-05  Tolerance :   1.0000e-07


----------------
ORBITAL ENERGIES
----------------

  NO   OCC          E(Eh)            E(eV) 
   0   2.0000     -19.212567      -522.8005 
   1   2.0000     -10.300464      -280.2899 
   2   2.0000     -10.270530      -279.4753 
   3   2.0000     -10.268330      -279.4155 
   4   2.0000     -10.263699      -279.2894 
   5   2.0000     -10.257501      -279.1208 
   6   2.0000     -10.257088      -279.1096 
   7   2.0000     -10.252995      -278.9982 
   8   2.0000     -10.249736      -278.9095 
   9   2.0000     -10.249409      -278.9006 
  10   2.0000     -10.248214      -278.8681 
  11   2.0000     -10.247616      -278.8518 
  12   2.0000     -10.246269      -278.8152 
  13   2.0000     -10.245443      -278.7927 
  14   2.0000     -10.245073      -278.7826 
  15   2.0000     -10.244643      -278.7709 
  16   2.0000     -10.242918      -278.7240 
  17   2.0000     -10.242173      -278.7037 
  18   2.0000     -10.241815      -278.6940 
  19   2.0000     -10.241508      -278.6856 
  20   2.0000     -10.240234      -278.6509 
  21   2.0000     -10.234483      -278.4944 
  22   2.0000     -10.234327      -278.4902 
  23   2.0000     -10.232787      -278.4483 
  24   2.0000     -10.227930      -278.3161 
  25   2.0000     -10.225968      -278.2627 
  26   2.0000     -10.223463      -278.1946 
  27   2.0000     -10.223261      -278.1891 
  28   2.0000     -10.220894      -278.1247 
  29   2.0000      -1.043307       -28.3898 
  30   2.0000      -0.901469       -24.5302 
  31   2.0000      -0.882186       -24.0055 
  32   2.0000      -0.859183       -23.3796 
  33   2.0000      -0.845770       -23.0146 
  34   2.0000      -0.822381       -22.3781 
  35   2.0000      -0.814101       -22.1528 
  36   2.0000      -0.795886       -21.6572 
  37   2.0000      -0.795031       -21.6339 
  38   2.0000      -0.777012       -21.1436 
  39   2.0000      -0.758480       -20.6393 
  40   2.0000      -0.742879       -20.2148 
  41   2.0000      -0.736804       -20.0495 
  42   2.0000      -0.715069       -19.4580 
  43   2.0000      -0.703695       -19.1485 
  44   2.0000      -0.702864       -19.1259 
  45   2.0000      -0.695474       -18.9248 
  46   2.0000      -0.670767       -18.2525 
  47   2.0000      -0.657493       -17.8913 
  48   2.0000      -0.632297       -17.2057 
  49   2.0000      -0.622237       -16.9319 
  50   2.0000      -0.612732       -16.6733 
  51   2.0000      -0.606991       -16.5171 
  52   2.0000      -0.596808       -16.2400 
  53   2.0000      -0.587543       -15.9879 
  54   2.0000      -0.561038       -15.2666 
  55   2.0000      -0.548238       -14.9183 
  56   2.0000      -0.539736       -14.6870 
  57   2.0000      -0.529500       -14.4084 
  58   2.0000      -0.515351       -14.0234 
  59   2.0000      -0.507186       -13.8012 
  60   2.0000      -0.500920       -13.6307 
  61   2.0000      -0.491948       -13.3866 
  62   2.0000      -0.481155       -13.0929 
  63   2.0000      -0.480073       -13.0634 
  64   2.0000      -0.471564       -12.8319 
  65   2.0000      -0.468213       -12.7407 
  66   2.0000      -0.464779       -12.6473 
  67   2.0000      -0.459350       -12.4996 
  68   2.0000      -0.458458       -12.4753 
  69   2.0000      -0.451701       -12.2914 
  70   2.0000      -0.449817       -12.2402 
  71   2.0000      -0.438339       -11.9278 
  72   2.0000      -0.434950       -11.8356 
  73   2.0000      -0.432330       -11.7643 
  74   2.0000      -0.429646       -11.6913 
  75   2.0000      -0.424009       -11.5379 
  76   2.0000      -0.421203       -11.4615 
  77   2.0000      -0.413216       -11.2442 
  78   2.0000      -0.411451       -11.1961 
  79   2.0000      -0.403903       -10.9908 
  80   2.0000      -0.401511       -10.9257 
  81   2.0000      -0.399193       -10.8626 
  82   2.0000      -0.396396       -10.7865 
  83   2.0000      -0.390367       -10.6224 
  84   2.0000      -0.388925       -10.5832 
  85   2.0000      -0.381333       -10.3766 
  86   2.0000      -0.375784       -10.2256 
  87   2.0000      -0.375376       -10.2145 
  88   2.0000      -0.373662       -10.1679 
  89   2.0000      -0.365340        -9.9414 
  90   2.0000      -0.360664        -9.8142 
  91   2.0000      -0.359245        -9.7755 
  92   2.0000      -0.353405        -9.6166 
  93   2.0000      -0.345185        -9.3930 
  94   2.0000      -0.341319        -9.2878 
  95   2.0000      -0.340012        -9.2522 
  96   2.0000      -0.338891        -9.2217 
  97   2.0000      -0.333917        -9.0863 
  98   2.0000      -0.331308        -9.0153 
  99   2.0000      -0.329208        -8.9582 
 100   2.0000      -0.327081        -8.9003 
 101   2.0000      -0.319329        -8.6894 
 102   2.0000      -0.318774        -8.6743 
 103   2.0000      -0.313310        -8.5256 
 104   2.0000      -0.310784        -8.4569 
 105   2.0000      -0.299809        -8.1582 
 106   2.0000      -0.276738        -7.5304 
 107   2.0000      -0.275270        -7.4905 
 108   2.0000      -0.256107        -6.9690 
 109   2.0000      -0.220796        -6.0082 
 110   0.0000      -0.031851        -0.8667 
 111   0.0000       0.019413         0.5282 
 112   0.0000       0.028102         0.7647 
 113   0.0000       0.079243         2.1563 
 114   0.0000       0.087000         2.3674 
 115   0.0000       0.100402         2.7321 
 116   0.0000       0.102998         2.8027 
 117   0.0000       0.106302         2.8926 
 118   0.0000       0.108668         2.9570 
 119   0.0000       0.115778         3.1505 
 120   0.0000       0.117472         3.1966 
*Only the first 10 virtual orbitals were printed.

                    ********************************
                    * MULLIKEN POPULATION ANALYSIS *
                    ********************************

-----------------------
MULLIKEN ATOMIC CHARGES
-----------------------
   0 C :    0.078528
   1 C :   -0.500408
   2 C :   -0.074425
   3 H :    0.222893
   4 H :    0.219693
   5 C :    0.138941
   6 C :   -0.480338
   7 C :   -0.439861
   8 H :    0.225461
   9 H :    0.207250
  10 H :    0.208873
  11 H :    0.227889
  12 O :   -0.488033
  13 H :    0.247447
  14 C :   -0.280303
  15 C :   -0.514173
  16 H :    0.201021
  17 H :    0.196961
  18 C :   -0.260982
  19 H :    0.220178
  20 C :    0.154100
  21 H :    0.219294
  22 C :   -0.478955
  23 C :   -0.427586
  24 H :    0.211850
  25 H :    0.206993
  26 C :   -0.397512
  27 H :    0.208768
  28 H :    0.217319
  29 C :    0.003290
  30 H :    0.221954
  31 H :    0.194562
  32 C :   -0.229912
  33 H :    0.227838
  34 C :   -0.432720
  35 H :    0.341028
  36 C :   -0.418290
  37 H :    0.207855
  38 H :    0.197858
  39 C :   -0.186699
  40 H :    0.208983
  41 H :    0.206206
  42 H :    0.209345
  43 C :   -0.252719
  44 C :   -0.627151
  45 H :    0.205331
  46 H :    0.209261
  47 H :    0.200636
  48 H :    0.218283
  49 C :   -0.619297
  50 C :   -0.188983
  51 C :   -0.172085
  52 H :    0.215131
  53 H :    0.208310
  54 C :   -0.230676
  55 C :   -0.617747
  56 C :   -0.206087
  57 H :    0.223224
  58 H :    0.218951
  59 C :   -0.621948
  60 C :   -0.611454
  61 H :    0.202658
  62 H :    0.202910
  63 H :    0.205495
  64 H :    0.206022
  65 H :    0.201193
  66 H :    0.198884
  67 H :    0.198791
  68 H :    0.198588
  69 H :    0.205645
  70 H :    0.211297
  71 H :    0.192936
  72 H :    0.202420
Sum of atomic charges:    0.0000000

--------------------------------
MULLIKEN REDUCED ORBITAL CHARGES
--------------------------------
  0 C s       :     3.354205  s :     3.354205
      pz      :     1.002159  p :     2.567267
      px      :     0.809414
      py      :     0.755694

  1 C s       :     3.378003  s :     3.378003
      pz      :     1.133091  p :     3.122406
      px      :     0.872536
      py      :     1.116779

  2 C s       :     3.312732  s :     3.312732
      pz      :     0.707362  p :     2.761693
      px      :     1.146437
      py      :     0.907894

  3 H s       :     0.777107  s :     0.777107

  4 H s       :     0.780307  s :     0.780307

  5 C s       :     3.341510  s :     3.341510
      pz      :     0.890904  p :     2.519549
      px      :     0.860597
      py      :     0.768048

  6 C s       :     3.367275  s :     3.367275
      pz      :     1.132825  p :     3.113063
      px      :     0.890332
      py      :     1.089905

  7 C s       :     3.338576  s :     3.338576
      pz      :     1.182081  p :     3.101284
      px      :     0.961515
      py      :     0.957688

  8 H s       :     0.774539  s :     0.774539

  9 H s       :     0.792750  s :     0.792750

 10 H s       :     0.791127  s :     0.791127

 11 H s       :     0.772111  s :     0.772111

 12 O s       :     3.685049  s :     3.685049
      pz      :     1.437131  p :     4.802984
      px      :     1.464973
      py      :     1.900880

 13 H s       :     0.752553  s :     0.752553

 14 C s       :     3.394173  s :     3.394173
      pz      :     0.979932  p :     2.886130
      px      :     0.834618
      py      :     1.071581

 15 C s       :     3.385457  s :     3.385457
      pz      :     0.992940  p :     3.128716
      px      :     0.986417
      py      :     1.149359

 16 H s       :     0.798979  s :     0.798979

 17 H s       :     0.803039  s :     0.803039

 18 C s       :     3.397525  s :     3.397525
      pz      :     1.015426  p :     2.863457
      px      :     0.774563
      py      :     1.073468

 19 H s       :     0.779822  s :     0.779822

 20 C s       :     3.350516  s :     3.350516
      pz      :     0.943439  p :     2.495384
      px      :     0.761443
      py      :     0.790502

 21 H s       :     0.780706  s :     0.780706

 22 C s       :     3.372427  s :     3.372427
      pz      :     1.108201  p :     3.106528
      px      :     1.113448
      py      :     0.884879

 23 C s       :     3.327511  s :     3.327511
      pz      :     1.092011  p :     3.100075
      px      :     0.890307
      py      :     1.117758

 24 H s       :     0.788150  s :     0.788150

 25 H s       :     0.793007  s :     0.793007

 26 C s       :     3.349966  s :     3.349966
      pz      :     1.174688  p :     3.047547
      px      :     0.958983
      py      :     0.913875

 27 H s       :     0.791232  s :     0.791232

 28 H s       :     0.782681  s :     0.782681

 29 C s       :     3.317435  s :     3.317435
      pz      :     0.868431  p :     2.679276
      px      :     0.904693
      py      :     0.906152

 30 H s       :     0.778046  s :     0.778046

 31 H s       :     0.805438  s :     0.805438

 32 C s       :     3.362819  s :     3.362819
      pz      :     1.073935  p :     2.867093
      px      :     0.859554
      py      :     0.933604

 33 H s       :     0.772162  s :     0.772162

 34 C s       :     3.344665  s :     3.344665
      pz      :     1.189893  p :     3.088055
      px      :     0.930270
      py      :     0.967892

 35 H s       :     0.658972  s :     0.658972

 36 C s       :     3.335979  s :     3.335979
      pz      :     1.169013  p :     3.082311
      px      :     0.936900
      py      :     0.976398

 37 H s       :     0.792145  s :     0.792145

 38 H s       :     0.802142  s :     0.802142

 39 C s       :     3.337416  s :     3.337416
      pz      :     1.055755  p :     2.849282
      px      :     0.858548
      py      :     0.934980

 40 H s       :     0.791017  s :     0.791017

 41 H s       :     0.793794  s :     0.793794

 42 H s       :     0.790655  s :     0.790655

 43 C s       :     3.344403  s :     3.344403
      pz      :     1.069100  p :     2.908317
      px      :     0.877199
      py      :     0.962017

 44 C s       :     3.365656  s :     3.365656
      pz      :     0.959680  p :     3.261494
      px      :     1.162956
      py      :     1.138858

 45 H s       :     0.794669  s :     0.794669

 46 H s       :     0.790739  s :     0.790739

 47 H s       :     0.799364  s :     0.799364

 48 H s       :     0.781717  s :     0.781717

 49 C s       :     3.347209  s :     3.347209
      pz      :     1.144263  p :     3.272088
      px      :     1.154620
      py      :     0.973206

 50 C s       :     3.347269  s :     3.347269
      pz      :     1.055125  p :     2.841714
      px      :     0.895464
      py      :     0.891125

 51 C s       :     3.348706  s :     3.348706
      pz      :     1.066609  p :     2.823378
      px      :     0.880381
      py      :     0.876388

 52 H s       :     0.784869  s :     0.784869

 53 H s       :     0.791690  s :     0.791690

 54 C s       :     3.340725  s :     3.340725
      pz      :     0.888752  p :     2.889952
      px      :     0.895189
      py      :     1.106011

 55 C s       :     3.343275  s :     3.343275
      pz      :     1.078538  p :     3.274472
      px      :     1.027650
      py      :     1.168284

 56 C s       :     3.319152  s :     3.319152
      pz      :     0.890950  p :     2.886935
      px      :     1.010337
      py      :     0.985648

 57 H s       :     0.776776  s :     0.776776

 58 H s       :     0.781049  s :     0.781049

 59 C s       :     3.348050  s :     3.348050
      pz      :     1.154575  p :     3.273898
      px      :     1.130939
      py      :     0.988384

 60 C s       :     3.344302  s :     3.344302
      pz      :     1.058313  p :     3.267152
      px      :     1.046912
      py      :     1.161928

 61 H s       :     0.797342  s :     0.797342

 62 H s       :     0.797090  s :     0.797090

 63 H s       :     0.794505  s :     0.794505

 64 H s       :     0.793978  s :     0.793978

 65 H s       :     0.798807  s :     0.798807

 66 H s       :     0.801116  s :     0.801116

 67 H s       :     0.801209  s :     0.801209

 68 H s       :     0.801412  s :     0.801412

 69 H s       :     0.794355  s :     0.794355

 70 H s       :     0.788703  s :     0.788703

 71 H s       :     0.807064  s :     0.807064

 72 H s       :     0.797580  s :     0.797580


------------------------
MULLIKEN OVERLAP CHARGES
------------------------
B(  0-C ,  1-C ) :   0.5242 B(  0-C ,  2-C ) :  -0.1798 B(  0-C ,  3-H ) :  -0.0797 
B(  0-C ,  4-H ) :  -0.0864 B(  0-C ,  5-C ) :   0.4159 B(  0-C ,  6-C ) :  -0.1413 
B(  0-C , 14-C ) :   0.9502 B(  0-C , 15-C ) :  -0.2023 B(  0-C , 18-C ) :  -0.1863 
B(  0-C , 19-H ) :  -0.0753 B(  1-C ,  2-C ) :   0.5264 B(  1-C ,  3-H ) :   0.8090 
B(  1-C ,  4-H ) :   0.7737 B(  1-C ,  5-C ) :  -0.1403 B(  1-C ,  7-C ) :  -0.1581 
[...]
        0.0000         2.9599        0.0000
        0.0000         0.0000        2.9599

 Diagonalized JT*J matrix:
 
 J[55,60](FC)             2.960            2.960            2.960  iso=      2.960
                ---------------  ---------------  ---------------  ---------------
 J[55,60](Total)          2.960            2.960            2.960  iso=      2.960



-----------------------------------------------------------
 NUCLEUS A = C   56 NUCLEUS B = C   59 
 ( 13C  gnA =  1.405  13C  gnB =  1.405) r(AB) =     1.5335
-----------------------------------------------------------

Fermi-contact contribution to J (Hz):
       25.9088         0.0000        0.0000
        0.0000        25.9088        0.0000
        0.0000         0.0000       25.9088

Total spin-spin coupling tensor J (Hz):
       25.9088         0.0000        0.0000
        0.0000        25.9088        0.0000
        0.0000         0.0000       25.9088

 Diagonalized JT*J matrix:
 
 J[56,59](FC)            25.909           25.909           25.909  iso=     25.909
                ---------------  ---------------  ---------------  ---------------
 J[56,59](Total)         25.909           25.909           25.909  iso=     25.909



-----------------------------------------------------------
 NUCLEUS A = C   56 NUCLEUS B = C   60 
 ( 13C  gnA =  1.405  13C  gnB =  1.405) r(AB) =     1.5330
-----------------------------------------------------------

Fermi-contact contribution to J (Hz):
       26.4629         0.0000        0.0000
        0.0000        26.4629        0.0000
        0.0000         0.0000       26.4629

Total spin-spin coupling tensor J (Hz):
       26.4629         0.0000        0.0000
        0.0000        26.4629        0.0000
        0.0000         0.0000       26.4629

 Diagonalized JT*J matrix:
 
 J[56,60](FC)            26.463           26.463           26.463  iso=     26.463
                ---------------  ---------------  ---------------  ---------------
 J[56,60](Total)         26.463           26.463           26.463  iso=     26.463



-----------------------------------------------------------
 NUCLEUS A = C   59 NUCLEUS B = C   60 
 ( 13C  gnA =  1.405  13C  gnB =  1.405) r(AB) =     2.5350
-----------------------------------------------------------

Fermi-contact contribution to J (Hz):
       -1.0604         0.0000        0.0000
        0.0000        -1.0604        0.0000
        0.0000         0.0000       -1.0604

Total spin-spin coupling tensor J (Hz):
       -1.0604         0.0000        0.0000
        0.0000        -1.0604        0.0000
        0.0000         0.0000       -1.0604

 Diagonalized JT*J matrix:
 
 J[59,60](FC)            -1.060           -1.060           -1.060  iso=     -1.060
                ---------------  ---------------  ---------------  ---------------
 J[59,60](Total)         -1.060           -1.060           -1.060  iso=     -1.060



-----------------------------------------------------------------------------
                SUMMARY OF ISOTROPIC COUPLING CONSTANTS J (Hz)                
-----------------------------------------------------------------------------
                  0 C        1 C        2 C        5 C        6 C        7 C  
      0 C        0.000     33.078     -3.739     41.328     -0.882      2.286
      1 C       33.078      0.000     23.432     -1.188      1.436     -0.656
      2 C       -3.739     23.432      0.000      2.294     -2.753     25.805
      5 C       41.328     -1.188      2.294      0.000     30.355     -2.769
      6 C       -0.882      1.436     -2.753     30.355      0.000     24.787
      7 C        2.286     -0.656     25.805     -2.769     24.787      0.000
     14 C       69.399     -0.361      2.844     -3.026      2.188     -0.622
     15 C       -3.415      2.418     -0.859     64.558     -1.088      2.601
     18 C       -2.411      4.171     -1.088      3.181     -0.813      0.192
     20 C        6.800     -1.099      1.078     -1.394      0.605     -0.103
     22 C       -0.920      0.326     -0.328      0.425     -0.183      0.037
     23 C        0.830     -0.288      0.281     -0.347      0.154      0.000
     26 C       -0.096      0.040      0.000      0.050      0.000      0.000
     29 C        1.168     -0.366      0.000     -0.452      0.209      0.000
     32 C       -1.117      0.543     -0.371      0.473     -0.214      0.044
     34 C        0.023     -0.015      0.014     -0.015      0.006     -0.001
     36 C       -0.017      0.000      0.000      0.016     -0.008      0.000
     39 C       -0.070      0.000      0.000      0.030      0.000      0.000
     43 C        0.000      0.000      0.000      0.000      0.000      0.000
     44 C        0.009     -0.003      0.000     -0.002     -0.005      0.000
     49 C        0.000      0.000      0.000      0.000      0.000      0.000
     50 C        0.000      0.000      0.000      0.000      0.000      0.000
     51 C        0.000      0.000      0.000      0.000      0.000      0.000
     54 C        0.000      0.000      0.000      0.000      0.000      0.000
     55 C        0.000      0.000      0.000      0.000      0.000      0.000
     56 C        0.000      0.000      0.000      0.000      0.000      0.000
     59 C        0.000      0.000      0.000      0.000      0.000      0.000
     60 C        0.000      0.000      0.000      0.000      0.000      0.000
                 14 C       15 C       18 C       20 C       22 C       23 C  
      0 C       69.399     -3.415     -2.411      6.800     -0.920      0.830
      1 C       -0.361      2.418      4.171     -1.099      0.326     -0.288
      2 C        2.844     -0.859     -1.088      1.078     -0.328      0.281
      5 C       -3.026     64.558      3.181     -1.394      0.425     -0.347
      6 C        2.188     -1.088     -0.813      0.605     -0.183      0.154
      7 C       -0.622      2.601      0.192     -0.103      0.037      0.000
     14 C        0.000      3.108     54.102     -2.636      3.808     -0.932
     15 C        3.108      0.000     -1.144      1.010     -0.272      0.256
     18 C       54.102     -1.144      0.000     69.974     -2.141      2.358
     20 C       -2.636      1.010     69.974      0.000     32.116     -2.988
     22 C        3.808     -0.272     -2.141     32.116      0.000     24.176
     23 C       -0.932      0.256      2.358     -2.988     24.176      0.000
     26 C        0.139     -0.034     -0.352      1.017     -1.917     25.445
     29 C       -1.140      0.325      2.279     -2.452      1.066     -2.219
     32 C        4.376     -0.315     -1.293     36.787     -0.200      1.525
     34 C        0.066      0.004      2.438     -1.394      1.623     -0.269
     36 C        0.016     -0.014     -0.148      3.419      0.074      0.162
     39 C        0.252     -0.023     -0.045      2.874     -0.331      2.530
     43 C        0.006      0.017      0.277      0.173      0.001     -0.114
     44 C        0.007      0.028     -0.050      0.697     -0.135      0.590
     49 C        0.000      0.000     -0.009     -0.051      0.138      0.044
     50 C        0.000      0.000      0.023      0.125     -0.005      0.120
     51 C        0.000      0.000      0.016      0.047      0.001     -0.002
     54 C        0.000      0.000      0.000      0.000      0.000      0.000
     55 C        0.000      0.000      0.000      0.000      0.000      0.000
     56 C        0.000      0.000      0.000      0.000      0.000      0.000
     59 C        0.000      0.000      0.000      0.000      0.000      0.000
     60 C        0.000      0.000      0.000      0.000      0.000      0.000
                 26 C       29 C       32 C       34 C       36 C       39 C  
      0 C       -0.096      1.168     -1.117      0.023     -0.017     -0.070
      1 C        0.040     -0.366      0.543     -0.015      0.000      0.000
      2 C        0.000      0.000     -0.371      0.014      0.000      0.000
      5 C        0.050     -0.452      0.473     -0.015      0.016      0.030
      6 C        0.000      0.209     -0.214      0.006     -0.008      0.000
      7 C        0.000      0.000      0.044     -0.001      0.000      0.000
     14 C        0.139     -1.140      4.376      0.066      0.016      0.252
     15 C       -0.034      0.325     -0.315      0.004     -0.014     -0.023
     18 C       -0.352      2.279     -1.293      2.438     -0.148     -0.045
     20 C        1.017     -2.452     36.787     -1.394      3.419      2.874
     22 C       -1.917      1.066     -0.200      1.623      0.074     -0.331
     23 C       25.445     -2.219      1.525     -0.269      0.162      2.530
     26 C        0.000     27.854     -0.917      2.261      3.027     -0.607
     29 C       27.854      0.000     23.064      0.856      0.789     28.436
     32 C       -0.917     23.064      0.000     27.934      1.157      3.355
     34 C        2.261      0.856     27.934      0.000     25.900      0.199
     36 C        3.027      0.789      1.157     25.900      0.000     26.985
     39 C       -0.607     28.436      3.355      0.199     26.985      0.000
     43 C       -0.020     -0.639      2.699      1.824      0.378     28.829
     44 C       -0.586     27.261     -0.969      0.801      0.297     -1.190
     49 C        0.354      0.055     -0.026      0.043      3.219     -1.218
     50 C       -0.116      3.580     -0.088     -0.042      0.657     -1.806
     51 C       -0.023      0.233      0.122      0.072     -0.003      3.274
     54 C       -0.000      0.077     -0.015     -0.001     -0.031     -0.525
     55 C        0.000      0.022      0.000      0.004      0.029      0.815
     56 C       -0.000      0.002      0.000     -0.001      0.004      0.014
     59 C        0.000     -0.002     -0.001      0.000     -0.002     -0.006
     60 C        0.000     -0.001     -0.001      0.002      0.006     -0.016
                 43 C       44 C       49 C       50 C       51 C       54 C  
      0 C        0.000      0.009      0.000      0.000      0.000      0.000
      1 C        0.000     -0.003      0.000      0.000      0.000      0.000
      2 C        0.000      0.000      0.000      0.000      0.000      0.000
      5 C        0.000     -0.002      0.000      0.000      0.000      0.000
      6 C        0.000     -0.005      0.000      0.000      0.000      0.000
      7 C        0.000      0.000      0.000      0.000      0.000      0.000
     14 C        0.006      0.007      0.000      0.000      0.000      0.000
     15 C        0.017      0.028      0.000      0.000      0.000      0.000
     18 C        0.277     -0.050     -0.009      0.023      0.016      0.000
     20 C        0.173      0.697     -0.051      0.125      0.047      0.000
     22 C        0.001     -0.135      0.138     -0.005      0.001      0.000
     23 C       -0.114      0.590      0.044      0.120     -0.002      0.000
     26 C       -0.020     -0.586      0.354     -0.116     -0.023     -0.000
     29 C       -0.639     27.261      0.055      3.580      0.233      0.077
     32 C        2.699     -0.969     -0.026     -0.088      0.122     -0.015
     34 C        1.824      0.801      0.043     -0.042      0.072     -0.001
     36 C        0.378      0.297      3.219      0.657     -0.003     -0.031
     39 C       28.829     -1.190     -1.218     -1.806      3.274     -0.525
     43 C        0.000      1.448     25.965     36.089     -0.476      3.759
     44 C        1.448      0.000     -0.108     -0.170     -0.007     -0.001
     49 C       25.965     -0.108      0.000     -2.918      3.550     -0.739
     50 C       36.089     -0.170     -2.918      0.000     67.852     -2.085
     51 C       -0.476     -0.007      3.550     67.852      0.000     35.341
     54 C        3.759     -0.001     -0.739     -2.085     35.341      0.000
     55 C       -0.866      0.002      1.389      3.604     -2.457     25.945
     56 C       -0.203     -0.001      0.028      1.049     -1.936     27.264
     59 C        0.041      0.002     -0.021      0.095      0.502     -1.777
     60 C        0.037     -0.000     -0.041      0.183      0.515     -0.756
                 55 C       56 C       59 C       60 C  
      0 C        0.000      0.000      0.000      0.000
      1 C        0.000      0.000      0.000      0.000
      2 C        0.000      0.000      0.000      0.000
      5 C        0.000      0.000      0.000      0.000
      6 C        0.000      0.000      0.000      0.000
      7 C        0.000      0.000      0.000      0.000
     14 C        0.000      0.000      0.000      0.000
     15 C        0.000      0.000      0.000      0.000
     18 C        0.000      0.000      0.000      0.000
     20 C        0.000      0.000      0.000      0.000
     22 C        0.000      0.000      0.000      0.000
     23 C        0.000      0.000      0.000      0.000
     26 C        0.000     -0.000      0.000      0.000
     29 C        0.022      0.002     -0.002     -0.001
     32 C        0.000      0.000     -0.001     -0.001
     34 C        0.004     -0.001      0.000      0.002
     36 C        0.029      0.004     -0.002      0.006
     39 C        0.815      0.014     -0.006     -0.016
     43 C       -0.866     -0.203      0.041      0.037
     44 C        0.002     -0.001      0.002     -0.000
     49 C        1.389      0.028     -0.021     -0.041
     50 C        3.604      1.049      0.095      0.183
     51 C       -2.457     -1.936      0.502      0.515
     54 C       25.945     27.264     -1.777     -0.756
     55 C        0.000     -0.543      0.965      2.960
     56 C       -0.543      0.000     25.909     26.463
     59 C        0.965     25.909      0.000     -1.060
     60 C        2.960     26.463     -1.060      0.000

NMR spin-spin coupling calculation done in   0.3 sec 

Maximum memory used throughout the entire PROP-calculation: 34.4 MB

--------------------------------
SUGGESTED CITATIONS FOR THIS RUN
--------------------------------

Below you find a list of papers that are relevant to this ORCA run
We neither can nor want to force you to cite these papers, but we appreciate if you do
You receive ORCA, which is the product of decades of hard work by many enthusiastic individuals, for free
The only thing we kindly ask in return is that you cite our papers,
We deeply appreciate it, if you show your appreciation for ORCA by not just citing the generic ORCA reference.

Please note that relegating all ORCA citations to the supporting information does *not* help us.
SI sections are not indexed - citations you put there will not count into any citation statistics
But we need these citations in order to attract the funding resources that allow us to do what we are doing

Therefore, if you are a happy ORCA user, please consider citing a few of the papers listed below in the main body of your paper

In addition to the list printed below, the program has created the file inpJ.bibtex that contains the list in bibtex format
You can import this file easily into all common literature databanks and citation aid programs


List of essential papers. We consider these as the minimum necessary citations

  1. Neese,F.
     Software update: the ORCA program system, version 5.0
     WIRES Comput. Molec. Sci., 2022 12(1)e1606
     doi.org/10.1002/wcms.1606

List of papers to cite with high priority. The work reported in these papers was absolutely
necessary for this run to complete.
Our perspective: the developers of density functionals and basis sets usually get cited in chemistry papers
Good! But without the algorithms to do something with them, the functionals or basis sets would not do anything.
Hence, in our opinion, the algorithm design and method developments papers are equally worthy of getting cited

  1. Neese,F.
     An improvement of the resolution of the identity approximation for the formation of the Coulomb matrix
     J. Comp. Chem., 2003 24(14)1740-1747
     doi.org/10.1002/jcc.10318
  2. Neese,F.; Wennmohs,F.; Hansen,A.; Becker,U.
     Efficient, approximate and parallel Hartree-Fock and hybrid DFT calculations. A 'chain-of-spheres' algorithm for the Hartree-Fock exchange
     Chem. Phys., 2009 356(1-3)98-109
     doi.org/10.1016/j.chemphys.2008.10.036
  3. Stoychev,G.L.; Auer,A.A.; Izsak,R.; Neese,F.
     Self-Consistent Field Calculation of Nuclear Magnetic Resonance Chemical Shielding Constants Using Gauge-Including Atomic Orbitals and Approximate Two-Electron Integrals
     J. Chem. Theory Comput., 2018 14(2)619-637
     doi.org/10.1021/acs.jctc.7b01006
  4. Garcia-Rates,M.; Neese,F.
     Effect of the Solute Cavity on the Solvation Energy and its Derivatives within the Framework of the Gaussian Charge Scheme
     J. Comput. Chem., 2020 41 922-939
     doi.org/10.1002/jcc.26139
  5. Helmich-Paris,B.; de Souza,B.; Neese,F.; Izsák,R.
     An improved chain of spheres for exchange algorithm
     J. Chem. Phys., 2021 155 104109
     doi.org/doi: 10.1063/5.0058766.
  6. Neese,F.
     The SHARK Integral Generation and Digestion System
     J. Comp. Chem., 2022  1-16
     doi.org/10.1002/jcc.26942
  7. Grimme,S.; Bannwarth,C.; Dohm,S.; Hansen,A.; Pisarek,J.; Pracht,P.; Seibert,J.; Neese,F.
     Fully Automated Quantum-Chemistry-Based Computation of Spin-Spin-Coupled Nuclear Magnetic Resonance Spectra
     Angew. Chem., Int. Ed., 2017 56 14763-14769
     doi.org/10.1002/anie.201708266
  8. Caldeweyher,E.; Bannwarth,C.; Grimme,S.
     Extension of the D3 dispersion coefficient model
     J. Chem. Phys., 2017 147 034112-XXXX
     doi.org/10.1063/1.4993215
  9. Caldeweyher,E.; Ehlert,S.; Hansen,A.; Neugebauer,H.; Spicher,S.; Bannwarth,C.; Grimme,S.
     A generally applicable atomic-charge dependent London dispersion correction
     J. Chem. Phys., 2019 150 154122-XXXX
     doi.org/10.1063/1.5090222
 10. Caldeweyher,E.; Mewes,J.; Ehlert,S.; Grimme,S.
     Extension and evaluation of the D4 London-dispersion model for periodic systems
     Phys. Chem. Chem. Phys., 2020 22(16)8499-8512
     doi.org/10.1039/D0CP00502A

List of suggested additional citations. These are papers that are important in the 'surrounding' of 
of this run, or papers that preceded the highly important papers. If you like your results we are grateful for a citation.

  1. Izsak,R.; Neese,F.
     An overlap fitted chain of spheres exchange method
     J. Chem. Phys., 2011 135 144105
     doi.org/10.1063/1.3646921
  2. Izsak,R.; Hansen,A.; Neese,F.
     The resolution of identity and chain of spheres approximations for the LPNO-CCSD singles Fock term
     Molec. Phys., 2012 110 2413-2417
     doi.org/10.1080/00268976.2012.687466
  3. Neese,F.
     The ORCA program system
     WIRES Comput. Molec. Sci., 2012 2(1)73-78
     doi.org/10.1002/wcms.81
  4. Izsak,R.; Neese,F.; Klopper,W.
     Robust fitting techniques in the chain of spheres approximation to the Fock exchange: The role of the complementary space
     J. Chem. Phys., 2013 139 
     doi.org/10.1063/1.4819264
  5. Neese,F.
     Software update: the ORCA program system, version 4.0
     WIRES Comput. Molec. Sci., 2018 8(1)1-6
     doi.org/10.1002/wcms.1327
  6. Neese,F.; Wennmohs,F.; Becker,U.; Riplinger,C.
     The ORCA quantum chemistry program package
     J. Chem. Phys., 2020 152 Art. No. L224108
     doi.org/10.1063/5.0004608

Timings for individual modules:

Sum of individual times          ...      160.942 sec (=   2.682 min)
Startup calculation              ...        4.141 sec (=   0.069 min)   2.6 %
SCF iterations                   ...       57.563 sec (=   0.959 min)  35.8 %
Property integrals               ...        0.622 sec (=   0.010 min)   0.4 %
SCF Response                     ...       98.009 sec (=   1.633 min)  60.9 %
Property calculations            ...        0.607 sec (=   0.010 min)   0.4 %
                             ****ORCA TERMINATED NORMALLY****
TOTAL RUN TIME: 0 days 0 hours 2 minutes 41 seconds 262 msec
