
                                 *****************
                                 * O   R   C   A *
                                 *****************

                                            #,                                       
                                            ###                                      
                                            ####                                     
                                            #####                                    
                                            ######                                   
                                           ########,                                 
                                     ,,################,,,,,                         
                               ,,#################################,,                 
                          ,,##########################################,,             
                       ,#########################################, ''#####,          
                    ,#############################################,,   '####,        
                  ,##################################################,,,,####,       
                ,###########''''           ''''###############################       
              ,#####''   ,,,,##########,,,,          '''####'''          '####       
            ,##' ,,,,###########################,,,                        '##       
           ' ,,###''''                  '''############,,,                           
         ,,##''                                '''############,,,,        ,,,,,,###''
      ,#''                                            '''#######################'''  
     '                                                          ''''####''''         
             ,#######,   #######,   ,#######,      ##                                
            ,#'     '#,  ##    ##  ,#'     '#,    #''#        ######   ,####,        
            ##       ##  ##   ,#'  ##            #'  '#       #        #'  '#        
            ##       ##  #######   ##           ,######,      #####,   #    #        
            '#,     ,#'  ##    ##  '#,     ,#' ,#      #,         ##   #,  ,#        
             '#######'   ##     ##  '#######'  #'      '#     #####' # '####'        



                  #######################################################
                  #                        -***-                        #
                  #          Department of theory and spectroscopy      #
                  #    Directorship and core code : Frank Neese         #
                  #        Max Planck Institute fuer Kohlenforschung    #
                  #                Kaiser Wilhelm Platz 1               #
                  #                 D-45470 Muelheim/Ruhr               #
                  #                      Germany                        #
                  #                                                     #
                  #                  All rights reserved                #
                  #                        -***-                        #
                  #######################################################


                         Program Version 5.0.2 -  RELEASE  -


 With contributions from (in alphabetic order):
   Daniel Aravena         : Magnetic Suceptibility
   Michael Atanasov       : Ab Initio Ligand Field Theory (pilot matlab implementation)
   Alexander A. Auer      : GIAO ZORA, VPT2 properties, NMR spectrum
   Ute Becker             : Parallelization
   Giovanni Bistoni       : ED, misc. LED, open-shell LED, HFLD
   Martin Brehm           : Molecular dynamics
   Dmytro Bykov           : SCF Hessian
   Vijay G. Chilkuri      : MRCI spin determinant printing, contributions to CSF-ICE
   Dipayan Datta          : RHF DLPNO-CCSD density
   Achintya Kumar Dutta   : EOM-CC, STEOM-CC
   Dmitry Ganyushin       : Spin-Orbit,Spin-Spin,Magnetic field MRCI
   Miquel Garcia          : C-PCM and meta-GGA Hessian, CC/C-PCM, Gaussian charge scheme
   Yang Guo               : DLPNO-NEVPT2, F12-NEVPT2, CIM, IAO-localization
   Andreas Hansen         : Spin unrestricted coupled pair/coupled cluster methods
   Benjamin Helmich-Paris : MC-RPA, TRAH-SCF, COSX integrals
   Lee Huntington         : MR-EOM, pCC
   Robert Izsak           : Overlap fitted RIJCOSX, COSX-SCS-MP3, EOM
   Marcus Kettner         : VPT2
   Christian Kollmar      : KDIIS, OOCD, Brueckner-CCSD(T), CCSD density, CASPT2, CASPT2-K
   Simone Kossmann        : Meta GGA functionals, TD-DFT gradient, OOMP2, MP2 Hessian
   Martin Krupicka        : Initial AUTO-CI
   Lucas Lang             : DCDCAS
   Marvin Lechner         : AUTO-CI (C++ implementation), FIC-MRCC
   Dagmar Lenk            : GEPOL surface, SMD
   Dimitrios Liakos       : Extrapolation schemes; Compound Job, initial MDCI parallelization
   Dimitrios Manganas     : Further ROCIS development; embedding schemes
   Dimitrios Pantazis     : SARC Basis sets
   Anastasios Papadopoulos: AUTO-CI, single reference methods and gradients
   Taras Petrenko         : DFT Hessian,TD-DFT gradient, ASA, ECA, R-Raman, ABS, FL, XAS/XES, NRVS
   Peter Pinski           : DLPNO-MP2, DLPNO-MP2 Gradient
   Christoph Reimann      : Effective Core Potentials
   Marius Retegan         : Local ZFS, SOC
   Christoph Riplinger    : Optimizer, TS searches, QM/MM, DLPNO-CCSD(T), (RO)-DLPNO pert. Triples
   Tobias Risthaus        : Range-separated hybrids, TD-DFT gradient, RPA, STAB
   Michael Roemelt        : Original ROCIS implementation
   Masaaki Saitow         : Open-shell DLPNO-CCSD energy and density
   Barbara Sandhoefer     : DKH picture change effects
   Avijit Sen             : IP-ROCIS
   Kantharuban Sivalingam : CASSCF convergence, NEVPT2, FIC-MRCI
   Bernardo de Souza      : ESD, SOC TD-DFT
   Georgi Stoychev        : AutoAux, RI-MP2 NMR, DLPNO-MP2 response
   Willem Van den Heuvel  : Paramagnetic NMR
   Boris Wezisla          : Elementary symmetry handling
   Frank Wennmohs         : Technical directorship


 We gratefully acknowledge several colleagues who have allowed us to
 interface, adapt or use parts of their codes:
   Stefan Grimme, W. Hujo, H. Kruse, P. Pracht,  : VdW corrections, initial TS optimization,
                  C. Bannwarth, S. Ehlert          DFT functionals, gCP, sTDA/sTD-DF
   Ed Valeev, F. Pavosevic, A. Kumar             : LibInt (2-el integral package), F12 methods
   Garnet Chan, S. Sharma, J. Yang, R. Olivares  : DMRG
   Ulf Ekstrom                                   : XCFun DFT Library
   Mihaly Kallay                                 : mrcc  (arbitrary order and MRCC methods)
   Jiri Pittner, Ondrej Demel                    : Mk-CCSD
   Frank Weinhold                                : gennbo (NPA and NBO analysis)
   Christopher J. Cramer and Donald G. Truhlar   : smd solvation model
   Lars Goerigk                                  : TD-DFT with DH, B97 family of functionals
   V. Asgeirsson, H. Jonsson                     : NEB implementation
   FAccTs GmbH                                   : IRC, NEB, NEB-TS, DLPNO-Multilevel, CI-OPT
                                                   MM, QMMM, 2- and 3-layer-ONIOM, Crystal-QMMM,
                                                   LR-CPCM, SF, NACMEs, symmetry and pop. for TD-DFT,
                                                   nearIR, NL-DFT gradient (VV10), updates on ESD,
                                                   ML-optimized integration grids
   S Lehtola, MJT Oliveira, MAL Marques          : LibXC Library
   Liviu Ungur et al                             : ANISO software


 Your calculation uses the libint2 library for the computation of 2-el integrals
 For citations please refer to: http://libint.valeyev.net

 Your ORCA version has been built with support for libXC version: 5.1.0
 For citations please refer to: https://tddft.org/programs/libxc/

 This ORCA versions uses:
   CBLAS   interface :  Fast vector & matrix operations
   LAPACKE interface :  Fast linear algebra routines
   SCALAPACK package :  Parallel linear algebra routines
   Shared memory     :  Shared parallel matrices
   BLAS/LAPACK       :  OpenBLAS 0.3.15  USE64BITINT DYNAMIC_ARCH NO_AFFINITY Zen SINGLE_THREADED
        Core in use  :  Zen
   Copyright (c) 2011-2014, The OpenBLAS Project


Your calculation utilizes the atom-pairwise dispersion correction
based on tight binding partial charges (D4)
Cite in your paper:
E.Caldeweyher, C.Bannwarth, S.Grimme, J.Chem.Phys., (2017), 147, 034112.
E.Caldeweyher, S.Ehlert, A.Hansen, H.Neugebauer, S.Grimme, J.Chem.Phys., (2018), in progress.
   

================================================================================

----- Orbital basis set information -----
Your calculation utilizes the basis: pcSseg-1
   F. Jensen, J. Chem. Theory Comput. 11, 132 (2015).

----- AuxJ basis set information -----
Your calculation utilizes the auxiliary basis: def2/J
   F. Weigend, Phys. Chem. Chem. Phys. 8, 1057 (2006).

================================================================================
                                        WARNINGS
                       Please study these warnings very carefully!
================================================================================



WARNING: Found flag for RIJCOSX approximation but no HF exchange needed!
  ===> : RIJCOSX  will be disabled and Split-RI-J is turned on

INFO   : the flag for use of the SHARK integral package has been found!

================================================================================
                                       INPUT FILE
================================================================================
NAME = inpS
|  1> ! revTPSS
|  2> ! D4
|  3> ! pcSseg-1
|  4> ! def2/J RIJCOSX
|  5> ! DEFGRID2
|  6> ! scfconv7
|  7> ! smallprint printgap noloewdin
|  8> ! NOSOSCF
|  9> %MaxCore 4000
| 10> %output
| 11>        print[P_BondOrder_M] 1
| 12>        print[P_Mayer] 1
| 13>        print[P_basis] 2
| 14> end
| 15> %pal
| 16>     nprocs 4
| 17> end
| 18> ! CPCM(chloroform)
| 19> *xyz 0 1
| 20> C   -5.0207103100   0.3046406100   0.3236680900
| 21> C   -6.4269711900  -0.1326767100  -0.0126531700
| 22> C   -6.9809103000   0.6197688000  -1.2286278200
| 23> H   -7.0925836500   0.0886533000   0.8389792000
| 24> H   -6.4636488800  -1.2126048900  -0.1933154700
| 25> C   -4.8502562000   1.7693149100   0.4295897600
| 26> C   -5.4493190900   2.5535336700  -0.7160046400
| 27> C   -6.8946984500   2.1251919700  -1.0039005900
| 28> H   -4.8459679100   2.3670002900  -1.6174300600
| 29> H   -5.3994948200   3.6272111200  -0.5062850600
| 30> H   -7.2787039100   2.6529852000  -1.8848114900
| 31> H   -7.5357458700   2.3910182000  -0.1498069500
| 32> O   -8.3182050900   0.2015715300  -1.5321683400
| 33> H   -6.3922335000   0.3490338100  -2.1163258700
| 34> C   -4.0252771400  -0.6029624300   0.4616803500
| 35> C   -4.2577914400   2.3679662700   1.4692100100
| 36> H   -3.8557481900   1.7935483000   2.2990732000
| 37> H   -4.1725525900   3.4510216600   1.5164662600
| 38> C   -2.6274838700  -0.3171397200   0.6871449900
| 39> H   -4.3101325900  -1.6482703700   0.3501422600
| 40> C   -1.6485310600  -1.2225970200   0.9003643400
| 41> H   -2.3476412200   0.7337347800   0.6704684900
| 42> C   -1.8371166700  -2.7149949500   1.0042625300
| 43> C   -0.8926951400  -3.4797030100   0.0576963200
| 44> H   -2.8719961700  -3.0167735300   0.8209262700
| 45> H   -1.5996842300  -3.0120378800   2.0384648500
| 46> C    0.5706208000  -3.0380055100   0.1980769500
| 47> H   -1.2263571000  -3.3324269600  -0.9772174700
| 48> H   -0.9729311700  -4.5547076100   0.2606586600
| 49> C    0.7265030400  -1.5199007600   0.0336615900
| 50> H    1.1780342400  -3.5827449100  -0.5321909600
| 51> H    0.9395056500  -3.3192660800   1.1960536700
| 52> C   -0.2118896000  -0.8372057600   1.0787820000
| 53> H    0.1039198100  -1.2608403900   2.0502913100
| 54> C    0.2190085900   0.6264777200   1.0676243000
| 55> H   -8.8733564600   0.4279343100  -0.7739776600
| 56> C    1.7510356200   0.5516188800   0.8538709300
| 57> H   -0.0580487500   1.1449763500   1.9915852300
| 58> H   -0.2572810900   1.1645586200   0.2403592900
| 59> C    2.0900013000  -0.9221397500   0.4781153100
| 60> H    2.3045150200   0.8581047300   1.7470912400
| 61> H    2.0680223900   1.2255077400   0.0491366300
| 62> H    2.3789823000  -1.4604637100   1.3957277100
| 63> C    3.2893335800  -0.9973476500  -0.4879916800
| 64> C    0.3738804500  -1.0799021500  -1.3933897400
| 65> H   -0.6891741900  -1.2285213400  -1.6065931400
| 66> H    0.9492271100  -1.6535829000  -2.1284672800
| 67> H    0.5939145700  -0.0197648500  -1.5539800600
| 68> H    3.0342776400  -0.4392096500  -1.4011182000
| 69> C    3.6711469700  -2.4330646700  -0.8794597000
| 70> C    4.4809298900  -0.3275656500   0.1434034100
| 71> C    5.1388984800   0.7139602300  -0.3614837400
| 72> H    4.8237912000  -0.7646807300   1.0867305900
| 73> H    4.7950002200   1.1494047900  -1.3053562900
| 74> C    6.3246847400   1.3887491100   0.2696697100
| 75> C    5.9409096300   2.8287072900   0.6476902900
| 76> C    7.5574954400   1.3381917600  -0.6664346500
| 77> H    6.5836927700   0.8419383300   1.1905915900
| 78> H    7.2757196500   1.8459357400  -1.6032832400
| 79> C    7.9359580000  -0.1080476900  -0.9965249900
| 80> C    8.7642221000   2.0672756000  -0.0683424200
| 81> H    5.0199123100   2.8341044300   1.2398910600
| 82> H    5.7665577900   3.4294723400  -0.2538796500
| 83> H    6.7227450300   3.3172999100   1.2365021800
| 84> H    8.7978784400  -0.1403041800  -1.6719965900
| 85> H    7.1078559400  -0.6449534400  -1.4689602600
| 86> H    8.2054783000  -0.6493454700  -0.0800834900
| 87> H    9.0086195400   1.6557666300   0.9196227000
| 88> H    8.5889769800   3.1408322400   0.0448965100
| 89> H    9.6434753600   1.9405464900  -0.7095310600
| 90> H    4.6035660700  -2.4327916900  -1.4542582100
| 91> H    2.8991978000  -2.9046256700  -1.4928215200
| 92> H    3.8231473200  -3.0522019800   0.0131575500
| 93> *
| 94> %eprnmr
| 95>  Nuclei = all H { shift }
| 96>  origin giao
| 97>  giao_2el giao_2el_same_as_scf
| 98>  giao_1el giao_1el_analytic
| 99> end
|100> 
|101>                          ****END OF INPUT****
================================================================================

                       ****************************
                       * Single Point Calculation *
                       ****************************

---------------------------------
CARTESIAN COORDINATES (ANGSTROEM)
---------------------------------
  C     -5.020710    0.304641    0.323668
  C     -6.426971   -0.132677   -0.012653
  C     -6.980910    0.619769   -1.228628
  H     -7.092584    0.088653    0.838979
  H     -6.463649   -1.212605   -0.193315
  C     -4.850256    1.769315    0.429590
  C     -5.449319    2.553534   -0.716005
  C     -6.894698    2.125192   -1.003901
  H     -4.845968    2.367000   -1.617430
  H     -5.399495    3.627211   -0.506285
  H     -7.278704    2.652985   -1.884811
  H     -7.535746    2.391018   -0.149807
  O     -8.318205    0.201572   -1.532168
  H     -6.392233    0.349034   -2.116326
  C     -4.025277   -0.602962    0.461680
  C     -4.257791    2.367966    1.469210
  H     -3.855748    1.793548    2.299073
  H     -4.172553    3.451022    1.516466
  C     -2.627484   -0.317140    0.687145
  H     -4.310133   -1.648270    0.350142
  C     -1.648531   -1.222597    0.900364
  H     -2.347641    0.733735    0.670468
  C     -1.837117   -2.714995    1.004263
  C     -0.892695   -3.479703    0.057696
  H     -2.871996   -3.016774    0.820926
  H     -1.599684   -3.012038    2.038465
  C      0.570621   -3.038006    0.198077
  H     -1.226357   -3.332427   -0.977217
  H     -0.972931   -4.554708    0.260659
  C      0.726503   -1.519901    0.033662
  H      1.178034   -3.582745   -0.532191
  H      0.939506   -3.319266    1.196054
  C     -0.211890   -0.837206    1.078782
  H      0.103920   -1.260840    2.050291
  C      0.219009    0.626478    1.067624
  H     -8.873356    0.427934   -0.773978
  C      1.751036    0.551619    0.853871
  H     -0.058049    1.144976    1.991585
  H     -0.257281    1.164559    0.240359
  C      2.090001   -0.922140    0.478115
  H      2.304515    0.858105    1.747091
  H      2.068022    1.225508    0.049137
  H      2.378982   -1.460464    1.395728
  C      3.289334   -0.997348   -0.487992
  C      0.373880   -1.079902   -1.393390
  H     -0.689174   -1.228521   -1.606593
  H      0.949227   -1.653583   -2.128467
  H      0.593915   -0.019765   -1.553980
  H      3.034278   -0.439210   -1.401118
  C      3.671147   -2.433065   -0.879460
  C      4.480930   -0.327566    0.143403
  C      5.138898    0.713960   -0.361484
  H      4.823791   -0.764681    1.086731
  H      4.795000    1.149405   -1.305356
  C      6.324685    1.388749    0.269670
  C      5.940910    2.828707    0.647690
  C      7.557495    1.338192   -0.666435
  H      6.583693    0.841938    1.190592
  H      7.275720    1.845936   -1.603283
  C      7.935958   -0.108048   -0.996525
  C      8.764222    2.067276   -0.068342
  H      5.019912    2.834104    1.239891
  H      5.766558    3.429472   -0.253880
  H      6.722745    3.317300    1.236502
  H      8.797878   -0.140304   -1.671997
  H      7.107856   -0.644953   -1.468960
  H      8.205478   -0.649345   -0.080083
  H      9.008620    1.655767    0.919623
  H      8.588977    3.140832    0.044897
  H      9.643475    1.940546   -0.709531
  H      4.603566   -2.432792   -1.454258
  H      2.899198   -2.904626   -1.492822
  H      3.823147   -3.052202    0.013158

----------------------------
CARTESIAN COORDINATES (A.U.)
----------------------------
  NO LB      ZA    FRAG     MASS         X           Y           Z
   0 C     6.0000    0    12.011   -9.487767    0.575687    0.611644
   1 C     6.0000    0    12.011  -12.145215   -0.250723   -0.023911
   2 C     6.0000    0    12.011  -13.192009    1.171193   -2.321770
   3 H     1.0000    0     1.008  -13.403041    0.167530    1.585441
   4 H     1.0000    0     1.008  -12.214526   -2.291491   -0.365313
   5 C     6.0000    0    12.011   -9.165656    3.343521    0.811807
   6 C     6.0000    0    12.011  -10.297721    4.825479   -1.353053
   7 C     6.0000    0    12.011  -13.029092    4.016031   -1.897097
   8 H     1.0000    0     1.008   -9.157552    4.472982   -3.056500
   9 H     1.0000    0     1.008  -10.203566    6.854436   -0.956740
  10 H     1.0000    0     1.008  -13.754757    5.013415   -3.561778
  11 H     1.0000    0     1.008  -14.240496    4.518370   -0.283094
  12 O     8.0000    0    15.999  -15.719130    0.380915   -2.895379
  13 H     1.0000    0     1.008  -12.079571    0.659578   -3.999276
  14 C     6.0000    0    12.011   -7.606671   -1.139434    0.872449
  15 C     6.0000    0    12.011   -8.046060    4.474808    2.776405
  16 H     1.0000    0     1.008   -7.286308    3.389315    4.344619
  17 H     1.0000    0     1.008   -7.884982    6.521486    2.865706
  18 C     6.0000    0    12.011   -4.965225   -0.599307    1.298516
  19 H     1.0000    0     1.008   -8.144970   -3.114780    0.661673
  20 C     6.0000    0    12.011   -3.115272   -2.310374    1.701442
  21 H     1.0000    0     1.008   -4.436399    1.386558    1.267002
  22 C     6.0000    0    12.011   -3.471647   -5.130597    1.897781
  23 C     6.0000    0    12.011   -1.686949   -6.575686    0.109030
  24 H     1.0000    0     1.008   -5.427286   -5.700876    1.551326
  25 H     1.0000    0     1.008   -3.022965   -5.691927    3.852140
  26 C     6.0000    0    12.011    1.078317   -5.740998    0.374311
  27 H     1.0000    0     1.008   -2.317479   -6.297374   -1.846673
  28 H     1.0000    0     1.008   -1.838573   -8.607150    0.492573
  29 C     6.0000    0    12.011    1.372892   -2.872196    0.063611
  30 H     1.0000    0     1.008    2.226162   -6.770407   -1.005695
  31 H     1.0000    0     1.008    1.775408   -6.272504    2.260214
  32 C     6.0000    0    12.011   -0.400413   -1.582090    2.038603
  33 H     1.0000    0     1.008    0.196380   -2.382643    3.874489
  34 C     6.0000    0    12.011    0.413866    1.183871    2.017518
  35 H     1.0000    0     1.008  -16.768214    0.808679   -1.462606
  36 C     6.0000    0    12.011    3.308978    1.042409    1.613582
  37 H     1.0000    0     1.008   -0.109696    2.163692    3.763551
  38 H     1.0000    0     1.008   -0.486191    2.200697    0.454213
  39 C     6.0000    0    12.011    3.949530   -1.742592    0.903507
  40 H     1.0000    0     1.008    4.354902    1.621583    3.301524
  41 H     1.0000    0     1.008    3.907996    2.315874    0.092855
  42 H     1.0000    0     1.008    4.495625   -2.759876    2.637543
  43 C     6.0000    0    12.011    6.215940   -1.884714   -0.922171
  44 C     6.0000    0    12.011    0.706532   -2.040719   -2.633125
  45 H     1.0000    0     1.008   -1.302350   -2.321569   -3.036021
  46 H     1.0000    0     1.008    1.793779   -3.124819   -4.022220
  47 H     1.0000    0     1.008    1.122336   -0.037350   -2.936597
  48 H     1.0000    0     1.008    5.733954   -0.829986   -2.647730
  49 C     6.0000    0    12.011    6.937462   -4.597826   -1.661938
  50 C     6.0000    0    12.011    8.467730   -0.619009    0.270993
  51 C     6.0000    0    12.011    9.711111    1.349189   -0.683105
  52 H     1.0000    0     1.008    9.115644   -1.445037    2.053623
  53 H     1.0000    0     1.008    9.061237    2.172060   -2.466766
  54 C     6.0000    0    12.011   11.951922    2.624355    0.509602
  55 C     6.0000    0    12.011   11.226692    5.345482    1.223957
  56 C     6.0000    0    12.011   14.281597    2.528816   -1.259379
  57 H     1.0000    0     1.008   12.441376    1.591033    2.249892
  58 H     1.0000    0     1.008   13.749118    3.488313   -3.029766
  59 C     6.0000    0    12.011   14.996787   -0.204181   -1.883159
  60 C     6.0000    0    12.011   16.561980    3.906585   -0.129148
  61 H     1.0000    0     1.008    9.486259    5.355681    2.343055
  62 H     1.0000    0     1.008   10.897215    6.480764   -0.479763
  63 H     1.0000    0     1.008   12.704147    6.268788    2.336650
  64 H     1.0000    0     1.008   16.625581   -0.265136   -3.159616
  65 H     1.0000    0     1.008   13.431901   -1.218785   -2.775933
  66 H     1.0000    0     1.008   15.506107   -1.227085   -0.151336
  67 H     1.0000    0     1.008   17.023824    3.128945    1.737835
  68 H     1.0000    0     1.008   16.230814    5.935313    0.084842
  69 H     1.0000    0     1.008   18.223527    3.667101   -1.340819
  70 H     1.0000    0     1.008    8.699479   -4.597310   -2.748150
  71 H     1.0000    0     1.008    5.478690   -5.488947   -2.821024
  72 H     1.0000    0     1.008    7.224701   -5.767826    0.024864

--------------------------------
INTERNAL COORDINATES (ANGSTROEM)
--------------------------------
 C      0   0   0     0.000000000000     0.00000000     0.00000000
 C      1   0   0     1.510605206835     0.00000000     0.00000000
 C      2   1   0     1.533498331447   111.76287202     0.00000000
 H      2   1   3     1.103315283074   109.37109983   241.45376024
 H      2   1   3     1.095549630799   110.68629056   122.88888503
 C      1   2   3     1.478358822773   114.21145422    50.41736885
 C      6   1   2     1.512039000496   114.44903301   312.14407649
 C      3   2   1     1.524543778236   110.31657811   305.04063025
 H      7   6   1     1.100633970075   108.38679477   289.89269984
 H      7   6   1     1.095101833966   110.20512969   172.69696033
 H      8   3   2     1.096371242181   109.70139893   179.13298433
 H      8   3   2     1.100491401663   108.66198905   296.58108851
 O      3   2   1     1.433660754599   111.20473155   180.35135358
 H      3   2   1     1.099020308112   109.03304520    65.18954736
 C      1   2   3     1.354133618984   120.86294251   232.52581474
 C      6   1   2     1.337986624328   123.36778454   129.95752567
 H     16   6   1     1.086401257937   121.38745666     0.63562800
 H     16   6   1     1.087431741546   120.93743258   181.32968816
 C     15   1   2     1.444422012813   126.48816441   175.34921275
 H     15   1   2     1.089151992305   116.14019372   357.98690865
 C     19  15   1     1.350431048793   126.40468897   175.94832499
 H     19  15   1     1.087624580984   115.96307220   355.25016505
 C     21  19  15     1.507849776222   125.72097100   357.16147096
 C     23  21  19     1.540356463053   111.85977193   127.90557231
 H     23  21  19     1.093461510570   112.33195604     3.77321085
 H     23  21  19     1.101899770633   107.73008072   246.58192402
 C     24  23  21     1.534958287070   112.67132469    50.80048242
 H     24  23  21     1.097299909408   109.05692963   288.70802972
 H     24  23  21     1.096935012656   109.14594561   172.74669426
 C     27  24  23     1.534918146132   111.81601895   306.21829418
 H     27  24  23     1.094980968502   108.94641688   182.69661003
 H     27  24  23     1.100518547985   109.20436692    66.19939191
 C     21  19  15     1.498098117373   122.78561043   177.81721440
 H     33  21  19     1.105907872563   106.25594835   123.97057549
 C     33  21  19     1.525833239263   121.11257847     1.77862401
 H     13   3   2     0.966584843157   107.53861638    62.63567197
 C     35  33  21     1.548677232274   103.53307245   196.31168569
 H     35  33  21     1.095128028646   112.12075695    74.27855971
 H     35  33  21     1.095787530039   110.72095820   314.69778320
 C     30  27  24     1.553700369866   116.04024178   166.28321788
 H     37  35  33     1.094584644818   111.96558755   249.35548842
 H     37  35  33     1.096450683608   110.95209598   130.76949861
 H     40  30  27     1.102413362086   106.27702326   320.81889514
 C     40  30  27     1.541887434996   118.98677357    81.59534433
 C     30  27  24     1.534410950898   111.09381445   294.22228357
 H     45  30  27     1.094362152595   111.43721949    66.69098055
 H     45  30  27     1.095660701087   110.67940660   306.54478300
 H     45  30  27     1.094575424397   111.59137362   186.68787414
 H     44  40  30     1.100168896625   108.35934318    61.32743281
 C     44  40  30     1.536330705605   113.48739452   300.52416170
 C     44  40  30     1.505712274376   109.33705045   178.58348198
 C     51  44  40     1.331393953108   125.45479355   239.35493740
 H     51  44  40     1.094755515896   115.56717250    60.45509412
 H     52  51  44     1.094885093838   118.86900885     1.09276626
 C     52  51  44     1.503257717234   125.57471006   179.69339327
 C     55  52  51     1.537420714739   109.07206895   244.90788961
 C     55  52  51     1.548763907277   111.06749305   120.73731395
 H     55  52  51     1.101900312093   108.27375769     2.84254959
 H     57  55  52     1.102219046125   107.16996967    59.10020119
 C     57  55  52     1.530948101217   110.97338553   300.95927546
 C     57  55  52     1.531491688939   112.06232537   177.78016115
 H     56  55  52     1.094973490344   110.33803514    51.82187047
 H     56  55  52     1.097335667025   110.51280980   292.52022508
 H     56  55  52     1.093932714026   111.85532773   171.98075321
 H     60  57  55     1.095540601002   110.80843674   179.06011495
 H     60  57  55     1.094173610767   111.68761924    58.16093512
 H     60  57  55     1.097956967129   110.26989870   298.42984135
 H     61  57  55     1.097790881455   110.39095477    56.03120051
 H     61  57  55     1.093644259638   112.42626099   295.25277034
 H     61  57  55     1.095568087618   110.41018191   175.05234288
 H     50  44  40     1.095353267061   110.18392996   187.52725145
 H     50  44  40     1.092926356173   111.75725718    67.61160846
 H     50  44  40     1.096905041483   110.76658816   306.98149842

---------------------------
INTERNAL COORDINATES (A.U.)
---------------------------
 C      0   0   0     0.000000000000     0.00000000     0.00000000
 C      1   0   0     2.854630137394     0.00000000     0.00000000
 C      2   1   0     2.897891873259   111.76287202     0.00000000
 H      2   1   3     2.084963724381   109.37109983   241.45376024
 H      2   1   3     2.070288768328   110.68629056   122.88888503
 C      1   2   3     2.793693302708   114.21145422    50.41736885
 C      6   1   2     2.857339614746   114.44903301   312.14407649
 C      3   2   1     2.880970220039   110.31657811   305.04063025
 H      7   6   1     2.079896777133   108.38679477   289.89269984
 H      7   6   1     2.069442554950   110.20512969   172.69696033
 H      8   3   2     2.071841388830   109.70139893   179.13298433
 H      8   3   2     2.079627361877   108.66198905   296.58108851
 O      3   2   1     2.709226195144   111.20473155   180.35135358
 H      3   2   1     2.076847397949   109.03304520    65.18954736
 C      1   2   3     2.558941688616   120.86294251   232.52581474
 C      6   1   2     2.528428290830   123.36778454   129.95752567
 H     16   6   1     2.053000849048   121.38745666     0.63562800
 H     16   6   1     2.054948180855   120.93743258   181.32968816
 C     15   1   2     2.729562026024   126.48816441   175.34921275
 H     15   1   2     2.058198983672   116.14019372   357.98690865
 C     19  15   1     2.551944844963   126.40468897   175.94832499
 H     19  15   1     2.055312594581   115.96307220   355.25016505
 C     21  19  15     2.849423128154   125.72097100   357.16147096
 C     23  21  19     2.910851863786   111.85977193   127.90557231
 H     23  21  19     2.066342792961   112.33195604     3.77321085
 H     23  21  19     2.082288793527   107.73008072   246.58192402
 C     24  23  21     2.900650789554   112.67132469    50.80048242
 H     24  23  21     2.073596315558   109.05692963   288.70802972
 H     24  23  21     2.072906760628   109.14594561   172.74669426
 C     27  24  23     2.900574934175   111.81601895   306.21829418
 H     27  24  23     2.069214152324   108.94641688   182.69661003
 H     27  24  23     2.079678660992   109.20436692    66.19939191
 C     21  19  15     2.830995163577   122.78561043   177.81721440
 H     33  21  19     2.089863008491   106.25594835   123.97057549
 C     33  21  19     2.883406948241   121.11257847     1.77862401
 H     13   3   2     1.826580638766   107.53861638    62.63567197
 C     35  33  21     2.926575838837   103.53307245   196.31168569
 H     35  33  21     2.069492055722   112.12075695    74.27855971
 H     35  33  21     2.070738332740   110.72095820   314.69778320
 C     30  27  24     2.936068193218   116.04024178   166.28321788
 H     37  35  33     2.068465209101   111.96558755   249.35548842
 H     37  35  33     2.071991511369   110.95209598   130.76949861
 H     40  30  27     2.083259340717   106.27702326   320.81889514
 C     40  30  27     2.913744981477   118.98677357    81.59534433
 C     30  27  24     2.899616474086   111.09381445   294.22228357
 H     45  30  27     2.068044759734   111.43721949    66.69098055
 H     45  30  27     2.070498660754   110.67940660   306.54478300
 H     45  30  27     2.068447785030   111.59137362   186.68787414
 H     44  40  30     2.079017915679   108.35934318    61.32743281
 C     44  40  30     2.903244284727   113.48739452   300.52416170
 C     44  40  30     2.845383835054   109.33705045   178.58348198
 C     51  44  40     2.515969947732   125.45479355   239.35493740
 H     51  44  40     2.068788108643   115.56717250    60.45509412
 H     52  51  44     2.069032975466   118.86900885     1.09276626
 C     52  51  44     2.840745394276   125.57471006   179.69339327
 C     55  52  51     2.905304103474   109.07206895   244.90788961
 C     55  52  51     2.926739630856   111.06749305   120.73731395
 H     55  52  51     2.082289816739   108.27375769     2.84254959
 H     57  55  52     2.082892136769   107.16996967    59.10020119
 C     57  55  52     2.893072636547   110.97338553   300.95927546
 C     57  55  52     2.894099868472   112.06232537   177.78016115
 H     56  55  52     2.069200020654   110.33803514    51.82187047
 H     56  55  52     2.073663887660   110.51280980   292.52022508
 H     56  55  52     2.067233238447   111.85532773   171.98075321
 H     60  57  55     2.070271704485   110.80843674   179.06011495
 H     60  57  55     2.067688467314   111.68761924    58.16093512
 H     60  57  55     2.074837974705   110.26989870   298.42984135
 H     61  57  55     2.074524118266   110.39095477    56.03120051
 H     61  57  55     2.066688138651   112.42626099   295.25277034
 H     61  57  55     2.070323646662   110.41018191   175.05234288
 H     50  44  40     2.069917694641   110.18392996   187.52725145
 H     50  44  40     2.065331497712   111.75725718    67.61160846
 H     50  44  40     2.072850123321   110.76658816   306.98149842

---------------------
BASIS SET INFORMATION
---------------------
There are 3 groups of distinct atoms

 Group   1 Type C   : 8s5p1d contracted to 3s3p1d pattern {521/311/1}
 Group   2 Type H   : 4s2p contracted to 2s1p pattern {31/2}
 Group   3 Type O   : 8s5p1d contracted to 3s3p1d pattern {521/311/1}

Atom   0C    basis set group =>   1
Atom   1C    basis set group =>   1
Atom   2C    basis set group =>   1
Atom   3H    basis set group =>   2
Atom   4H    basis set group =>   2
Atom   5C    basis set group =>   1
Atom   6C    basis set group =>   1
Atom   7C    basis set group =>   1
Atom   8H    basis set group =>   2
Atom   9H    basis set group =>   2
Atom  10H    basis set group =>   2
Atom  11H    basis set group =>   2
Atom  12O    basis set group =>   3
Atom  13H    basis set group =>   2
Atom  14C    basis set group =>   1
Atom  15C    basis set group =>   1
Atom  16H    basis set group =>   2
Atom  17H    basis set group =>   2
Atom  18C    basis set group =>   1
Atom  19H    basis set group =>   2
Atom  20C    basis set group =>   1
Atom  21H    basis set group =>   2
Atom  22C    basis set group =>   1
Atom  23C    basis set group =>   1
Atom  24H    basis set group =>   2
Atom  25H    basis set group =>   2
Atom  26C    basis set group =>   1
Atom  27H    basis set group =>   2
Atom  28H    basis set group =>   2
Atom  29C    basis set group =>   1
Atom  30H    basis set group =>   2
Atom  31H    basis set group =>   2
Atom  32C    basis set group =>   1
Atom  33H    basis set group =>   2
Atom  34C    basis set group =>   1
Atom  35H    basis set group =>   2
Atom  36C    basis set group =>   1
Atom  37H    basis set group =>   2
Atom  38H    basis set group =>   2
Atom  39C    basis set group =>   1
Atom  40H    basis set group =>   2
Atom  41H    basis set group =>   2
Atom  42H    basis set group =>   2
Atom  43C    basis set group =>   1
Atom  44C    basis set group =>   1
Atom  45H    basis set group =>   2
Atom  46H    basis set group =>   2
Atom  47H    basis set group =>   2
Atom  48H    basis set group =>   2
Atom  49C    basis set group =>   1
Atom  50C    basis set group =>   1
Atom  51C    basis set group =>   1
Atom  52H    basis set group =>   2
Atom  53H    basis set group =>   2
Atom  54C    basis set group =>   1
Atom  55C    basis set group =>   1
Atom  56C    basis set group =>   1
Atom  57H    basis set group =>   2
Atom  58H    basis set group =>   2
Atom  59C    basis set group =>   1
Atom  60C    basis set group =>   1
Atom  61H    basis set group =>   2
Atom  62H    basis set group =>   2
Atom  63H    basis set group =>   2
Atom  64H    basis set group =>   2
Atom  65H    basis set group =>   2
Atom  66H    basis set group =>   2
Atom  67H    basis set group =>   2
Atom  68H    basis set group =>   2
Atom  69H    basis set group =>   2
Atom  70H    basis set group =>   2
Atom  71H    basis set group =>   2
Atom  72H    basis set group =>   2

-------------------------
BASIS SET IN INPUT FORMAT
-------------------------

 # Basis set for element : H 
 NewGTO H 
 S 3 
   1      12.2518000000      0.0372173893
   2       1.8687100000      0.2538082070
   3       0.4182080000      0.7973867639
 S 1 
   1       0.1061000000      1.0000000000
 P 2 
   1       9.0000000000      0.0402678705
   2       1.0000000000      0.9880231245
  end;

 # Basis set for element : C 
 NewGTO C 
 S 5 
   1    1243.2000000000      0.0056300977
   2     187.1450000000      0.0419506039
   3      42.5126000000      0.1846643605
   4      11.7393000000      0.4665574214
   5       3.5054800000      0.4482347783
 S 2 
   1       5.3908900000     -0.1481148174
   2       0.4933410000      1.0519817143
 S 1 
   1       0.1497410000      1.0000000000
 P 3 
   1      59.6736000000      0.0113906672
   2       9.1805600000      0.1672414929
   3       1.9365800000      0.9041087436
 P 1 
   1       0.5262960000      1.0000000000
 P 1 
   1       0.1363190000      1.0000000000
 D 1 
   1       0.8000000000      1.0000000000
  end;

 # Basis set for element : O 
 NewGTO O 
 S 5 
   1    2288.6400000000      0.0054511382
   2     344.4160000000      0.0407189228
   3      78.2538000000      0.1813694209
   4      21.7195000000      0.4655368202
   5       6.5590700000      0.4512113212
 S 2 
   1      10.4656000000     -0.1502112012
   2       0.9643510000      1.0528679834
 S 1 
   1       0.2851270000      1.0000000000
 P 3 
   1     110.8840000000      0.0113058003
   2      17.0590000000      0.1699226452
   3       3.6899900000      0.9008060328
 P 1 
   1       0.9929960000      1.0000000000
 P 1 
   1       0.2449240000      1.0000000000
 D 1 
   1       1.0000000000      1.0000000000
  end;

---------------------------------
AUXILIARY/J BASIS SET INFORMATION
---------------------------------
There are 3 groups of distinct atoms

 Group   1 Type C   : 12s5p4d2f1g contracted to 6s4p3d1f1g pattern {711111/2111/211/2/1}
 Group   2 Type H   : 5s2p1d contracted to 3s1p1d pattern {311/2/1}
 Group   3 Type O   : 12s5p4d2f1g contracted to 6s4p3d1f1g pattern {711111/2111/211/2/1}

Atom   0C    basis set group =>   1
Atom   1C    basis set group =>   1
Atom   2C    basis set group =>   1
Atom   3H    basis set group =>   2
Atom   4H    basis set group =>   2
Atom   5C    basis set group =>   1
Atom   6C    basis set group =>   1
Atom   7C    basis set group =>   1
Atom   8H    basis set group =>   2
Atom   9H    basis set group =>   2
Atom  10H    basis set group =>   2
Atom  11H    basis set group =>   2
Atom  12O    basis set group =>   3
Atom  13H    basis set group =>   2
Atom  14C    basis set group =>   1
Atom  15C    basis set group =>   1
Atom  16H    basis set group =>   2
Atom  17H    basis set group =>   2
Atom  18C    basis set group =>   1
Atom  19H    basis set group =>   2
Atom  20C    basis set group =>   1
Atom  21H    basis set group =>   2
Atom  22C    basis set group =>   1
Atom  23C    basis set group =>   1
Atom  24H    basis set group =>   2
Atom  25H    basis set group =>   2
Atom  26C    basis set group =>   1
Atom  27H    basis set group =>   2
Atom  28H    basis set group =>   2
Atom  29C    basis set group =>   1
Atom  30H    basis set group =>   2
Atom  31H    basis set group =>   2
Atom  32C    basis set group =>   1
Atom  33H    basis set group =>   2
Atom  34C    basis set group =>   1
Atom  35H    basis set group =>   2
Atom  36C    basis set group =>   1
Atom  37H    basis set group =>   2
Atom  38H    basis set group =>   2
Atom  39C    basis set group =>   1
Atom  40H    basis set group =>   2
Atom  41H    basis set group =>   2
Atom  42H    basis set group =>   2
Atom  43C    basis set group =>   1
Atom  44C    basis set group =>   1
Atom  45H    basis set group =>   2
Atom  46H    basis set group =>   2
Atom  47H    basis set group =>   2
Atom  48H    basis set group =>   2
Atom  49C    basis set group =>   1
Atom  50C    basis set group =>   1
Atom  51C    basis set group =>   1
Atom  52H    basis set group =>   2
Atom  53H    basis set group =>   2
Atom  54C    basis set group =>   1
Atom  55C    basis set group =>   1
Atom  56C    basis set group =>   1
Atom  57H    basis set group =>   2
Atom  58H    basis set group =>   2
Atom  59C    basis set group =>   1
Atom  60C    basis set group =>   1
Atom  61H    basis set group =>   2
Atom  62H    basis set group =>   2
Atom  63H    basis set group =>   2
Atom  64H    basis set group =>   2
Atom  65H    basis set group =>   2
Atom  66H    basis set group =>   2
Atom  67H    basis set group =>   2
Atom  68H    basis set group =>   2
Atom  69H    basis set group =>   2
Atom  70H    basis set group =>   2
Atom  71H    basis set group =>   2
Atom  72H    basis set group =>   2

-------------------------------------
AUXILIARY/J BASIS SET IN INPUT FORMAT
-------------------------------------

 # Auxiliary/J basis set for element : H 
 NewAuxJGTO H 
 S 3 
   1      15.6752927000      0.1007184237
   2       3.6063578000      0.3404257499
   3       1.2080016000      0.6491996172
 S 1 
   1       0.4726794000      1.0000000000
 S 1 
   1       0.2018100000      1.0000000000
 P 2 
   1       2.0281365000      0.5596620919
   2       0.5358730000      0.5596620919
 D 1 
   1       2.2165124000      1.0000000000
  end;

 # Auxiliary/J basis set for element : C 
 NewAuxJGTO C 
 S 7 
   1    1861.0916331000      0.0134602335
   2     642.9939764000      0.0299160374
   3     235.1105725000      0.1008649584
   4      90.7028894000      0.2370970548
   5      36.7794552000      0.3924037254
   6      15.6046273000      0.3195862154
   7       6.8907294000      0.0530104441
 S 1 
   1       3.1478850000     -1.0000000000
 S 1 
   1       1.4777287000      1.0000000000
 S 1 
   1       0.7076466000      1.0000000000
 S 1 
   1       0.3430122000      1.0000000000
 S 1 
   1       0.1669453000      1.0000000000
 P 2 
   1      13.5472892000     -0.6769313712
   2       5.4669419000     -0.3779500978
 P 1 
   1       2.1751721000      1.0000000000
 P 1 
   1       0.8582194000      1.0000000000
 P 1 
   1       0.3376720000      1.0000000000
 D 2 
   1       5.9287253000     -0.3533329857
   2       1.9809209000     -0.7456525731
 D 1 
   1       0.8055417000     -1.0000000000
 D 1 
   1       0.3531244000     -1.0000000000
 F 2 
   1       1.6755626000      0.6311076882
   2       0.5997536000      0.4968166032
 G 1 
   1       1.0024600000     -1.0000000000
  end;

 # Auxiliary/J basis set for element : O 
 NewAuxJGTO O 
 S 7 
   1    2876.8216605000      0.0168151159
   2    1004.7443032000      0.0340137548
   3     369.7579954000      0.1194951309
   4     142.9442404000      0.2664627624
   5      57.8366425000      0.4202764046
   6      24.3864983000      0.2765077335
   7      10.6622662000      0.0057008815
 S 1 
   1       4.8070437000     -1.0000000000
 S 1 
   1       2.2210770000      1.0000000000
 S 1 
   1       1.0447795000      1.0000000000
 S 1 
   1       0.4968425000      1.0000000000
 S 1 
   1       0.2371384000      1.0000000000
 P 2 
   1      64.2613382000     -0.2731534179
   2      16.3006076000     -0.8168011598
 P 1 
   1       4.3550542000      1.0000000000
 P 1 
   1       1.2019554000      1.0000000000
 P 1 
   1       0.3354196000      1.0000000000
 D 2 
   1       9.2146611000     -0.4661230638
   2       2.8435251000     -0.6600908911
 D 1 
   1       0.9955759000     -1.0000000000
 D 1 
   1       0.3649441000     -1.0000000000
 F 2 
   1       2.6420115000      0.5931563945
   2       0.7345613000      0.5931563945
 G 1 
   1       1.3931000000     -1.0000000000
  end;



           ************************************************************
           *        Program running with 4 parallel MPI-processes     *
           *              working on a common directory               *
           ************************************************************
------------------------------------------------------------------------------
                           ORCA GTO INTEGRAL CALCULATION
                           -- RI-GTO INTEGRALS CHOSEN --
------------------------------------------------------------------------------
------------------------------------------------------------------------------
                   ___                                                        
                  /   \      - P O W E R E D   B Y -                         
                 /     \                                                     
                 |  |  |   _    _      __       _____    __    __             
                 |  |  |  | |  | |    /  \     |  _  \  |  |  /  |          
                  \  \/   | |  | |   /    \    | | | |  |  | /  /          
                 / \  \   | |__| |  /  /\  \   | |_| |  |  |/  /          
                |  |  |   |  __  | /  /__\  \  |    /   |      \           
                |  |  |   | |  | | |   __   |  |    \   |  |\   \          
                \     /   | |  | | |  |  |  |  | |\  \  |  | \   \       
                 \___/    |_|  |_| |__|  |__|  |_| \__\ |__|  \__/        
                                                                              
                      - O R C A' S   B I G   F R I E N D -                    
                                      &                                       
                       - I N T E G R A L  F E E D E R -                       
                                                                              
 v1 FN, 2020, v2 2021                                                         
------------------------------------------------------------------------------


Reading SHARK input file inpS.SHARKINP.tmp ... ok
----------------------
SHARK INTEGRAL PACKAGE
----------------------

Number of atoms                             ...     73
Number of basis functions                   ...    713
Number of shells                            ...    335
Maximum angular momentum                    ...      2
Integral batch strategy                     ... SHARK/LIBINT Hybrid
RI-J (if used) integral strategy            ... SPLIT-RIJ (Revised 2003 algorithm where possible)
Printlevel                                  ...      1
Contraction scheme used                     ... SEGMENTED contraction
Coulomb Range Separation                    ... NOT USED
Exchange Range Separation                   ... NOT USED
Finite Nucleus Model                        ... NOT USED
Auxiliary Coulomb fitting basis             ... AVAILABLE
   # of basis functions in Aux-J            ...   1905
   # of shells in Aux-J                     ...    655
   Maximum angular momentum in Aux-J        ...      4
Auxiliary J/K fitting basis                 ... NOT available
Auxiliary Correlation fitting basis         ... NOT available
Auxiliary 'external' fitting basis          ... NOT available
Integral threshold                          ...     3.000000e-11
Primitive cut-off                           ...     1.000000e-12
Primitive pair pre-selection threshold      ...     1.000000e-12

Calculating pre-screening integrals         ... done (  0.0 sec) Dimension = 335
Organizing shell pair data                  ... done (  0.1 sec)
Shell pair information
Total number of shell pairs                 ...     56280
Shell pairs after pre-screening             ...     30992
Total number of primitive shell pairs       ...    225367
Primitive shell pairs kept                  ...     73086
          la=0 lb=0:   9472 shell pairs
          la=1 lb=0:  12723 shell pairs
          la=1 lb=1:   4168 shell pairs
          la=2 lb=0:   2707 shell pairs
          la=2 lb=1:   1727 shell pairs
          la=2 lb=2:    195 shell pairs

Calculating one electron integrals          ... done (  0.1 sec)
Calculating RI/J V-Matrix + Cholesky decomp.... done (  0.2 sec)
Calculating Nuclear repulsion               ... done (  0.0 sec) ENN=   2749.141506634930 Eh

SHARK setup successfully completed in   0.6 seconds

Maximum memory used throughout the entire GTOINT-calculation: 60.6 MB


           ************************************************************
           *        Program running with 4 parallel MPI-processes     *
           *              working on a common directory               *
           ************************************************************
-------------------------------------------------------------------------------
                                 ORCA SCF
-------------------------------------------------------------------------------

------------
SCF SETTINGS
------------
Hamiltonian:
 Density Functional     Method          .... DFT(GTOs)
 Exchange Functional    Exchange        .... revTPSS
 Correlation Functional Correlation     .... revTPSS
 LDA part of GGA corr.  LDAOpt          .... PW91-LDA
 Gradients option       PostSCFGGA      .... off
   Density functional embedding theory  .... OFF
 RI-approximation to the Coulomb term is turned on
   Number of AuxJ basis functions       .... 1905


General Settings:
 Integral files         IntName         .... inpS
 Hartree-Fock type      HFTyp           .... RHF
 Total Charge           Charge          ....    0
 Multiplicity           Mult            ....    1
 Number of Electrons    NEL             ....  220
 Basis Dimension        Dim             ....  713
 Nuclear Repulsion      ENuc            ....   2749.1415066349 Eh

Convergence Acceleration:
 DIIS                   CNVDIIS         .... on
   Start iteration      DIISMaxIt       ....    12
   Startup error        DIISStart       ....  0.200000
   # of expansion vecs  DIISMaxEq       ....     5
   Bias factor          DIISBfac        ....   1.050
   Max. coefficient     DIISMaxC        ....  10.000
 Trust-Rad. Augm. Hess. CNVTRAH         .... auto
   Auto Start mean grad. ratio tolernc. ....  1.125000
   Auto Start start iteration           ....    20
   Auto Start num. interpolation iter.  ....    10
   Max. Number of Micro iterations      ....    16
   Max. Number of Macro iterations      .... Maxiter - #DIIS iter
   Number of Davidson start vectors     ....     2
   Converg. threshold I  (grad. norm)   ....   1.000e-04
   Converg. threshold II (energy diff.) ....   1.000e-07
   Grad. Scal. Fac. for Micro threshold ....   0.100
   Minimum threshold for Micro iter.    ....   0.010
   NR start threshold (gradient norm)   ....   0.001
   Initial trust radius                 ....   0.400
   Minimum AH scaling param. (alpha)    ....   1.000
   Maximum AH scaling param. (alpha)    .... 1000.000
   Orbital update algorithm             .... Taylor
   White noise on init. David. guess    .... on
   Maximum white noise                  ....   0.010
   Quad. conv. algorithm                .... NR
 SOSCF                  CNVSOSCF        .... off
 Level Shifting         CNVShift        .... on
   Level shift para.    LevelShift      ....    0.2500
   Turn off err/grad.   ShiftErr        ....    0.0010
 Zerner damping         CNVZerner       .... off
 Static damping         CNVDamp         .... on
   Fraction old density DampFac         ....    0.7000
   Max. Damping (<1)    DampMax         ....    0.9800
   Min. Damping (>=0)   DampMin         ....    0.0000
   Turn off err/grad.   DampErr         ....    0.1000
 Fernandez-Rico         CNVRico         .... off

SCF Procedure:
 Maximum # iterations   MaxIter         ....   125
 SCF integral mode      SCFMode         .... Direct
   Integral package                     .... SHARK and LIBINT hybrid scheme
 Reset frequency        DirectResetFreq ....    20
 Integral Threshold     Thresh          ....  3.000e-11 Eh
 Primitive CutOff       TCut            ....  1.000e-12 Eh

Convergence Tolerance:
 Convergence Check Mode ConvCheckMode   .... Total+1el-Energy
 Convergence forced     ConvForced      .... 0
 Energy Change          TolE            ....  1.000e-07 Eh
 1-El. energy change                    ....  1.000e-04 Eh
 DIIS Error             TolErr          ....  1.000e-07


Diagonalization of the overlap matrix:
Smallest eigenvalue                        ... 5.035e-04
Time for diagonalization                   ...    0.062 sec
Threshold for overlap eigenvalues          ... 1.000e-08
Number of eigenvalues below threshold      ... 0
Time for construction of square roots      ...    0.065 sec
Total time needed                          ...    0.129 sec

Time for model grid setup =    0.789 sec

------------------------------
INITIAL GUESS: MODEL POTENTIAL
------------------------------
Loading Hartree-Fock densities                     ... done
Calculating cut-offs                               ... done
Initializing the effective Hamiltonian             ... done
Setting up the integral package (SHARK)            ... done
Starting the Coulomb interaction                   ... done (   0.9 sec)
Reading the grid                                   ... done
Mapping shells                                     ... done
Starting the XC term evaluation                    ... done (   0.4 sec)
  promolecular density results
     # of electrons  =    219.989045383
     EX              =   -164.430007564
     EC              =     -7.321254269
     EX+EC           =   -171.751261833
Transforming the Hamiltonian                       ... done (   0.1 sec)
Diagonalizing the Hamiltonian                      ... done (   0.1 sec)
Back transforming the eigenvectors                 ... done (   0.0 sec)
Now organizing SCF variables                       ... done
                      ------------------
                      INITIAL GUESS DONE (   2.2 sec)
                      ------------------
-------------------
DFT GRID GENERATION
-------------------

General Integration Accuracy     IntAcc      ... 4.388
Radial Grid Type                 RadialGrid  ... OptM3 with GC (2021)
Angular Grid (max. ang.)         AngularGrid ... 4 (Lebedev-302)
Angular grid pruning method      GridPruning ... 4 (adaptive)
Weight generation scheme         WeightScheme... Becke
Basis function cutoff            BFCut       ... 1.0000e-11
Integration weight cutoff        WCut        ... 1.0000e-14
Angular grids for H and He will be reduced by one unit
Partially contracted basis set               ... off
Rotationally invariant grid construction     ... off

Total number of grid points                  ...   310020
Total number of batches                      ...     4876
Average number of points per batch           ...       63
Average number of grid points per atom       ...     4247
Time for grid setup =    3.015 sec


--------------------
CPCM SOLVATION MODEL
--------------------
CPCM parameters:
  Epsilon                                         ...       4.9000
  Refrac                                          ...       1.4500
  Rsolv                                           ...       1.3000
  Surface type                                    ... GAUSSIAN VDW
  Epsilon function type                           ...         CPCM
Radii:
 Radius for C  used is    3.8550 Bohr (=   2.0400 Ang.)
 Radius for H  used is    2.4944 Bohr (=   1.3200 Ang.)
 Radius for O  used is    3.4469 Bohr (=   1.8240 Ang.)
Calculating surface                               ...        done! (  0.0s)
GEPOL surface points                              ...         3682
GEPOL Volume                                      ...    3599.3971
GEPOL Surface-area                                ...    1806.4880
Calculating surface distance matrix               ...        done! (  0.1s)
Performing Cholesky decomposition & store         ...        done! (  0.5s)
Overall time for CPCM initialization              ...                 0.6s
--------------
SCF ITERATIONS
--------------
ITER       Energy         Delta-E        Max-DP      RMS-DP      [F,P]     Damp
               ***  Starting incremental Fock matrix formation  ***

  HOMO= 109 E= -1.858 eV LUMO=  7.828 eV gap=   9.686 eV
  0  -1167.5267926892   0.000000000000 0.05306956  0.00082633  0.2614470 0.7000

  HOMO= 109 E= -3.343 eV LUMO=  6.716 eV gap=  10.059 eV
  1  -1167.8993364159  -0.372543726707 0.02898999  0.00061106  0.1018701 0.7000
                               ***Turning on DIIS***

  HOMO= 109 E= -4.319 eV LUMO=  5.826 eV gap=  10.145 eV
  2  -1168.0461064810  -0.146770065097 0.05174383  0.00101037  0.0305670 0.0000

  HOMO= 109 E= -4.948 eV LUMO=  5.233 eV gap=  10.181 eV
  3  -1168.2428204232  -0.196713942155 0.02326983  0.00046991  0.0546604 0.0000

  HOMO= 109 E= -4.984 eV LUMO=  5.198 eV gap=  10.182 eV
  4  -1168.3100942639  -0.067273840673 0.00754543  0.00015335  0.0103410 0.0000

  HOMO= 109 E= -4.937 eV LUMO=  5.252 eV gap=  10.189 eV
  5  -1168.3132266092  -0.003132345358 0.00313866  0.00005712  0.0094670 0.0000

  HOMO= 109 E= -4.917 eV LUMO=  5.269 eV gap=  10.186 eV
  6  -1168.3135068672  -0.000280257943 0.00121875  0.00001936  0.0027474 0.0000

  HOMO= 109 E= -4.918 eV LUMO= -1.535 eV gap=   3.383 eV
  7  -1168.3135264224  -0.000019555225 0.00070650  0.00001178  0.0006213 0.0000

  HOMO= 109 E= -4.917 eV LUMO= -1.534 eV gap=   3.383 eV
  8  -1168.3135296271  -0.000003204710 0.00026515  0.00000284  0.0003761 0.0000

  HOMO= 109 E= -4.915 eV LUMO= -1.532 eV gap=   3.383 eV
  9  -1168.3135302036  -0.000000576537 0.00017017  0.00000159  0.0002807 0.0000

  HOMO= 109 E= -4.915 eV LUMO= -1.532 eV gap=   3.383 eV
 10  -1168.3135304823  -0.000000278644 0.00006467  0.00000071  0.0001042 0.0000

  HOMO= 109 E= -4.916 eV LUMO= -1.532 eV gap=   3.383 eV
 11  -1168.3135305228  -0.000000040505 0.00002945  0.00000029  0.0000351 0.0000

  HOMO= 109 E= -4.915 eV LUMO= -1.532 eV gap=   3.383 eV
 12  -1168.3135304929   0.000000029898 0.00001359  0.00000013  0.0000183 0.0000

  HOMO= 109 E= -4.915 eV LUMO= -1.532 eV gap=   3.383 eV
 13  -1168.3135305230  -0.000000030113 0.00000671  0.00000006  0.0000082 0.0000
                 **** Energy Check signals convergence ****

               *****************************************************
               *                     SUCCESS                       *
               *           SCF CONVERGED AFTER  14 CYCLES          *
               *****************************************************


----------------
TOTAL SCF ENERGY
----------------

Total Energy       :        -1168.31353055 Eh          -31791.42741 eV

Components:
Nuclear Repulsion  :         2749.14150663 Eh           74807.94356 eV
Electronic Energy  :        -3917.45503719 Eh         -106599.37097 eV
One Electron Energy:        -7044.69913618 Eh         -191696.00913 eV
Two Electron Energy:         3127.24409900 Eh           85096.63816 eV
CPCM Dielectric    :           -0.01017476 Eh              -0.27687 eV

Virial components:
Potential Energy   :        -2330.42741870 Eh          -63414.15398 eV
Kinetic Energy     :         1162.11388815 Eh           31622.72657 eV
Virial Ratio       :            2.00533480


DFT components:
N(Alpha)           :      110.000206914688 electrons
N(Beta)            :      110.000206914688 electrons
N(Total)           :      220.000413829377 electrons
E(X)               :     -169.583586483192 Eh       
E(C)               :       -7.440437916961 Eh       
E(XC)              :     -177.024024400152 Eh       
DFET-embed. en.    :        0.000000000000 Eh       
CPCM Solvation Model Properties:
Surface-charge          :           -0.04589393
Charge-correction       :           -0.00002576 Eh              -0.00070 eV
Free-energy (cav+disp)  :  This term is not implemented in the current solvation scheme

---------------
SCF CONVERGENCE
---------------

  Last Energy change         ...   -2.7470e-08  Tolerance :   1.0000e-07
  Last MAX-Density change    ...    2.9135e-06  Tolerance :   1.0000e-05
  Last RMS-Density change    ...    2.8781e-08  Tolerance :   1.0000e-06
  Last DIIS Error            ...    3.5700e-06  Tolerance :   1.0000e-07

             **** THE GBW FILE WAS UPDATED (inpS.gbw) ****
             **** DENSITY inpS.scfp WAS UPDATED ****
             **** ENERGY FILE WAS UPDATED (inpS.en.tmp) ****
             **** THE GBW FILE WAS UPDATED (inpS.gbw) ****
             **** DENSITY inpS.scfp WAS UPDATED ****
----------------
ORBITAL ENERGIES
----------------

  NO   OCC          E(Eh)            E(eV) 
   0   2.0000     -18.905556      -514.4463 
   1   2.0000     -10.057038      -273.6659 
   2   2.0000     -10.015854      -272.5453 
   3   2.0000     -10.013416      -272.4789 
   4   2.0000     -10.013331      -272.4766 
   5   2.0000     -10.011217      -272.4191 
   6   2.0000     -10.010200      -272.3914 
   7   2.0000     -10.009817      -272.3810 
   8   2.0000     -10.009082      -272.3610 
   9   2.0000     -10.008325      -272.3404 
  10   2.0000     -10.007789      -272.3258 
  11   2.0000     -10.007469      -272.3171 
  12   2.0000     -10.006751      -272.2975 
  13   2.0000     -10.006536      -272.2917 
  14   2.0000     -10.005538      -272.2645 
  15   2.0000     -10.005162      -272.2543 
  16   2.0000     -10.004148      -272.2267 
  17   2.0000     -10.000962      -272.1400 
  18   2.0000     -10.000213      -272.1196 
  19   2.0000      -9.999061      -272.0883 
  20   2.0000      -9.998403      -272.0704 
  21   2.0000      -9.998380      -272.0697 
  22   2.0000      -9.997730      -272.0521 
  23   2.0000      -9.997356      -272.0419 
  24   2.0000      -9.997157      -272.0365 
  25   2.0000      -9.996455      -272.0174 
  26   2.0000      -9.995716      -271.9973 
  27   2.0000      -9.994837      -271.9733 
  28   2.0000      -9.993580      -271.9391 
  29   2.0000      -0.955817       -26.0091 
  30   2.0000      -0.807057       -21.9611 
  31   2.0000      -0.790976       -21.5236 
  32   2.0000      -0.770292       -20.9607 
  33   2.0000      -0.756782       -20.5931 
  34   2.0000      -0.734409       -19.9843 
  35   2.0000      -0.727482       -19.7958 
  36   2.0000      -0.708564       -19.2810 
  37   2.0000      -0.708010       -19.2659 
  38   2.0000      -0.694236       -18.8911 
  39   2.0000      -0.675283       -18.3754 
  40   2.0000      -0.659391       -17.9429 
  41   2.0000      -0.654276       -17.8038 
  42   2.0000      -0.635015       -17.2796 
  43   2.0000      -0.627093       -17.0641 
  44   2.0000      -0.622884       -16.9495 
  45   2.0000      -0.616087       -16.7646 
  46   2.0000      -0.589941       -16.0531 
  47   2.0000      -0.583612       -15.8809 
  48   2.0000      -0.555157       -15.1066 
  49   2.0000      -0.548934       -14.9372 
  50   2.0000      -0.547375       -14.8948 
  51   2.0000      -0.533913       -14.5285 
  52   2.0000      -0.526038       -14.3142 
  53   2.0000      -0.507055       -13.7977 
  54   2.0000      -0.506299       -13.7771 
  55   2.0000      -0.485869       -13.2212 
  56   2.0000      -0.472645       -12.8613 
  57   2.0000      -0.464088       -12.6285 
  58   2.0000      -0.451176       -12.2771 
  59   2.0000      -0.443718       -12.0742 
  60   2.0000      -0.431022       -11.7287 
  61   2.0000      -0.423970       -11.5368 
  62   2.0000      -0.417135       -11.3508 
  63   2.0000      -0.414990       -11.2925 
  64   2.0000      -0.413427       -11.2499 
  65   2.0000      -0.407227       -11.0812 
  66   2.0000      -0.401534       -10.9263 
  67   2.0000      -0.395715       -10.7679 
  68   2.0000      -0.395435       -10.7603 
  69   2.0000      -0.390014       -10.6128 
  70   2.0000      -0.386511       -10.5175 
  71   2.0000      -0.382106       -10.3976 
  72   2.0000      -0.376962       -10.2577 
  73   2.0000      -0.372235       -10.1290 
  74   2.0000      -0.371734       -10.1154 
  75   2.0000      -0.367428        -9.9982 
  76   2.0000      -0.357651        -9.7322 
  77   2.0000      -0.357028        -9.7152 
  78   2.0000      -0.352930        -9.6037 
  79   2.0000      -0.347527        -9.4567 
  80   2.0000      -0.344761        -9.3814 
  81   2.0000      -0.344023        -9.3613 
  82   2.0000      -0.343104        -9.3363 
  83   2.0000      -0.336788        -9.1645 
  84   2.0000      -0.336476        -9.1560 
  85   2.0000      -0.330559        -8.9950 
  86   2.0000      -0.324030        -8.8173 
  87   2.0000      -0.320391        -8.7183 
  88   2.0000      -0.317035        -8.6270 
  89   2.0000      -0.312456        -8.5024 
  90   2.0000      -0.309902        -8.4329 
  91   2.0000      -0.305612        -8.3161 
  92   2.0000      -0.300844        -8.1864 
  93   2.0000      -0.293930        -7.9983 
  94   2.0000      -0.289679        -7.8826 
  95   2.0000      -0.288590        -7.8529 
  96   2.0000      -0.284814        -7.7502 
  97   2.0000      -0.284283        -7.7357 
  98   2.0000      -0.281943        -7.6721 
  99   2.0000      -0.279278        -7.5996 
 100   2.0000      -0.276805        -7.5323 
 101   2.0000      -0.275101        -7.4859 
 102   2.0000      -0.269271        -7.3272 
 103   2.0000      -0.267800        -7.2872 
 104   2.0000      -0.260882        -7.0990 
 105   2.0000      -0.247510        -6.7351 
 106   2.0000      -0.233337        -6.3494 
 107   2.0000      -0.227271        -6.1844 
 108   2.0000      -0.212399        -5.7797 
 109   2.0000      -0.180639        -4.9154 
 110   0.0000      -0.056311        -1.5323 
 111   0.0000      -0.013105        -0.3566 
 112   0.0000      -0.005503        -0.1497 
 113   0.0000       0.032994         0.8978 
 114   0.0000       0.040924         1.1136 
 115   0.0000       0.043836         1.1928 
 116   0.0000       0.047726         1.2987 
 117   0.0000       0.048536         1.3207 
 118   0.0000       0.051091         1.3903 
 119   0.0000       0.055297         1.5047 
 120   0.0000       0.060351         1.6422 
 121   0.0000       0.062601         1.7035 
 122   0.0000       0.070438         1.9167 
 123   0.0000       0.070812         1.9269 
 124   0.0000       0.074969         2.0400 
 125   0.0000       0.077405         2.1063 
 126   0.0000       0.083211         2.2643 
 127   0.0000       0.084796         2.3074 
 128   0.0000       0.087704         2.3865 
 129   0.0000       0.092422         2.5149 
 130   0.0000       0.097389         2.6501 
 131   0.0000       0.102126         2.7790 
 132   0.0000       0.104559         2.8452 
 133   0.0000       0.106371         2.8945 
 134   0.0000       0.108260         2.9459 
 135   0.0000       0.112441         3.0597 
 136   0.0000       0.116588         3.1725 
 137   0.0000       0.121058         3.2941 
 138   0.0000       0.123690         3.3658 
 139   0.0000       0.124862         3.3977 
 140   0.0000       0.127400         3.4667 
 141   0.0000       0.128493         3.4965 
 142   0.0000       0.131485         3.5779 
 143   0.0000       0.132824         3.6143 
 144   0.0000       0.135039         3.6746 
 145   0.0000       0.138316         3.7638 
 146   0.0000       0.139086         3.7847 
 147   0.0000       0.143811         3.9133 
 148   0.0000       0.145505         3.9594 
 149   0.0000       0.148876         4.0511 
 150   0.0000       0.150751         4.1021 
 151   0.0000       0.154612         4.2072 
 152   0.0000       0.158711         4.3187 
 153   0.0000       0.161720         4.4006 
 154   0.0000       0.169934         4.6241 
 155   0.0000       0.172712         4.6997 
 156   0.0000       0.176412         4.8004 
 157   0.0000       0.180648         4.9157 
 158   0.0000       0.182041         4.9536 
 159   0.0000       0.184191         5.0121 
 160   0.0000       0.187730         5.1084 
 161   0.0000       0.192251         5.2314 
 162   0.0000       0.194582         5.2949 
 163   0.0000       0.196656         5.3513 
 164   0.0000       0.201452         5.4818 
 165   0.0000       0.203138         5.5277 
 166   0.0000       0.205550         5.5933 
 167   0.0000       0.211907         5.7663 
 168   0.0000       0.213143         5.7999 
 169   0.0000       0.216935         5.9031 
 170   0.0000       0.222200         6.0464 
 171   0.0000       0.227860         6.2004 
 172   0.0000       0.229557         6.2466 
 173   0.0000       0.229974         6.2579 
 174   0.0000       0.232775         6.3341 
 175   0.0000       0.245859         6.6902 
 176   0.0000       0.249508         6.7895 
 177   0.0000       0.256023         6.9667 
 178   0.0000       0.262529         7.1438 
 179   0.0000       0.266538         7.2529 
 180   0.0000       0.272672         7.4198 
 181   0.0000       0.274682         7.4745 
 182   0.0000       0.285753         7.7757 
 183   0.0000       0.293926         7.9981 
 184   0.0000       0.295621         8.0442 
 185   0.0000       0.325595         8.8599 
 186   0.0000       0.331620         9.0238 
 187   0.0000       0.339348         9.2341 
 188   0.0000       0.343860         9.3569 
 189   0.0000       0.347919         9.4674 
 190   0.0000       0.353880         9.6296 
 191   0.0000       0.356602         9.7036 
 192   0.0000       0.361241         9.8299 
 193   0.0000       0.366725         9.9791 
 194   0.0000       0.373799        10.1716 
 195   0.0000       0.374805        10.1990 
 196   0.0000       0.379870        10.3368 
 197   0.0000       0.384484        10.4623 
 198   0.0000       0.389143        10.5891 
 199   0.0000       0.395318        10.7571 
 200   0.0000       0.401306        10.9201 
 201   0.0000       0.407768        11.0959 
 202   0.0000       0.411728        11.2037 
 203   0.0000       0.416273        11.3274 
 204   0.0000       0.422779        11.5044 
 205   0.0000       0.435266        11.8442 
 206   0.0000       0.437473        11.9042 
 207   0.0000       0.442395        12.0382 
 208   0.0000       0.450728        12.2649 
 209   0.0000       0.455537        12.3958 
 210   0.0000       0.458341        12.4721 
 211   0.0000       0.465019        12.6538 
 212   0.0000       0.466146        12.6845 
 213   0.0000       0.477222        12.9859 
 214   0.0000       0.479306        13.0426 
 215   0.0000       0.485548        13.2124 
 216   0.0000       0.489598        13.3226 
 217   0.0000       0.494231        13.4487 
 218   0.0000       0.497832        13.5467 
 219   0.0000       0.504970        13.7409 
 220   0.0000       0.507318        13.8048 
 221   0.0000       0.513107        13.9624 
 222   0.0000       0.515214        14.0197 
 223   0.0000       0.519783        14.1440 
 224   0.0000       0.528246        14.3743 
 225   0.0000       0.534884        14.5549 
 226   0.0000       0.539940        14.6925 
 227   0.0000       0.542007        14.7488 
 228   0.0000       0.543977        14.8024 
 229   0.0000       0.545709        14.8495 
 230   0.0000       0.551722        15.0131 
 231   0.0000       0.555410        15.1135 
 232   0.0000       0.558127        15.1874 
 233   0.0000       0.565400        15.3853 
 234   0.0000       0.568702        15.4752 
 235   0.0000       0.571039        15.5388 
 236   0.0000       0.572615        15.5817 
 237   0.0000       0.575600        15.6629 
 238   0.0000       0.577647        15.7186 
 239   0.0000       0.578541        15.7429 
 240   0.0000       0.581692        15.8286 
 241   0.0000       0.585816        15.9409 
 242   0.0000       0.589246        16.0342 
 243   0.0000       0.592799        16.1309 
 244   0.0000       0.593769        16.1573 
 245   0.0000       0.596392        16.2287 
 246   0.0000       0.598326        16.2813 
 247   0.0000       0.602595        16.3974 
 248   0.0000       0.603355        16.4181 
 249   0.0000       0.604701        16.4547 
 250   0.0000       0.606056        16.4916 
 251   0.0000       0.608501        16.5582 
 252   0.0000       0.609399        16.5826 
 253   0.0000       0.615341        16.7443 
 254   0.0000       0.616080        16.7644 
 255   0.0000       0.619965        16.8701 
 256   0.0000       0.623616        16.9694 
 257   0.0000       0.627082        17.0638 
 258   0.0000       0.627619        17.0784 
 259   0.0000       0.630128        17.1467 
 260   0.0000       0.631630        17.1875 
 261   0.0000       0.634069        17.2539 
 262   0.0000       0.638923        17.3860 
 263   0.0000       0.639284        17.3958 
 264   0.0000       0.642026        17.4704 
 265   0.0000       0.642582        17.4856 
 266   0.0000       0.648864        17.6565 
 267   0.0000       0.650589        17.7034 
 268   0.0000       0.653099        17.7717 
 269   0.0000       0.654193        17.8015 
 270   0.0000       0.662133        18.0175 
 271   0.0000       0.662628        18.0310 
 272   0.0000       0.663502        18.0548 
 273   0.0000       0.668644        18.1947 
 274   0.0000       0.671574        18.2745 
 275   0.0000       0.675690        18.3865 
 276   0.0000       0.676681        18.4134 
 277   0.0000       0.684007        18.6128 
 278   0.0000       0.688809        18.7434 
 279   0.0000       0.690115        18.7790 
 280   0.0000       0.692382        18.8407 
 281   0.0000       0.695202        18.9174 
 282   0.0000       0.701903        19.0998 
 283   0.0000       0.704994        19.1839 
 284   0.0000       0.706531        19.2257 
 285   0.0000       0.708918        19.2906 
 286   0.0000       0.716570        19.4989 
 287   0.0000       0.724393        19.7117 
 288   0.0000       0.728992        19.8369 
 289   0.0000       0.732091        19.9212 
 290   0.0000       0.736103        20.0304 
 291   0.0000       0.739008        20.1094 
 292   0.0000       0.744191        20.2505 
 293   0.0000       0.752210        20.4687 
 294   0.0000       0.753246        20.4969 
 295   0.0000       0.759334        20.6625 
 296   0.0000       0.765013        20.8171 
 297   0.0000       0.776983        21.1428 
 298   0.0000       0.780717        21.2444 
 299   0.0000       0.788400        21.4534 
 300   0.0000       0.792591        21.5675 
 301   0.0000       0.805940        21.9307 
 302   0.0000       0.818164        22.2634 
 303   0.0000       0.832278        22.6474 
 304   0.0000       0.835987        22.7484 
 305   0.0000       0.848484        23.0884 
 306   0.0000       0.850345        23.1391 
 307   0.0000       0.862123        23.4596 
 308   0.0000       0.886591        24.1254 
 309   0.0000       0.897865        24.4322 
 310   0.0000       0.915856        24.9217 
 311   0.0000       0.926415        25.2090 
 312   0.0000       0.938400        25.5351 
 313   0.0000       0.952431        25.9170 
 314   0.0000       0.965802        26.2808 
 315   0.0000       0.969188        26.3729 
 316   0.0000       0.989800        26.9338 
 317   0.0000       1.029357        28.0102 
 318   0.0000       1.036844        28.2140 
 319   0.0000       1.043322        28.3902 
 320   0.0000       1.059629        28.8340 
 321   0.0000       1.068382        29.0721 
 322   0.0000       1.090783        29.6817 
 323   0.0000       1.098798        29.8998 
 324   0.0000       1.125306        30.6211 
 325   0.0000       1.128636        30.7118 
 326   0.0000       1.141951        31.0741 
 327   0.0000       1.150610        31.3097 
 328   0.0000       1.173980        31.9456 
 329   0.0000       1.193560        32.4784 
 330   0.0000       1.195958        32.5437 
 331   0.0000       1.207898        32.8686 
 332   0.0000       1.236947        33.6590 
 333   0.0000       1.252316        34.0773 
 334   0.0000       1.258017        34.2324 
 335   0.0000       1.264235        34.4016 
 336   0.0000       1.275335        34.7036 
 337   0.0000       1.277038        34.7500 
 338   0.0000       1.290888        35.1269 
 339   0.0000       1.306850        35.5612 
 340   0.0000       1.321275        35.9537 
 341   0.0000       1.335610        36.3438 
 342   0.0000       1.345158        36.6036 
 343   0.0000       1.347397        36.6645 
 344   0.0000       1.361104        37.0375 
 345   0.0000       1.369791        37.2739 
 346   0.0000       1.387343        37.7515 
 347   0.0000       1.391058        37.8526 
 348   0.0000       1.406496        38.2727 
 349   0.0000       1.415112        38.5071 
 350   0.0000       1.421612        38.6840 
 351   0.0000       1.432999        38.9939 
 352   0.0000       1.440770        39.2053 
 353   0.0000       1.448180        39.4070 
 354   0.0000       1.459501        39.7150 
 355   0.0000       1.460697        39.7476 
 356   0.0000       1.474936        40.1350 
 357   0.0000       1.484289        40.3896 
 358   0.0000       1.491369        40.5822 
 359   0.0000       1.510422        41.1007 
 360   0.0000       1.516424        41.2640 
 361   0.0000       1.520880        41.3852 
 362   0.0000       1.528581        41.5948 
 363   0.0000       1.538581        41.8669 
 364   0.0000       1.549519        42.1646 
 365   0.0000       1.561985        42.5038 
 366   0.0000       1.563273        42.5388 
 367   0.0000       1.575367        42.8679 
 368   0.0000       1.580959        43.0201 
 369   0.0000       1.600261        43.5453 
 370   0.0000       1.604227        43.6532 
 371   0.0000       1.610133        43.8139 
 372   0.0000       1.625334        44.2276 
 373   0.0000       1.629626        44.3444 
 374   0.0000       1.635838        44.5134 
 375   0.0000       1.638281        44.5799 
 376   0.0000       1.652873        44.9770 
 377   0.0000       1.666415        45.3455 
 378   0.0000       1.673609        45.5412 
 379   0.0000       1.683946        45.8225 
 380   0.0000       1.688663        45.9509 
 381   0.0000       1.695189        46.1284 
 382   0.0000       1.702453        46.3261 
 383   0.0000       1.702692        46.3326 
 384   0.0000       1.707068        46.4517 
 385   0.0000       1.721207        46.8364 
 386   0.0000       1.725903        46.9642 
 387   0.0000       1.729695        47.0674 
 388   0.0000       1.735267        47.2190 
 389   0.0000       1.739484        47.3338 
 390   0.0000       1.745376        47.4941 
 391   0.0000       1.751069        47.6490 
 392   0.0000       1.751731        47.6670 
 393   0.0000       1.766173        48.0600 
 394   0.0000       1.770336        48.1733 
 395   0.0000       1.771559        48.2066 
 396   0.0000       1.775992        48.3272 
 397   0.0000       1.783408        48.5290 
 398   0.0000       1.785470        48.5851 
 399   0.0000       1.790928        48.7336 
 400   0.0000       1.799119        48.9565 
 401   0.0000       1.801100        49.0104 
 402   0.0000       1.804339        49.0985 
 403   0.0000       1.810002        49.2527 
 404   0.0000       1.819760        49.5182 
 405   0.0000       1.826303        49.6962 
 406   0.0000       1.830609        49.8134 
 407   0.0000       1.836663        49.9781 
 408   0.0000       1.841989        50.1231 
 409   0.0000       1.853968        50.4490 
 410   0.0000       1.857062        50.5332 
 411   0.0000       1.861172        50.6451 
 412   0.0000       1.868675        50.8492 
 413   0.0000       1.875476        51.0343 
 414   0.0000       1.886799        51.3424 
 415   0.0000       1.893081        51.5133 
 416   0.0000       1.895706        51.5848 
 417   0.0000       1.905100        51.8404 
 418   0.0000       1.908495        51.9328 
 419   0.0000       1.912203        52.0337 
 420   0.0000       1.932953        52.5983 
 421   0.0000       1.935880        52.6780 
 422   0.0000       1.938052        52.7371 
 423   0.0000       1.944451        52.9112 
 424   0.0000       1.948697        53.0267 
 425   0.0000       1.951376        53.0996 
 426   0.0000       1.954452        53.1833 
 427   0.0000       1.965380        53.4807 
 428   0.0000       1.971871        53.6573 
 429   0.0000       1.979019        53.8518 
 430   0.0000       1.981147        53.9097 
 431   0.0000       1.985962        54.0408 
 432   0.0000       1.990495        54.1641 
 433   0.0000       1.995059        54.2883 
 434   0.0000       1.997729        54.3610 
 435   0.0000       1.999971        54.4220 
 436   0.0000       2.007692        54.6321 
 437   0.0000       2.010784        54.7162 
 438   0.0000       2.015042        54.8321 
 439   0.0000       2.020194        54.9723 
 440   0.0000       2.027446        55.1696 
 441   0.0000       2.034249        55.3547 
 442   0.0000       2.034637        55.3653 
 443   0.0000       2.039013        55.4844 
[...]

 --------------
 Nucleus  47H :
 --------------

Diamagnetic contribution to the shielding tensor (ppm) : 
            31.277          2.719        -0.214
            -0.720         50.299        -1.540
             0.585         -0.728        41.931

Paramagnetic contribution to the shielding tensor (ppm): 
            -2.463         -2.262         0.903
             1.453        -16.969        -1.838
            -0.679         -2.759       -10.187

Total shielding tensor (ppm): 
            28.814          0.457         0.689
             0.733         33.330        -3.378
            -0.094         -3.487        31.744


 Diagonalized sT*s matrix:
 
 sDSO            35.920           39.368           48.219  iso=      41.169
 sPSO            -7.623           -9.847          -12.149  iso=      -9.873
        ---------------  ---------------  ---------------
 Total           28.296           29.521           36.071  iso=      31.296

 --------------
 Nucleus  48H :
 --------------

Diamagnetic contribution to the shielding tensor (ppm) : 
            37.166         -0.408        -1.802
            -9.604         40.703         2.244
            -3.961          1.103        44.649

Paramagnetic contribution to the shielding tensor (ppm): 
            -4.971          1.739         1.688
            11.135        -12.213        -3.686
             2.911         -3.041       -15.359

Total shielding tensor (ppm): 
            32.194          1.330        -0.114
             1.531         28.490        -1.442
            -1.050         -1.937        29.291


 Diagonalized sT*s matrix:
 
 sDSO            45.264           41.138           36.116  iso=      40.839
 sPSO           -18.234          -11.233           -3.076  iso=     -10.848
        ---------------  ---------------  ---------------
 Total           27.030           29.905           33.041  iso=      29.992

 --------------
 Nucleus  52H :
 --------------

Diamagnetic contribution to the shielding tensor (ppm) : 
            39.070         -0.740         2.218
             2.121         40.569        -2.390
             4.162         -5.790        42.788

Paramagnetic contribution to the shielding tensor (ppm): 
            -8.512          3.841        -3.011
             0.591        -14.253         2.841
            -4.180          6.841       -20.115

Total shielding tensor (ppm): 
            30.558          3.102        -0.793
             2.712         26.316         0.451
            -0.017          1.051        22.673


 Diagonalized sT*s matrix:
 
 sDSO            45.609           36.897           39.922  iso=      40.809
 sPSO           -23.230          -11.763           -7.887  iso=     -14.293
        ---------------  ---------------  ---------------
 Total           22.379           25.134           32.035  iso=      26.516

 --------------
 Nucleus  53H :
 --------------

Diamagnetic contribution to the shielding tensor (ppm) : 
            37.660         -0.183         2.122
            -4.564         42.057        -4.477
             0.396         -2.225        48.593

Paramagnetic contribution to the shielding tensor (ppm): 
            -7.465          3.699        -3.373
             7.319        -15.550         4.718
            -0.669          3.212       -25.571

Total shielding tensor (ppm): 
            30.196          3.517        -1.251
             2.755         26.507         0.241
            -0.273          0.986        23.022


 Diagonalized sT*s matrix:
 
 sDSO            50.182           41.337           36.792  iso=      42.770
 sPSO           -27.567          -16.230           -4.790  iso=     -16.195
        ---------------  ---------------  ---------------
 Total           22.615           25.108           32.002  iso=      26.575

 --------------
 Nucleus  57H :
 --------------

Diamagnetic contribution to the shielding tensor (ppm) : 
            34.575         -1.705         0.605
             9.266         41.650        -6.270
            10.282         -5.612        43.036

Paramagnetic contribution to the shielding tensor (ppm): 
            -4.225          2.320        -0.108
            -8.123        -11.508         4.910
           -10.599          3.506       -12.191

Total shielding tensor (ppm): 
            30.349          0.615         0.497
             1.143         30.142        -1.361
            -0.317         -2.106        30.845


 Diagonalized sT*s matrix:
 
 sDSO            31.883           40.678           46.700  iso=      39.754
 sPSO            -3.451          -10.161          -14.313  iso=      -9.308
        ---------------  ---------------  ---------------
 Total           28.432           30.517           32.387  iso=      30.445

 --------------
 Nucleus  58H :
 --------------

Diamagnetic contribution to the shielding tensor (ppm) : 
            32.521          2.106         1.779
             0.513         19.607       -14.648
            -7.269        -12.305        44.230

Paramagnetic contribution to the shielding tensor (ppm): 
            -2.749         -1.885        -0.928
            -0.815          9.894        12.263
             8.276          9.446       -11.237

Total shielding tensor (ppm): 
            29.771          0.221         0.851
            -0.302         29.501        -2.385
             1.007         -2.859        32.993


 Diagonalized sT*s matrix:
 
 sDSO            15.288           32.671           48.398  iso=      32.119
 sPSO            12.711           -2.950          -13.853  iso=      -1.364
        ---------------  ---------------  ---------------
 Total           27.999           29.721           34.545  iso=      30.755

 --------------
 Nucleus  61H :
 --------------

Diamagnetic contribution to the shielding tensor (ppm) : 
            32.579         -5.010        -7.346
            18.098         45.961         2.017
             6.439         10.389        35.301

Paramagnetic contribution to the shielding tensor (ppm): 
             1.085          4.724         3.007
           -18.850        -15.878         0.673
           -10.538         -7.941        -6.305

Total shielding tensor (ppm): 
            33.664         -0.285        -4.339
            -0.752         30.083         2.690
            -4.099          2.448        28.996


 Diagonalized sT*s matrix:
 
 sDSO            29.991           50.172           33.678  iso=      37.947
 sPSO            -4.389          -19.678            2.969  iso=      -7.033
        ---------------  ---------------  ---------------
 Total           25.602           30.494           36.647  iso=      30.914

 --------------
 Nucleus  62H :
 --------------

Diamagnetic contribution to the shielding tensor (ppm) : 
            24.161         -3.089         1.127
            16.555         43.538        -9.743
            11.714         -5.467        38.805

Paramagnetic contribution to the shielding tensor (ppm): 
             5.277          1.348        -0.329
           -18.029         -9.391         6.098
           -11.037          2.792        -9.264

Total shielding tensor (ppm): 
            29.439         -1.741         0.798
            -1.474         34.147        -3.646
             0.677         -2.675        29.542


 Diagonalized sT*s matrix:
 
 sDSO            34.647           26.131           45.727  iso=      35.502
 sPSO            -6.717            2.852           -9.512  iso=      -4.459
        ---------------  ---------------  ---------------
 Total           27.930           28.982           36.215  iso=      31.042

 --------------
 Nucleus  63H :
 --------------

Diamagnetic contribution to the shielding tensor (ppm) : 
            26.509          4.964         5.270
            29.237         35.382        -1.810
            24.117          6.713        38.064

Paramagnetic contribution to the shielding tensor (ppm): 
             4.625         -3.301        -3.761
           -26.211         -3.975         6.894
           -22.510         -1.814        -9.623

Total shielding tensor (ppm): 
            31.133          1.664         1.509
             3.025         31.407         5.084
             1.607          4.900        28.441


 Diagonalized sT*s matrix:
 
 sDSO            34.774           10.590           54.592  iso=      33.318
 sPSO           -10.061           19.098          -18.011  iso=      -2.991
        ---------------  ---------------  ---------------
 Total           24.713           29.687           36.581  iso=      30.327

 --------------
 Nucleus  64H :
 --------------

Diamagnetic contribution to the shielding tensor (ppm) : 
            37.565         -2.342        -7.879
           -21.342          9.371        -4.506
           -17.308         -6.485        27.578

Paramagnetic contribution to the shielding tensor (ppm): 
            -4.505          0.979         2.839
            18.851         19.811         7.224
            12.230          8.834         2.988

Total shielding tensor (ppm): 
            33.060         -1.364        -5.041
            -2.491         29.182         2.718
            -5.078          2.349        30.566


 Diagonalized sT*s matrix:
 
 sDSO            25.198            3.731           45.584  iso=      24.838
 sPSO             1.083           24.702           -7.490  iso=       6.098
        ---------------  ---------------  ---------------
 Total           26.281           28.433           38.094  iso=      30.936

 --------------
 Nucleus  65H :
 --------------

Diamagnetic contribution to the shielding tensor (ppm) : 
            37.639          2.946         0.941
           -22.032         29.043         4.479
           -11.967         -0.472        29.921

Paramagnetic contribution to the shielding tensor (ppm): 
            -4.432         -0.891        -0.674
            25.153          1.789         0.069
            12.356          4.686        -2.746

Total shielding tensor (ppm): 
            33.207          2.055         0.267
             3.121         30.831         4.548
             0.389          4.213        27.175


 Diagonalized sT*s matrix:
 
 sDSO            28.174           45.392           23.037  iso=      32.201
 sPSO            -4.075          -14.158           12.844  iso=      -1.796
        ---------------  ---------------  ---------------
 Total           24.099           31.234           35.881  iso=      30.405

 --------------
 Nucleus  66H :
 --------------

Diamagnetic contribution to the shielding tensor (ppm) : 
            33.252         -4.198         1.192
           -23.929         24.093        -9.028
            -3.048        -13.863        29.793

Paramagnetic contribution to the shielding tensor (ppm): 
            -2.442          2.034         0.134
            21.417          9.158         5.776
             3.729         11.205         0.061

Total shielding tensor (ppm): 
            30.810         -2.164         1.326
            -2.512         33.251        -3.252
             0.681         -2.658        29.854


 Diagonalized sT*s matrix:
 
 sDSO            15.103           28.012           44.023  iso=      29.046
 sPSO            12.990            1.653           -7.866  iso=       2.259
        ---------------  ---------------  ---------------
 Total           28.093           29.665           36.157  iso=      31.305

 --------------
 Nucleus  67H :
 --------------

Diamagnetic contribution to the shielding tensor (ppm) : 
            32.088          3.511         5.802
             9.389          9.970       -10.701
            19.837         -8.871        28.634

Paramagnetic contribution to the shielding tensor (ppm): 
             0.309         -3.381        -1.626
            -8.862         17.930        10.191
           -16.111          8.075         4.901

Total shielding tensor (ppm): 
            32.397          0.130         4.176
             0.527         27.901        -0.510
             3.727         -0.796        33.535


 Diagonalized sT*s matrix:
 
 sDSO             2.438           25.309           42.945  iso=      23.564
 sPSO            25.129            3.989           -5.979  iso=       7.713
        ---------------  ---------------  ---------------
 Total           27.568           29.298           36.966  iso=      31.277

 --------------
 Nucleus  68H :
 --------------

Diamagnetic contribution to the shielding tensor (ppm) : 
            25.601          5.992         2.024
            26.149         25.473        -7.451
            11.005         -5.969        20.588

Paramagnetic contribution to the shielding tensor (ppm): 
             5.068         -3.044        -1.975
           -24.439          9.863         9.120
           -11.530          8.065         4.664

Total shielding tensor (ppm): 
            30.669          2.948         0.049
             1.710         35.336         1.668
            -0.525          2.096        25.252


 Diagonalized sT*s matrix:
 
 sDSO            24.149           12.847           34.666  iso=      23.887
 sPSO             0.686           17.034            1.877  iso=       6.532
        ---------------  ---------------  ---------------
 Total           24.835           29.881           36.542  iso=      30.419

 --------------
 Nucleus  69H :
 --------------

Diamagnetic contribution to the shielding tensor (ppm) : 
            39.671          5.209        -4.508
             7.919          1.553        -8.702
            -7.004        -13.181        13.156

Paramagnetic contribution to the shielding tensor (ppm): 
            -3.165         -3.370         0.639
            -5.598         26.151         9.075
             3.808         13.609        15.185

Total shielding tensor (ppm): 
            36.506          1.838        -3.869
             2.321         27.704         0.373
            -3.196          0.428        28.340


 Diagonalized sT*s matrix:
 
 sDSO            15.520           -3.631           42.489  iso=      18.126
 sPSO            10.584           31.937           -4.351  iso=      12.723
        ---------------  ---------------  ---------------
 Total           26.104           28.307           38.138  iso=      30.850

 --------------
 Nucleus  70H :
 --------------

Diamagnetic contribution to the shielding tensor (ppm) : 
            35.377         -7.000        -8.380
           -19.563         28.022         7.498
           -16.439          4.204        31.821

Paramagnetic contribution to the shielding tensor (ppm): 
            -1.019          5.997         3.505
            18.213          1.585        -4.832
            11.772         -1.687        -3.101

Total shielding tensor (ppm): 
            34.358         -1.003        -4.875
            -1.349         29.607         2.666
            -4.667          2.517        28.719


 Diagonalized sT*s matrix:
 
 sDSO            23.959           19.409           51.851  iso=      31.740
 sPSO             1.320           10.243          -14.098  iso=      -0.845
        ---------------  ---------------  ---------------
 Total           25.279           29.652           37.752  iso=      30.894

 --------------
 Nucleus  71H :
 --------------

Diamagnetic contribution to the shielding tensor (ppm) : 
            31.925          1.724         4.659
            -9.714         39.972        12.793
            -3.411          8.971        37.360

Paramagnetic contribution to the shielding tensor (ppm): 
             0.516         -0.849        -4.508
            11.830         -9.523        -7.692
             3.953         -4.474        -9.600

Total shielding tensor (ppm): 
            32.441          0.875         0.151
             2.116         30.449         5.101
             0.542          4.497        27.761


 Diagonalized sT*s matrix:
 
 sDSO            28.234           38.675           42.349  iso=      36.419
 sPSO            -4.160           -6.996           -7.451  iso=      -6.202
        ---------------  ---------------  ---------------
 Total           24.073           31.679           34.898  iso=      30.217

 --------------
 Nucleus  72H :
 --------------

Diamagnetic contribution to the shielding tensor (ppm) : 
            28.300         -7.064         0.619
           -15.326         41.704         1.586
            -4.281         -6.094        35.066

Paramagnetic contribution to the shielding tensor (ppm): 
             2.508          4.714        -0.195
            13.373         -8.382        -5.135
             4.276          3.759        -6.365

Total shielding tensor (ppm): 
            30.808         -2.350         0.424
            -1.953         33.322        -3.549
            -0.005         -2.335        28.701


 Diagonalized sT*s matrix:
 
 sDSO            31.220           26.922           46.927  iso=      35.023
 sPSO            -4.127            3.198          -11.309  iso=      -4.080
        ---------------  ---------------  ---------------
 Total           27.093           30.120           35.618  iso=      30.944



--------------------------------
CHEMICAL SHIELDING SUMMARY (ppm)
--------------------------------


  Nucleus  Element    Isotropic     Anisotropy
  -------  -------  ------------   ------------
      3       H           29.641          5.450 
      4       H           29.134          5.305 
      8       H           29.571          6.468 
      9       H           29.430          7.746 
     10       H           29.632          8.783 
     11       H           30.534          6.240 
     13       H           28.188          2.756 
     16       H           26.861          5.129 
     17       H           26.522          4.984 
     19       H           25.452         10.741 
     21       H           25.714         14.981 
     24       H           28.893          9.944 
     25       H           29.997          9.497 
     27       H           30.230          7.089 
     28       H           30.152         11.761 
     30       H           29.748          8.112 
     31       H           30.402          6.979 
     33       H           29.777          4.257 
     35       H           31.123         14.874 
     37       H           30.399         10.827 
     38       H           30.301          9.295 
     40       H           30.064          9.441 
     41       H           30.558          9.066 
     42       H           30.579          5.054 
     45       H           31.065          8.224 
     46       H           31.325          9.224 
     47       H           31.296          7.162 
     48       H           29.992          4.573 
     52       H           26.516          8.279 
     53       H           26.575          8.141 
     57       H           30.445          2.912 
     58       H           30.755          5.685 
     61       H           30.914          8.599 
     62       H           31.042          7.759 
     63       H           30.327          9.381 
     64       H           30.936         10.737 
     65       H           30.405          8.215 
     66       H           31.305          7.278 
     67       H           31.277          8.533 
     68       H           30.419          9.185 
     69       H           30.850         10.933 
     70       H           30.894         10.287 
     71       H           30.217          7.022 
     72       H           30.944          7.011 



Maximum memory used throughout the entire EPRNMR-calculation: 139.9 MB

Timings for individual modules:

Sum of individual times         ...      140.405 sec (=   2.340 min)
GTO integral calculation        ...        0.822 sec (=   0.014 min)   0.6 %
SCF iterations                  ...       95.050 sec (=   1.584 min)  67.7 %
EPR/NMR calculation             ...       44.534 sec (=   0.742 min)  31.7 %
                             ****ORCA TERMINATED NORMALLY****
TOTAL RUN TIME: 0 days 0 hours 2 minutes 20 seconds 871 msec
