
                                 *****************
                                 * O   R   C   A *
                                 *****************

                                            #,                                       
                                            ###                                      
                                            ####                                     
                                            #####                                    
                                            ######                                   
                                           ########,                                 
                                     ,,################,,,,,                         
                               ,,#################################,,                 
                          ,,##########################################,,             
                       ,#########################################, ''#####,          
                    ,#############################################,,   '####,        
                  ,##################################################,,,,####,       
                ,###########''''           ''''###############################       
              ,#####''   ,,,,##########,,,,          '''####'''          '####       
            ,##' ,,,,###########################,,,                        '##       
           ' ,,###''''                  '''############,,,                           
         ,,##''                                '''############,,,,        ,,,,,,###''
      ,#''                                            '''#######################'''  
     '                                                          ''''####''''         
             ,#######,   #######,   ,#######,      ##                                
            ,#'     '#,  ##    ##  ,#'     '#,    #''#        ######   ,####,        
            ##       ##  ##   ,#'  ##            #'  '#       #        #'  '#        
            ##       ##  #######   ##           ,######,      #####,   #    #        
            '#,     ,#'  ##    ##  '#,     ,#' ,#      #,         ##   #,  ,#        
             '#######'   ##     ##  '#######'  #'      '#     #####' # '####'        



                  #######################################################
                  #                        -***-                        #
                  #          Department of theory and spectroscopy      #
                  #    Directorship and core code : Frank Neese         #
                  #        Max Planck Institute fuer Kohlenforschung    #
                  #                Kaiser Wilhelm Platz 1               #
                  #                 D-45470 Muelheim/Ruhr               #
                  #                      Germany                        #
                  #                                                     #
                  #                  All rights reserved                #
                  #                        -***-                        #
                  #######################################################


                         Program Version 5.0.2 -  RELEASE  -


 With contributions from (in alphabetic order):
   Daniel Aravena         : Magnetic Suceptibility
   Michael Atanasov       : Ab Initio Ligand Field Theory (pilot matlab implementation)
   Alexander A. Auer      : GIAO ZORA, VPT2 properties, NMR spectrum
   Ute Becker             : Parallelization
   Giovanni Bistoni       : ED, misc. LED, open-shell LED, HFLD
   Martin Brehm           : Molecular dynamics
   Dmytro Bykov           : SCF Hessian
   Vijay G. Chilkuri      : MRCI spin determinant printing, contributions to CSF-ICE
   Dipayan Datta          : RHF DLPNO-CCSD density
   Achintya Kumar Dutta   : EOM-CC, STEOM-CC
   Dmitry Ganyushin       : Spin-Orbit,Spin-Spin,Magnetic field MRCI
   Miquel Garcia          : C-PCM and meta-GGA Hessian, CC/C-PCM, Gaussian charge scheme
   Yang Guo               : DLPNO-NEVPT2, F12-NEVPT2, CIM, IAO-localization
   Andreas Hansen         : Spin unrestricted coupled pair/coupled cluster methods
   Benjamin Helmich-Paris : MC-RPA, TRAH-SCF, COSX integrals
   Lee Huntington         : MR-EOM, pCC
   Robert Izsak           : Overlap fitted RIJCOSX, COSX-SCS-MP3, EOM
   Marcus Kettner         : VPT2
   Christian Kollmar      : KDIIS, OOCD, Brueckner-CCSD(T), CCSD density, CASPT2, CASPT2-K
   Simone Kossmann        : Meta GGA functionals, TD-DFT gradient, OOMP2, MP2 Hessian
   Martin Krupicka        : Initial AUTO-CI
   Lucas Lang             : DCDCAS
   Marvin Lechner         : AUTO-CI (C++ implementation), FIC-MRCC
   Dagmar Lenk            : GEPOL surface, SMD
   Dimitrios Liakos       : Extrapolation schemes; Compound Job, initial MDCI parallelization
   Dimitrios Manganas     : Further ROCIS development; embedding schemes
   Dimitrios Pantazis     : SARC Basis sets
   Anastasios Papadopoulos: AUTO-CI, single reference methods and gradients
   Taras Petrenko         : DFT Hessian,TD-DFT gradient, ASA, ECA, R-Raman, ABS, FL, XAS/XES, NRVS
   Peter Pinski           : DLPNO-MP2, DLPNO-MP2 Gradient
   Christoph Reimann      : Effective Core Potentials
   Marius Retegan         : Local ZFS, SOC
   Christoph Riplinger    : Optimizer, TS searches, QM/MM, DLPNO-CCSD(T), (RO)-DLPNO pert. Triples
   Tobias Risthaus        : Range-separated hybrids, TD-DFT gradient, RPA, STAB
   Michael Roemelt        : Original ROCIS implementation
   Masaaki Saitow         : Open-shell DLPNO-CCSD energy and density
   Barbara Sandhoefer     : DKH picture change effects
   Avijit Sen             : IP-ROCIS
   Kantharuban Sivalingam : CASSCF convergence, NEVPT2, FIC-MRCI
   Bernardo de Souza      : ESD, SOC TD-DFT
   Georgi Stoychev        : AutoAux, RI-MP2 NMR, DLPNO-MP2 response
   Willem Van den Heuvel  : Paramagnetic NMR
   Boris Wezisla          : Elementary symmetry handling
   Frank Wennmohs         : Technical directorship


 We gratefully acknowledge several colleagues who have allowed us to
 interface, adapt or use parts of their codes:
   Stefan Grimme, W. Hujo, H. Kruse, P. Pracht,  : VdW corrections, initial TS optimization,
                  C. Bannwarth, S. Ehlert          DFT functionals, gCP, sTDA/sTD-DF
   Ed Valeev, F. Pavosevic, A. Kumar             : LibInt (2-el integral package), F12 methods
   Garnet Chan, S. Sharma, J. Yang, R. Olivares  : DMRG
   Ulf Ekstrom                                   : XCFun DFT Library
   Mihaly Kallay                                 : mrcc  (arbitrary order and MRCC methods)
   Jiri Pittner, Ondrej Demel                    : Mk-CCSD
   Frank Weinhold                                : gennbo (NPA and NBO analysis)
   Christopher J. Cramer and Donald G. Truhlar   : smd solvation model
   Lars Goerigk                                  : TD-DFT with DH, B97 family of functionals
   V. Asgeirsson, H. Jonsson                     : NEB implementation
   FAccTs GmbH                                   : IRC, NEB, NEB-TS, DLPNO-Multilevel, CI-OPT
                                                   MM, QMMM, 2- and 3-layer-ONIOM, Crystal-QMMM,
                                                   LR-CPCM, SF, NACMEs, symmetry and pop. for TD-DFT,
                                                   nearIR, NL-DFT gradient (VV10), updates on ESD,
                                                   ML-optimized integration grids
   S Lehtola, MJT Oliveira, MAL Marques          : LibXC Library
   Liviu Ungur et al                             : ANISO software


 Your calculation uses the libint2 library for the computation of 2-el integrals
 For citations please refer to: http://libint.valeyev.net

 Your ORCA version has been built with support for libXC version: 5.1.0
 For citations please refer to: https://tddft.org/programs/libxc/

 This ORCA versions uses:
   CBLAS   interface :  Fast vector & matrix operations
   LAPACKE interface :  Fast linear algebra routines
   SCALAPACK package :  Parallel linear algebra routines
   Shared memory     :  Shared parallel matrices
   BLAS/LAPACK       :  OpenBLAS 0.3.15  USE64BITINT DYNAMIC_ARCH NO_AFFINITY Zen SINGLE_THREADED
        Core in use  :  Zen
   Copyright (c) 2011-2014, The OpenBLAS Project


Your calculation utilizes the atom-pairwise dispersion correction
based on tight binding partial charges (D4)
Cite in your paper:
E.Caldeweyher, C.Bannwarth, S.Grimme, J.Chem.Phys., (2017), 147, 034112.
E.Caldeweyher, S.Ehlert, A.Hansen, H.Neugebauer, S.Grimme, J.Chem.Phys., (2018), in progress.
   

================================================================================

----- Orbital basis set information -----
Your calculation utilizes the basis: pcJ-0
   F. Jensen, Theor. Chem. Acc. 126, 371 (2010).

----- AuxJ basis set information -----
Your calculation utilizes the auxiliary basis: def2/J
   F. Weigend, Phys. Chem. Chem. Phys. 8, 1057 (2006).

================================================================================
                                        WARNINGS
                       Please study these warnings very carefully!
================================================================================


INFO   : the flag for use of the SHARK integral package has been found!

================================================================================
                                       INPUT FILE
================================================================================
NAME = inpJ
|  1> ! pbe0
|  2> ! D4
|  3> ! pcJ-0
|  4> ! def2/J RIJCOSX
|  5> ! DEFGRID2
|  6> ! scfconv7
|  7> ! smallprint printgap noloewdin
|  8> ! NOSOSCF
|  9> %MaxCore 4000
| 10> %output
| 11>        print[P_BondOrder_M] 1
| 12>        print[P_Mayer] 1
| 13>        print[P_basis] 2
| 14> end
| 15> %pal
| 16>     nprocs 4
| 17> end
| 18> ! CPCM(chloroform)
| 19> *xyz 0 1
| 20> C   -4.9970955600   0.2151337400  -0.4994928600
| 21> C   -6.4448492500  -0.1838003900  -0.6619555300
| 22> C   -7.3540414000   0.7603346300   0.1350759100
| 23> H   -6.6008698400  -1.2184816400  -0.3361250800
| 24> H   -6.7342648200  -0.1147645300  -1.7210794900
| 25> C   -4.7238973500   1.6309414100  -0.8317393400
| 26> C   -5.6547439200   2.6202012000  -0.1657949900
| 27> C   -7.1268698700   2.2074689000  -0.3051145900
| 28> H   -5.4959495400   3.6237627900  -0.5746624500
| 29> H   -5.4014204500   2.6660448500   0.9043253400
| 30> H   -7.4374041800   2.3018160400  -1.3546254900
| 31> H   -7.7625319600   2.8748051100   0.2883288900
| 32> O   -7.1430383300   0.5953810000   1.5472824700
| 33> H   -8.4031109300   0.4869088500  -0.0327242500
| 34> C   -4.0772516200  -0.6583761700  -0.0250680800
| 35> C   -3.7627750400   2.0106351300  -1.6808234700
| 36> H   -3.1153103500   1.2835236000  -2.1636767400
| 37> H   -3.6100863700   3.0606795500  -1.9189756700
| 38> C   -2.6936961000  -0.3628925300   0.2677947700
| 39> H   -4.4318995900  -1.6678537100   0.1797756900
| 40> C   -1.7432806500  -1.2495370200   0.6324500600
| 41> H   -2.4063349100   0.6832439100   0.1891654100
| 42> C   -1.9331742200  -2.7391576100   0.7642598800
| 43> C   -0.9259202000  -3.5166390500  -0.1057767000
| 44> H   -2.9511966100  -3.0527502800   0.5177221900
| 45> H   -1.7573360400  -3.0112407900   1.8171377800
| 46> C    0.5231174400  -3.0625083500   0.1173300700
| 47> H   -1.1957523100  -3.3921508300  -1.1621251000
| 48> H   -1.0131578200  -4.5878069900   0.1137968000
| 49> C    0.6813700100  -1.5461681200  -0.0598818500
| 50> H    1.1771646400  -3.6141505700  -0.5660944500
| 51> H    0.8320131600  -3.3267464000   1.1399705400
| 52> C   -0.3263467100  -0.8533960600   0.9133877800
| 53> H   -0.0768146900  -1.2659202900   1.9080531000
| 54> C    0.1010593600   0.6114888600   0.9122866200
| 55> H   -6.1892273200   0.5209515500   1.6935987800
| 56> C    1.6437218000   0.5402493100   0.8000005500
| 57> H   -0.2376311400   1.1395491400   1.8098153700
| 58> H   -0.3201419600   1.1392626200   0.0493589400
| 59> C    2.0122215700  -0.9350519700   0.4592789300
| 60> H    2.1365410400   0.8547408400   1.7252847700
| 61> H    2.0106273300   1.2095011100   0.0129905800
| 62> H    2.2529307200  -1.4625659700   1.3968637500
| 63> C    3.2648047400  -1.0110335500  -0.4372797700
| 64> C    0.4180836900  -1.1285237900  -1.5128486300
| 65> H    0.6359715000  -0.0676608600  -1.6722808300
| 66> H   -0.6264802400  -1.2930370400  -1.7948744900
| 67> H    1.0475702800  -1.7037256800  -2.2006510300
| 68> H    3.0545073000  -0.4671368800  -1.3699658600
| 69> C    3.6822884300  -2.4475341500  -0.7867348100
| 70> C    4.4138146500  -0.3222542500   0.2499079200
| 71> C    5.0835123000   0.7248840000  -0.2271487600
| 72> H    4.7138258700  -0.7502807300   1.2117855000
| 73> H    4.7821248700   1.1512038200  -1.1894985700
| 74> C    6.2268727400   1.4185439400   0.4591377400
| 75> C    5.7988949600   2.8489648500   0.8259760200
| 76> C    7.5003151800   1.3960336400  -0.4219597500
| 77> H    6.4559200400   0.8722626200   1.3882549900
| 78> H    7.2513101800   1.9068858300  -1.3663297200
| 79> C    7.9160284100  -0.0413847900  -0.7462482900
| 80> C    8.6675798700   2.1389814100   0.2340520700
| 81> H    5.6515874200   3.4506756100  -0.0797782300
| 82> H    6.5446106000   3.3500233300   1.4501638200
| 83> H    4.8531568600   2.8331094100   1.3775684200
| 84> H    7.1216310500  -0.5842984500  -1.2672499500
| 85> H    8.1445929600  -0.5889324600   0.1775450400
| 86> H    8.8124897600  -0.0548301000  -1.3758343000
| 87> H    8.4684899000   3.2079088400   0.3515575200
| 88> H    9.5747468200   2.0349683900  -0.3712884000
| 89> H    8.8783611700   1.7203562400   1.2267829400
| 90> H    2.9505276700  -2.9391767100  -1.4327658900
| 91> H    3.7951464400  -3.0515512000   0.1220123000
| 92> H    4.6440605200  -2.4439182600  -1.3110445700
| 93> *
| 94> %eprnmr
| 95>  Nuclei = all H { ssfc }
| 96>  SpinSpinRThresh 8.0
| 97> end
| 98> 
| 99>                          ****END OF INPUT****
================================================================================

                       ****************************
                       * Single Point Calculation *
                       ****************************

---------------------------------
CARTESIAN COORDINATES (ANGSTROEM)
---------------------------------
  C     -4.997096    0.215134   -0.499493
  C     -6.444849   -0.183800   -0.661956
  C     -7.354041    0.760335    0.135076
  H     -6.600870   -1.218482   -0.336125
  H     -6.734265   -0.114765   -1.721079
  C     -4.723897    1.630941   -0.831739
  C     -5.654744    2.620201   -0.165795
  C     -7.126870    2.207469   -0.305115
  H     -5.495950    3.623763   -0.574662
  H     -5.401420    2.666045    0.904325
  H     -7.437404    2.301816   -1.354625
  H     -7.762532    2.874805    0.288329
  O     -7.143038    0.595381    1.547282
  H     -8.403111    0.486909   -0.032724
  C     -4.077252   -0.658376   -0.025068
  C     -3.762775    2.010635   -1.680823
  H     -3.115310    1.283524   -2.163677
  H     -3.610086    3.060680   -1.918976
  C     -2.693696   -0.362893    0.267795
  H     -4.431900   -1.667854    0.179776
  C     -1.743281   -1.249537    0.632450
  H     -2.406335    0.683244    0.189165
  C     -1.933174   -2.739158    0.764260
  C     -0.925920   -3.516639   -0.105777
  H     -2.951197   -3.052750    0.517722
  H     -1.757336   -3.011241    1.817138
  C      0.523117   -3.062508    0.117330
  H     -1.195752   -3.392151   -1.162125
  H     -1.013158   -4.587807    0.113797
  C      0.681370   -1.546168   -0.059882
  H      1.177165   -3.614151   -0.566094
  H      0.832013   -3.326746    1.139971
  C     -0.326347   -0.853396    0.913388
  H     -0.076815   -1.265920    1.908053
  C      0.101059    0.611489    0.912287
  H     -6.189227    0.520952    1.693599
  C      1.643722    0.540249    0.800001
  H     -0.237631    1.139549    1.809815
  H     -0.320142    1.139263    0.049359
  C      2.012222   -0.935052    0.459279
  H      2.136541    0.854741    1.725285
  H      2.010627    1.209501    0.012991
  H      2.252931   -1.462566    1.396864
  C      3.264805   -1.011034   -0.437280
  C      0.418084   -1.128524   -1.512849
  H      0.635972   -0.067661   -1.672281
  H     -0.626480   -1.293037   -1.794874
  H      1.047570   -1.703726   -2.200651
  H      3.054507   -0.467137   -1.369966
  C      3.682288   -2.447534   -0.786735
  C      4.413815   -0.322254    0.249908
  C      5.083512    0.724884   -0.227149
  H      4.713826   -0.750281    1.211785
  H      4.782125    1.151204   -1.189499
  C      6.226873    1.418544    0.459138
  C      5.798895    2.848965    0.825976
  C      7.500315    1.396034   -0.421960
  H      6.455920    0.872263    1.388255
  H      7.251310    1.906886   -1.366330
  C      7.916028   -0.041385   -0.746248
  C      8.667580    2.138981    0.234052
  H      5.651587    3.450676   -0.079778
  H      6.544611    3.350023    1.450164
  H      4.853157    2.833109    1.377568
  H      7.121631   -0.584298   -1.267250
  H      8.144593   -0.588932    0.177545
  H      8.812490   -0.054830   -1.375834
  H      8.468490    3.207909    0.351558
  H      9.574747    2.034968   -0.371288
  H      8.878361    1.720356    1.226783
  H      2.950528   -2.939177   -1.432766
  H      3.795146   -3.051551    0.122012
  H      4.644061   -2.443918   -1.311045

----------------------------
CARTESIAN COORDINATES (A.U.)
----------------------------
  NO LB      ZA    FRAG     MASS         X           Y           Z
   0 C     6.0000    0    12.011   -9.443142    0.406544   -0.943905
   1 C     6.0000    0    12.011  -12.179000   -0.347332   -1.250915
   2 C     6.0000    0    12.011  -13.897124    1.436824    0.255256
   3 H     1.0000    0     1.008  -12.473836   -2.302597   -0.635184
   4 H     1.0000    0     1.008  -12.725916   -0.216874   -3.252369
   5 C     6.0000    0    12.011   -8.926872    3.082033   -1.571760
   6 C     6.0000    0    12.011  -10.685917    4.951463   -0.313307
   7 C     6.0000    0    12.011  -13.467832    4.171512   -0.576583
   8 H     1.0000    0     1.008  -10.385839    6.847919   -1.085955
   9 H     1.0000    0     1.008  -10.207205    5.038095    1.708927
  10 H     1.0000    0     1.008  -14.054657    4.349802   -2.559871
  11 H     1.0000    0     1.008  -14.669060    5.432594    0.544863
  12 O     8.0000    0    15.999  -13.498386    1.125107    2.923940
  13 H     1.0000    0     1.008  -15.879578    0.920124   -0.061840
  14 C     6.0000    0    12.011   -7.704889   -1.244151   -0.047372
  15 C     6.0000    0    12.011   -7.110614    3.799550   -3.176296
  16 H     1.0000    0     1.008   -5.887083    2.425508   -4.088756
  17 H     1.0000    0     1.008   -6.822075    5.783846   -3.626338
  18 C     6.0000    0    12.011   -5.090348   -0.685767    0.506059
  19 H     1.0000    0     1.008   -8.375076   -3.151787    0.339727
  20 C     6.0000    0    12.011   -3.294323   -2.361283    1.195157
  21 H     1.0000    0     1.008   -4.547314    1.291144    0.357471
  22 C     6.0000    0    12.011   -3.653170   -5.176258    1.444242
  23 C     6.0000    0    12.011   -1.749736   -6.645485   -0.199889
  24 H     1.0000    0     1.008   -5.576953   -5.768862    0.978353
  25 H     1.0000    0     1.008   -3.320884   -5.690420    3.433893
  26 C     6.0000    0    12.011    0.988549   -5.787302    0.221722
  27 H     1.0000    0     1.008   -2.259644   -6.410236   -2.196098
  28 H     1.0000    0     1.008   -1.914591   -8.669699    0.215045
  29 C     6.0000    0    12.011    1.287603   -2.921834   -0.113160
  30 H     1.0000    0     1.008    2.224519   -6.829755   -1.069763
  31 H     1.0000    0     1.008    1.572277   -6.286640    2.154232
  32 C     6.0000    0    12.011   -0.616706   -1.612685    1.726053
  33 H     1.0000    0     1.008   -0.145159   -2.392243    3.605698
  34 C     6.0000    0    12.011    0.190975    1.155546    1.723972
  35 H     1.0000    0     1.008  -11.695945    0.984456    3.200438
  36 C     6.0000    0    12.011    3.106184    1.020923    1.511782
  37 H     1.0000    0     1.008   -0.449058    2.153436    3.420055
  38 H     1.0000    0     1.008   -0.604981    2.152894    0.093275
  39 C     6.0000    0    12.011    3.802548   -1.766992    0.867911
  40 H     1.0000    0     1.008    4.037477    1.615226    3.260316
  41 H     1.0000    0     1.008    3.799535    2.285626    0.024549
  42 H     1.0000    0     1.008    4.257422   -2.763849    2.639690
  43 C     6.0000    0    12.011    6.169587   -1.910577   -0.826339
  44 C     6.0000    0    12.011    0.790064   -2.132601   -2.858870
  45 H     1.0000    0     1.008    1.201812   -0.127860   -3.160153
  46 H     1.0000    0     1.008   -1.183876   -2.443486   -3.391821
  47 H     1.0000    0     1.008    1.979621   -3.219575   -4.158628
  48 H     1.0000    0     1.008    5.772182   -0.882761   -2.588860
  49 C     6.0000    0    12.011    6.958517   -4.625169   -1.486713
  50 C     6.0000    0    12.011    8.340901   -0.608972    0.472258
  51 C     6.0000    0    12.011    9.606446    1.369832   -0.429249
  52 H     1.0000    0     1.008    8.907840   -1.417825    2.289943
  53 H     1.0000    0     1.008    9.036906    2.175460   -2.247827
  54 C     6.0000    0    12.011   11.767084    2.680660    0.867645
  55 C     6.0000    0    12.011   10.958323    5.383763    1.560868
  56 C     6.0000    0    12.011   14.173542    2.638121   -0.797388
  57 H     1.0000    0     1.008   12.199921    1.648337    2.623422
  58 H     1.0000    0     1.008   13.702990    3.603492   -2.581989
  59 C     6.0000    0    12.011   14.959126   -0.078206   -1.410205
  60 C     6.0000    0    12.011   16.379352    4.042089    0.442294
  61 H     1.0000    0     1.008   10.679952    6.520832   -0.150759
  62 H     1.0000    0     1.008   12.367522    6.330627    2.740412
  63 H     1.0000    0     1.008    9.171137    5.353801    2.603227
  64 H     1.0000    0     1.008   13.457932   -1.104164   -2.394755
  65 H     1.0000    0     1.008   15.391050   -1.112921    0.335512
  66 H     1.0000    0     1.008   16.653192   -0.103614   -2.599950
  67 H     1.0000    0     1.008   16.003127    6.062069    0.664347
  68 H     1.0000    0     1.008   18.093649    3.845533   -0.701633
  69 H     1.0000    0     1.008   16.777671    3.251002    2.318284
  70 H     1.0000    0     1.008    5.575689   -5.554239   -2.707535
  71 H     1.0000    0     1.008    7.171787   -5.766596    0.230570
  72 H     1.0000    0     1.008    8.776003   -4.618336   -2.477515

--------------------------------
INTERNAL COORDINATES (ANGSTROEM)
--------------------------------
 C      0   0   0     0.000000000000     0.00000000     0.00000000
 C      1   0   0     1.510474530117     0.00000000     0.00000000
 C      2   1   0     1.534040552906   110.46502575     0.00000000
 H      2   1   3     1.095934850141   110.72138717   237.87940605
 H      2   1   3     1.100123122551   109.82368673   118.77247738
 C      1   2   3     1.479708195507   113.92365854   306.09926409
 C      6   1   2     1.512809355566   114.40835537    49.79928005
 C      3   2   1     1.529566008952   110.16588236    56.78018473
 H      7   6   1     1.095227884912   110.22109195   188.77643938
 H      7   6   1     1.100650689991   108.27701245    72.11463274
 H      8   3   2     1.098547254210   108.31334147    64.45392552
 H      8   3   2     1.096165623341   109.51496384   181.43472008
 O      3   2   1     1.437379338834   110.66058303   292.78011937
 H      3   2   1     1.097025719680   109.50561241   177.26844831
 C      1   2   3     1.354330575857   121.21940004   122.99104033
 C      6   1   2     1.337485430053   123.15086697   231.75860204
 H     16   6   1     1.086760775058   121.34896981   359.02453842
 H     16   6   1     1.087484981176   120.93286058   178.39316967
 C     15   1   2     1.444750880720   126.12267766   185.01369587
 H     15   1   2     1.089394812039   116.25856342     3.04636884
 C     19  15   1     1.349963503126   126.48678814   186.01260696
 H     19  15   1     1.087731805579   115.78795011     6.47879454
 C     21  19  15     1.507449136365   125.72927125     2.04400581
 C     23  21  19     1.541428461165   111.51565082   124.21837601
 H     23  21  19     1.093385010785   112.39493274     0.60156649
 H     23  21  19     1.101589848670   107.91074307   242.79090690
 C     24  23  21     1.534835953983   112.68340652    51.01251305
 H     24  23  21     1.097350730937   108.99249413   288.88048248
 H     24  23  21     1.096915529988   109.12296119   172.95889217
 C     27  24  23     1.534840588992   111.89306523   306.52724535
 H     27  24  23     1.095059794373   108.91169903   182.99525049
 H     27  24  23     1.100468919954   109.21049790    66.53904663
 C     21  19  15     1.497850277242   122.88525086   179.78286131
 H     33  21  19     1.105351332452   106.47695337   127.76120480
 C     33  21  19     1.525963626719   121.24577271     5.06964097
 H     13   3   2     0.967834514985   107.57938414    42.32911551
 C     35  33  21     1.548383233824   103.58804817   196.96704252
 H     35  33  21     1.095041903847   112.06789279    74.91501853
 H     35  33  21     1.095718884853   110.81120096   315.32108669
 C     30  27  24     1.553755688336   115.99615160   166.26924582
 H     37  35  33     1.094498338755   111.96740850   249.65148272
 H     37  35  33     1.096313063238   110.94109017   131.06143891
 H     40  30  27     1.102396121993   106.43917339   321.26595885
 C     40  30  27     1.542256561280   118.81880434    82.03699247
 C     30  27  24     1.534554963650   111.13151980   294.10782420
 H     45  30  27     1.094679807246   111.56161616   186.28061082
 H     45  30  27     1.094402576291   111.52111306    66.25394125
 H     45  30  27     1.095528512954   110.66886154   306.10225936
 H     44  40  30     1.099978155868   108.25712648    60.98233042
 C     44  40  30     1.536211388513   113.51736592   300.13845701
 C     44  40  30     1.505612041223   109.38693051   178.27003887
 C     51  44  40     1.331381437816   125.46013734   239.88432444
 H     51  44  40     1.094724567466   115.55042522    61.03725853
 H     52  51  44     1.094851646888   118.86448506     1.16459536
 C     52  51  44     1.503138838631   125.58914994   179.70791192
 C     55  52  51     1.537478222159   109.05892576   245.70930216
 C     55  52  51     1.548707573586   111.03826061   121.54685557
 H     55  52  51     1.101882394117   108.31933595     3.65964868
 H     57  55  52     1.102183328803   107.15528690    59.32006390
 C     57  55  52     1.531062470860   110.94107112   301.21295056
 C     57  55  52     1.531283694633   112.08670718   178.02944542
 H     56  55  52     1.097335915494   110.52296195   292.61594564
 H     56  55  52     1.093966099013   111.87079046   172.05488884
 H     56  55  52     1.094954850442   110.31323309    51.89261162
 H     60  57  55     1.094196114740   111.68811716    58.69304539
 H     60  57  55     1.097927284018   110.27454997   298.95369612
 H     60  57  55     1.095537435414   110.81940875   179.56821503
 H     61  57  55     1.093640799139   112.42526757   295.47845118
 H     61  57  55     1.095539898005   110.39121398   175.27982985
 H     61  57  55     1.097811627575   110.41066320    56.27361234
 H     50  44  40     1.092951221695   111.90946890    67.40265755
 H     50  44  40     1.096993544669   110.75599061   306.68992508
 H     50  44  40     1.095408303873   110.14530560   187.35818879

---------------------------
INTERNAL COORDINATES (A.U.)
---------------------------
 C      0   0   0     0.000000000000     0.00000000     0.00000000
 C      1   0   0     2.854383194184     0.00000000     0.00000000
 C      2   1   0     2.898916523322   110.46502575     0.00000000
 H      2   1   3     2.071016727386   110.72138717   237.87940605
 H      2   1   3     2.078931415215   109.82368673   118.77247738
 C      1   2   3     2.796243247627   113.92365854   306.09926409
 C      6   1   2     2.858795374854   114.40835537    49.79928005
 C      3   2   1     2.890460860674   110.16588236    56.78018473
 H      7   6   1     2.069680756718   110.22109195   188.77643938
 H      7   6   1     2.079928373194   108.27701245    72.11463274
 H      8   3   2     2.075953455628   108.31334147    64.45392552
 H      8   3   2     2.071452825534   109.51496384   181.43472008
 O      3   2   1     2.716253300953   110.66058303   292.78011937
 H      3   2   1     2.073078172063   109.50561241   177.26844831
 C      1   2   3     2.559313883165   121.21940004   122.99104033
 C      6   1   2     2.527481170911   123.15086697   231.75860204
 H     16   6   1     2.053680237948   121.34896981   359.02453842
 H     16   6   1     2.055048789176   120.93286058   178.39316967
 C     15   1   2     2.730183496302   126.12267766   185.01369587
 H     15   1   2     2.058657846468   116.25856342     3.04636884
 C     19  15   1     2.551061311696   126.48678814   186.01260696
 H     19  15   1     2.055515219700   115.78795011     6.47879454
 C     21  19  15     2.848666028546   125.72927125     2.04400581
 C     23  21  19     2.912877646633   111.51565082   124.21837601
 H     23  21  19     2.066198229318   112.39493274     0.60156649
 H     23  21  19     2.081703125894   107.91074307   242.79090690
 C     24  23  21     2.900419613524   112.68340652    51.01251305
 H     24  23  21     2.073692354330   108.99249413   288.88048248
 H     24  23  21     2.072869943723   109.12296119   172.95889217
 C     27  24  23     2.900428372422   111.89306523   306.52724535
 H     27  24  23     2.069363111633   108.91169903   182.99525049
 H     27  24  23     2.079584877604   109.21049790    66.53904663
 C     21  19  15     2.830526813604   122.88525086   179.78286131
 H     33  21  19     2.088811300099   106.47695337   127.76120480
 C     33  21  19     2.883653344824   121.24577271     5.06964097
 H     13   3   2     1.828942176278   107.57938414    42.32911551
 C     35  33  21     2.926020262283   103.58804817   196.96704252
 H     35  33  21     2.069329303438   112.06789279    74.91501853
 H     35  33  21     2.070608612139   110.81120096   315.32108669
 C     30  27  24     2.936172729977   115.99615160   166.26924582
 H     37  35  33     2.068302114278   111.96740850   249.65148272
 H     37  35  33     2.071731446561   110.94109017   131.06143891
 H     40  30  27     2.083226761663   106.43917339   321.26595885
 C     40  30  27     2.914442529063   118.81880434    82.03699247
 C     30  27  24     2.899888618749   111.13151980   294.10782420
 H     45  30  27     2.068645040028   111.56161616   186.28061082
 H     45  30  27     2.068121149447   111.52111306    66.25394125
 H     45  30  27     2.070248861385   110.66886154   306.10225936
 H     44  40  30     2.078657467887   108.25712648    60.98233042
 C     44  40  30     2.903018808101   113.51736592   300.13845701
 C     44  40  30     2.845194421845   109.38693051   178.27003887
 C     51  44  40     2.515946297259   125.46013734   239.88432444
 H     51  44  40     2.068729624586   115.55042522    61.03725853
 H     52  51  44     2.068969769891   118.86448506     1.16459536
 C     52  51  44     2.840520746272   125.58914994   179.70791192
 C     55  52  51     2.905412776748   109.05892576   245.70930216
 C     55  52  51     2.926633175608   111.03826061   121.54685557
 H     55  52  51     2.082255956671   108.31933595     3.65964868
 H     57  55  52     2.082824640811   107.15528690    59.32006390
 C     57  55  52     2.893288763850   110.94107112   301.21295056
 C     57  55  52     2.893706816195   112.08670718   178.02944542
 H     56  55  52     2.073664357200   110.52296195   292.61594564
 H     56  55  52     2.067296326928   111.87079046   172.05488884
 H     56  55  52     2.069164796345   110.31323309    51.89261162
 H     60  57  55     2.067730993659   111.68811716    58.69304539
 H     60  57  55     2.074781881754   110.27454997   298.95369612
 H     60  57  55     2.070265722390   110.81940875   179.56821503
 H     61  57  55     2.066681599255   112.42526757   295.47845118
 H     61  57  55     2.070270376014   110.39121398   175.27982985
 H     61  57  55     2.074563322751   110.41066320    56.27361234
 H     50  44  40     2.065378486739   111.90946890    67.40265755
 H     50  44  40     2.073017370104   110.75599061   306.68992508
 H     50  44  40     2.070021699144   110.14530560   187.35818879

---------------------
BASIS SET INFORMATION
---------------------
There are 3 groups of distinct atoms

 Group   1 Type C   : 7s4p contracted to 4s3p pattern {4111/211}
 Group   2 Type H   : 5s contracted to 3s pattern {311}
 Group   3 Type O   : 7s4p contracted to 4s3p pattern {4111/211}

Atom   0C    basis set group =>   1
Atom   1C    basis set group =>   1
Atom   2C    basis set group =>   1
Atom   3H    basis set group =>   2
Atom   4H    basis set group =>   2
Atom   5C    basis set group =>   1
Atom   6C    basis set group =>   1
Atom   7C    basis set group =>   1
Atom   8H    basis set group =>   2
Atom   9H    basis set group =>   2
Atom  10H    basis set group =>   2
Atom  11H    basis set group =>   2
Atom  12O    basis set group =>   3
Atom  13H    basis set group =>   2
Atom  14C    basis set group =>   1
Atom  15C    basis set group =>   1
Atom  16H    basis set group =>   2
Atom  17H    basis set group =>   2
Atom  18C    basis set group =>   1
Atom  19H    basis set group =>   2
Atom  20C    basis set group =>   1
Atom  21H    basis set group =>   2
Atom  22C    basis set group =>   1
Atom  23C    basis set group =>   1
Atom  24H    basis set group =>   2
Atom  25H    basis set group =>   2
Atom  26C    basis set group =>   1
Atom  27H    basis set group =>   2
Atom  28H    basis set group =>   2
Atom  29C    basis set group =>   1
Atom  30H    basis set group =>   2
Atom  31H    basis set group =>   2
Atom  32C    basis set group =>   1
Atom  33H    basis set group =>   2
Atom  34C    basis set group =>   1
Atom  35H    basis set group =>   2
Atom  36C    basis set group =>   1
Atom  37H    basis set group =>   2
Atom  38H    basis set group =>   2
Atom  39C    basis set group =>   1
Atom  40H    basis set group =>   2
Atom  41H    basis set group =>   2
Atom  42H    basis set group =>   2
Atom  43C    basis set group =>   1
Atom  44C    basis set group =>   1
Atom  45H    basis set group =>   2
Atom  46H    basis set group =>   2
Atom  47H    basis set group =>   2
Atom  48H    basis set group =>   2
Atom  49C    basis set group =>   1
Atom  50C    basis set group =>   1
Atom  51C    basis set group =>   1
Atom  52H    basis set group =>   2
Atom  53H    basis set group =>   2
Atom  54C    basis set group =>   1
Atom  55C    basis set group =>   1
Atom  56C    basis set group =>   1
Atom  57H    basis set group =>   2
Atom  58H    basis set group =>   2
Atom  59C    basis set group =>   1
Atom  60C    basis set group =>   1
Atom  61H    basis set group =>   2
Atom  62H    basis set group =>   2
Atom  63H    basis set group =>   2
Atom  64H    basis set group =>   2
Atom  65H    basis set group =>   2
Atom  66H    basis set group =>   2
Atom  67H    basis set group =>   2
Atom  68H    basis set group =>   2
Atom  69H    basis set group =>   2
Atom  70H    basis set group =>   2
Atom  71H    basis set group =>   2
Atom  72H    basis set group =>   2

-------------------------
BASIS SET IN INPUT FORMAT
-------------------------

 # Basis set for element : H 
 NewGTO H 
 S 3 
   1    1357.7500000000      0.0012928364
   2      54.3100000000      0.0588280685
   3       4.3448000000      0.9761499708
 S 1 
   1       0.6604910000      1.0000000000
 S 1 
   1       0.1366870000      1.0000000000
  end;

 # Basis set for element : C 
 NewGTO C 
 S 4 
   1  139534.0000000000      0.0001655246
   2    5581.3600000000      0.0074486101
   3     446.5090000000      0.1285821065
   4      67.4620000000      0.9218029311
 S 1 
   1      15.0674000000      1.0000000000
 S 1 
   1       3.9387600000      1.0000000000
 S 1 
   1       0.2999150000      1.0000000000
 P 2 
   1      28.3900000000      0.0816325586
   2       4.3676900000      0.9660360576
 P 1 
   1       0.8698170000      1.0000000000
 P 1 
   1       0.1889340000      1.0000000000
  end;

 # Basis set for element : O 
 NewGTO O 
 S 4 
   1  253789.0000000000      0.0001641076
   2   10151.6000000000      0.0074010921
   3     812.1250000000      0.1277711901
   4     122.6930000000      0.9223372164
 S 1 
   1      27.5608000000      1.0000000000
 S 1 
   1       7.3172600000      1.0000000000
 S 1 
   1       0.5792400000      1.0000000000
 P 2 
   1      53.4157000000      0.0793786106
   2       8.2177900000      0.9670506337
 P 1 
   1       1.6754400000      1.0000000000
 P 1 
   1       0.3506720000      1.0000000000
  end;

---------------------------------
AUXILIARY/J BASIS SET INFORMATION
---------------------------------
There are 3 groups of distinct atoms

 Group   1 Type C   : 12s5p4d2f1g contracted to 6s4p3d1f1g pattern {711111/2111/211/2/1}
 Group   2 Type H   : 5s2p1d contracted to 3s1p1d pattern {311/2/1}
 Group   3 Type O   : 12s5p4d2f1g contracted to 6s4p3d1f1g pattern {711111/2111/211/2/1}

Atom   0C    basis set group =>   1
Atom   1C    basis set group =>   1
Atom   2C    basis set group =>   1
Atom   3H    basis set group =>   2
Atom   4H    basis set group =>   2
Atom   5C    basis set group =>   1
Atom   6C    basis set group =>   1
Atom   7C    basis set group =>   1
Atom   8H    basis set group =>   2
Atom   9H    basis set group =>   2
Atom  10H    basis set group =>   2
Atom  11H    basis set group =>   2
Atom  12O    basis set group =>   3
Atom  13H    basis set group =>   2
Atom  14C    basis set group =>   1
Atom  15C    basis set group =>   1
Atom  16H    basis set group =>   2
Atom  17H    basis set group =>   2
Atom  18C    basis set group =>   1
Atom  19H    basis set group =>   2
Atom  20C    basis set group =>   1
Atom  21H    basis set group =>   2
Atom  22C    basis set group =>   1
Atom  23C    basis set group =>   1
Atom  24H    basis set group =>   2
Atom  25H    basis set group =>   2
Atom  26C    basis set group =>   1
Atom  27H    basis set group =>   2
Atom  28H    basis set group =>   2
Atom  29C    basis set group =>   1
Atom  30H    basis set group =>   2
Atom  31H    basis set group =>   2
Atom  32C    basis set group =>   1
Atom  33H    basis set group =>   2
Atom  34C    basis set group =>   1
Atom  35H    basis set group =>   2
Atom  36C    basis set group =>   1
Atom  37H    basis set group =>   2
Atom  38H    basis set group =>   2
Atom  39C    basis set group =>   1
Atom  40H    basis set group =>   2
Atom  41H    basis set group =>   2
Atom  42H    basis set group =>   2
Atom  43C    basis set group =>   1
Atom  44C    basis set group =>   1
Atom  45H    basis set group =>   2
Atom  46H    basis set group =>   2
Atom  47H    basis set group =>   2
Atom  48H    basis set group =>   2
Atom  49C    basis set group =>   1
Atom  50C    basis set group =>   1
Atom  51C    basis set group =>   1
Atom  52H    basis set group =>   2
Atom  53H    basis set group =>   2
Atom  54C    basis set group =>   1
Atom  55C    basis set group =>   1
Atom  56C    basis set group =>   1
Atom  57H    basis set group =>   2
Atom  58H    basis set group =>   2
Atom  59C    basis set group =>   1
Atom  60C    basis set group =>   1
Atom  61H    basis set group =>   2
Atom  62H    basis set group =>   2
Atom  63H    basis set group =>   2
Atom  64H    basis set group =>   2
Atom  65H    basis set group =>   2
Atom  66H    basis set group =>   2
Atom  67H    basis set group =>   2
Atom  68H    basis set group =>   2
Atom  69H    basis set group =>   2
Atom  70H    basis set group =>   2
Atom  71H    basis set group =>   2
Atom  72H    basis set group =>   2

-------------------------------------
AUXILIARY/J BASIS SET IN INPUT FORMAT
-------------------------------------

 # Auxiliary/J basis set for element : H 
 NewAuxJGTO H 
 S 3 
   1      15.6752927000      0.1007184237
   2       3.6063578000      0.3404257499
   3       1.2080016000      0.6491996172
 S 1 
   1       0.4726794000      1.0000000000
 S 1 
   1       0.2018100000      1.0000000000
 P 2 
   1       2.0281365000      0.5596620919
   2       0.5358730000      0.5596620919
 D 1 
   1       2.2165124000      1.0000000000
  end;

 # Auxiliary/J basis set for element : C 
 NewAuxJGTO C 
 S 7 
   1    1861.0916331000      0.0134602335
   2     642.9939764000      0.0299160374
   3     235.1105725000      0.1008649584
   4      90.7028894000      0.2370970548
   5      36.7794552000      0.3924037254
   6      15.6046273000      0.3195862154
   7       6.8907294000      0.0530104441
 S 1 
   1       3.1478850000     -1.0000000000
 S 1 
   1       1.4777287000      1.0000000000
 S 1 
   1       0.7076466000      1.0000000000
 S 1 
   1       0.3430122000      1.0000000000
 S 1 
   1       0.1669453000      1.0000000000
 P 2 
   1      13.5472892000     -0.6769313712
   2       5.4669419000     -0.3779500978
 P 1 
   1       2.1751721000      1.0000000000
 P 1 
   1       0.8582194000      1.0000000000
 P 1 
   1       0.3376720000      1.0000000000
 D 2 
   1       5.9287253000     -0.3533329857
   2       1.9809209000     -0.7456525731
 D 1 
   1       0.8055417000     -1.0000000000
 D 1 
   1       0.3531244000     -1.0000000000
 F 2 
   1       1.6755626000      0.6311076882
   2       0.5997536000      0.4968166032
 G 1 
   1       1.0024600000     -1.0000000000
  end;

 # Auxiliary/J basis set for element : O 
 NewAuxJGTO O 
 S 7 
   1    2876.8216605000      0.0168151159
   2    1004.7443032000      0.0340137548
   3     369.7579954000      0.1194951309
   4     142.9442404000      0.2664627624
   5      57.8366425000      0.4202764046
   6      24.3864983000      0.2765077335
   7      10.6622662000      0.0057008815
 S 1 
   1       4.8070437000     -1.0000000000
 S 1 
   1       2.2210770000      1.0000000000
 S 1 
   1       1.0447795000      1.0000000000
 S 1 
   1       0.4968425000      1.0000000000
 S 1 
   1       0.2371384000      1.0000000000
 P 2 
   1      64.2613382000     -0.2731534179
   2      16.3006076000     -0.8168011598
 P 1 
   1       4.3550542000      1.0000000000
 P 1 
   1       1.2019554000      1.0000000000
 P 1 
   1       0.3354196000      1.0000000000
 D 2 
   1       9.2146611000     -0.4661230638
   2       2.8435251000     -0.6600908911
 D 1 
   1       0.9955759000     -1.0000000000
 D 1 
   1       0.3649441000     -1.0000000000
 F 2 
   1       2.6420115000      0.5931563945
   2       0.7345613000      0.5931563945
 G 1 
   1       1.3931000000     -1.0000000000
  end;



           ************************************************************
           *        Program running with 4 parallel MPI-processes     *
           *              working on a common directory               *
           ************************************************************
------------------------------------------------------------------------------
                           ORCA GTO INTEGRAL CALCULATION
                           -- RI-GTO INTEGRALS CHOSEN --
------------------------------------------------------------------------------
------------------------------------------------------------------------------
                   ___                                                        
                  /   \      - P O W E R E D   B Y -                         
                 /     \                                                     
                 |  |  |   _    _      __       _____    __    __             
                 |  |  |  | |  | |    /  \     |  _  \  |  |  /  |          
                  \  \/   | |  | |   /    \    | | | |  |  | /  /          
                 / \  \   | |__| |  /  /\  \   | |_| |  |  |/  /          
                |  |  |   |  __  | /  /__\  \  |    /   |      \           
                |  |  |   | |  | | |   __   |  |    \   |  |\   \          
                \     /   | |  | | |  |  |  |  | |\  \  |  | \   \       
                 \___/    |_|  |_| |__|  |__|  |_| \__\ |__|  \__/        
                                                                              
                      - O R C A' S   B I G   F R I E N D -                    
                                      &                                       
                       - I N T E G R A L  F E E D E R -                       
                                                                              
 v1 FN, 2020, v2 2021                                                         
------------------------------------------------------------------------------


Reading SHARK input file inpJ.SHARKINP.tmp ... ok
----------------------
SHARK INTEGRAL PACKAGE
----------------------

Number of atoms                             ...     73
Number of basis functions                   ...    509
Number of shells                            ...    335
Maximum angular momentum                    ...      1
Integral batch strategy                     ... SHARK/LIBINT Hybrid
RI-J (if used) integral strategy            ... SPLIT-RIJ (Revised 2003 algorithm where possible)
Printlevel                                  ...      1
Contraction scheme used                     ... SEGMENTED contraction
Coulomb Range Separation                    ... NOT USED
Exchange Range Separation                   ... NOT USED
Finite Nucleus Model                        ... NOT USED
Auxiliary Coulomb fitting basis             ... AVAILABLE
   # of basis functions in Aux-J            ...   1905
   # of shells in Aux-J                     ...    655
   Maximum angular momentum in Aux-J        ...      4
Auxiliary J/K fitting basis                 ... NOT available
Auxiliary Correlation fitting basis         ... NOT available
Auxiliary 'external' fitting basis          ... NOT available
Integral threshold                          ...     3.000000e-11
Primitive cut-off                           ...     1.000000e-12
Primitive pair pre-selection threshold      ...     1.000000e-12

Calculating pre-screening integrals         ... done (  0.0 sec) Dimension = 335
Organizing shell pair data                  ... done (  0.1 sec)
Shell pair information
Total number of shell pairs                 ...     56280
Shell pairs after pre-screening             ...     21657
Total number of primitive shell pairs       ...    145865
Primitive shell pairs kept                  ...     37256
          la=0 lb=0:  10887 shell pairs
          la=1 lb=0:   8922 shell pairs
          la=1 lb=1:   1848 shell pairs

Calculating one electron integrals          ... done (  0.0 sec)
Calculating RI/J V-Matrix + Cholesky decomp.... done (  0.2 sec)
Calculating Nuclear repulsion               ... done (  0.0 sec) ENN=   2772.582069227696 Eh

SHARK setup successfully completed in   0.4 seconds

Maximum memory used throughout the entire GTOINT-calculation: 46.2 MB


           ************************************************************
           *        Program running with 4 parallel MPI-processes     *
           *              working on a common directory               *
           ************************************************************
-------------------------------------------------------------------------------
                                 ORCA SCF
-------------------------------------------------------------------------------

------------
SCF SETTINGS
------------
Hamiltonian:
 Density Functional     Method          .... DFT(GTOs)
 Exchange Functional    Exchange        .... PBE
   PBE kappa parameter   XKappa         ....  0.804000
   PBE mue parameter    XMuePBE         ....  0.219520
 Correlation Functional Correlation     .... PBE
   PBE beta parameter  CBetaPBE         ....  0.066725
 LDA part of GGA corr.  LDAOpt          .... PW91-LDA
 Gradients option       PostSCFGGA      .... off
 Hybrid DFT is turned on
   Fraction HF Exchange ScalHFX         ....  0.250000
   Scaling of DF-GGA-X  ScalDFX         ....  0.750000
   Scaling of DF-GGA-C  ScalDFC         ....  1.000000
   Scaling of DF-LDA-C  ScalLDAC        ....  1.000000
   Perturbative correction              ....  0.000000
   Density functional embedding theory  .... OFF
   NL short-range parameter             ....  6.900000
 RI-approximation to the Coulomb term is turned on
   Number of AuxJ basis functions       .... 1905
   RIJ-COSX (HFX calculated with COS-X)).... on


General Settings:
 Integral files         IntName         .... inpJ
 Hartree-Fock type      HFTyp           .... RHF
 Total Charge           Charge          ....    0
 Multiplicity           Mult            ....    1
 Number of Electrons    NEL             ....  220
 Basis Dimension        Dim             ....  509
 Nuclear Repulsion      ENuc            ....   2772.5820692277 Eh

Convergence Acceleration:
 DIIS                   CNVDIIS         .... on
   Start iteration      DIISMaxIt       ....    12
   Startup error        DIISStart       ....  0.200000
   # of expansion vecs  DIISMaxEq       ....     5
   Bias factor          DIISBfac        ....   1.050
   Max. coefficient     DIISMaxC        ....  10.000
 Trust-Rad. Augm. Hess. CNVTRAH         .... auto
   Auto Start mean grad. ratio tolernc. ....  1.125000
   Auto Start start iteration           ....    20
   Auto Start num. interpolation iter.  ....    10
   Max. Number of Micro iterations      ....    16
   Max. Number of Macro iterations      .... Maxiter - #DIIS iter
   Number of Davidson start vectors     ....     2
   Converg. threshold I  (grad. norm)   ....   1.000e-04
   Converg. threshold II (energy diff.) ....   1.000e-07
   Grad. Scal. Fac. for Micro threshold ....   0.100
   Minimum threshold for Micro iter.    ....   0.010
   NR start threshold (gradient norm)   ....   0.001
   Initial trust radius                 ....   0.400
   Minimum AH scaling param. (alpha)    ....   1.000
   Maximum AH scaling param. (alpha)    .... 1000.000
   Orbital update algorithm             .... Taylor
   White noise on init. David. guess    .... on
   Maximum white noise                  ....   0.010
   Quad. conv. algorithm                .... NR
 SOSCF                  CNVSOSCF        .... off
 Level Shifting         CNVShift        .... on
   Level shift para.    LevelShift      ....    0.2500
   Turn off err/grad.   ShiftErr        ....    0.0010
 Zerner damping         CNVZerner       .... off
 Static damping         CNVDamp         .... on
   Fraction old density DampFac         ....    0.7000
   Max. Damping (<1)    DampMax         ....    0.9800
   Min. Damping (>=0)   DampMin         ....    0.0000
   Turn off err/grad.   DampErr         ....    0.1000
 Fernandez-Rico         CNVRico         .... off

SCF Procedure:
 Maximum # iterations   MaxIter         ....   125
 SCF integral mode      SCFMode         .... Direct
   Integral package                     .... SHARK and LIBINT hybrid scheme
 Reset frequency        DirectResetFreq ....    20
 Integral Threshold     Thresh          ....  3.000e-11 Eh
 Primitive CutOff       TCut            ....  1.000e-12 Eh

Convergence Tolerance:
 Convergence Check Mode ConvCheckMode   .... Total+1el-Energy
 Convergence forced     ConvForced      .... 0
 Energy Change          TolE            ....  1.000e-07 Eh
 1-El. energy change                    ....  1.000e-04 Eh
 DIIS Error             TolErr          ....  1.000e-07


Diagonalization of the overlap matrix:
Smallest eigenvalue                        ... 7.566e-03
Time for diagonalization                   ...    0.029 sec
Threshold for overlap eigenvalues          ... 1.000e-08
Number of eigenvalues below threshold      ... 0
Time for construction of square roots      ...    0.021 sec
Total time needed                          ...    0.051 sec

Time for model grid setup =    0.790 sec

------------------------------
INITIAL GUESS: MODEL POTENTIAL
------------------------------
Loading Hartree-Fock densities                     ... done
Calculating cut-offs                               ... done
Initializing the effective Hamiltonian             ... done
Setting up the integral package (SHARK)            ... done
Starting the Coulomb interaction                   ... done (   0.3 sec)
Reading the grid                                   ... done
Mapping shells                                     ... done
Starting the XC term evaluation                    ... done (   0.1 sec)
  promolecular density results
     # of electrons  =    219.984545133
     EX              =   -164.428810824
     EC              =     -7.323393614
     EX+EC           =   -171.752204438
Transforming the Hamiltonian                       ... done (   0.0 sec)
Diagonalizing the Hamiltonian                      ... done (   0.0 sec)
Back transforming the eigenvectors                 ... done (   0.0 sec)
Now organizing SCF variables                       ... done
                      ------------------
                      INITIAL GUESS DONE (   1.3 sec)
                      ------------------
-------------------
DFT GRID GENERATION
-------------------

General Integration Accuracy     IntAcc      ... 4.388
Radial Grid Type                 RadialGrid  ... OptM3 with GC (2021)
Angular Grid (max. ang.)         AngularGrid ... 4 (Lebedev-302)
Angular grid pruning method      GridPruning ... 4 (adaptive)
Weight generation scheme         WeightScheme... Becke
Basis function cutoff            BFCut       ... 1.0000e-11
Integration weight cutoff        WCut        ... 1.0000e-14
Angular grids for H and He will be reduced by one unit
Partially contracted basis set               ... off
Rotationally invariant grid construction     ... off

Total number of grid points                  ...   310038
Total number of batches                      ...     4882
Average number of points per batch           ...       63
Average number of grid points per atom       ...     4247
Time for grid setup =    2.855 sec

--------------------
COSX GRID GENERATION
--------------------

GRIDX 1
-------
General Integration Accuracy     IntAcc      ... 3.816
Radial Grid Type                 RadialGrid  ... OptM3 with GC (2021)
Angular Grid (max. ang.)         AngularGrid ... 1 (Lebedev-50)
Angular grid pruning method      GridPruning ... 4 (adaptive)
Weight generation scheme         WeightScheme... Becke
Basis function cutoff            BFCut       ... 1.0000e-11
Integration weight cutoff        WCut        ... 1.0000e-14
Angular grids for H and He will be reduced by one unit
Partially contracted basis set               ... on
Rotationally invariant grid construction     ... off

Total number of grid points                  ...    39409
Total number of batches                      ...      656
Average number of points per batch           ...       60
Average number of grid points per atom       ...      540
UseSFitting                                  ... on

GRIDX 2
-------
General Integration Accuracy     IntAcc      ... 4.020
Radial Grid Type                 RadialGrid  ... OptM3 with GC (2021)
Angular Grid (max. ang.)         AngularGrid ... 2 (Lebedev-110)
Angular grid pruning method      GridPruning ... 4 (adaptive)
Weight generation scheme         WeightScheme... Becke
Basis function cutoff            BFCut       ... 1.0000e-11
Integration weight cutoff        WCut        ... 1.0000e-14
Angular grids for H and He will be reduced by one unit
Partially contracted basis set               ... on
Rotationally invariant grid construction     ... off

Total number of grid points                  ...    81448
Total number of batches                      ...     1311
Average number of points per batch           ...       62
Average number of grid points per atom       ...     1116
UseSFitting                                  ... on

GRIDX 3
-------
General Integration Accuracy     IntAcc      ... 4.338
Radial Grid Type                 RadialGrid  ... OptM3 with GC (2021)
Angular Grid (max. ang.)         AngularGrid ... 3 (Lebedev-194)
Angular grid pruning method      GridPruning ... 4 (adaptive)
Weight generation scheme         WeightScheme... Becke
Basis function cutoff            BFCut       ... 1.0000e-11
Integration weight cutoff        WCut        ... 1.0000e-14
Angular grids for H and He will be reduced by one unit
Partially contracted basis set               ... on
Rotationally invariant grid construction     ... off

Total number of grid points                  ...   176405
Total number of batches                      ...     2794
Average number of points per batch           ...       63
Average number of grid points per atom       ...     2417
UseSFitting                                  ... on

Time for X-Grid setup             =    2.825 sec


--------------------
CPCM SOLVATION MODEL
--------------------
CPCM parameters:
  Epsilon                                         ...       4.9000
  Refrac                                          ...       1.4500
  Rsolv                                           ...       1.3000
  Surface type                                    ... GAUSSIAN VDW
  Epsilon function type                           ...         CPCM
Radii:
 Radius for C  used is    3.8550 Bohr (=   2.0400 Ang.)
 Radius for H  used is    2.4944 Bohr (=   1.3200 Ang.)
 Radius for O  used is    3.4469 Bohr (=   1.8240 Ang.)
Calculating surface                               ...        done! (  0.0s)
GEPOL surface points                              ...         3661
GEPOL Volume                                      ...    3601.3141
GEPOL Surface-area                                ...    1796.9940
Calculating surface distance matrix               ...        done! (  0.2s)
Performing Cholesky decomposition & store         ...        done! (  0.7s)
Overall time for CPCM initialization              ...                 0.9s
--------------
SCF ITERATIONS
--------------
ITER       Energy         Delta-E        Max-DP      RMS-DP      [F,P]     Damp
               ***  Starting incremental Fock matrix formation  ***

  HOMO= 109 E= -3.977 eV LUMO=  7.703 eV gap=  11.680 eV
  0  -1165.0122446738   0.000000000000 0.09768676  0.00106062  0.1966962 0.7000

  HOMO= 109 E= -4.843 eV LUMO=  7.019 eV gap=  11.862 eV
  1  -1165.2309710132  -0.218726339375 0.06550428  0.00078156  0.0952490 0.7000
                               ***Turning on DIIS***

  HOMO= 109 E= -5.442 eV LUMO=  6.471 eV gap=  11.913 eV
  2  -1165.3319593864  -0.100988373234 0.10326443  0.00138582  0.0375615 0.0000

  HOMO= 109 E= -6.000 eV LUMO=  5.941 eV gap=  11.941 eV
  3  -1165.4765045901  -0.144545203669 0.05169328  0.00057017  0.0461865 0.0000

  HOMO= 109 E= -6.067 eV LUMO=  5.872 eV gap=  11.940 eV
  4  -1165.5119652150  -0.035460624938 0.01151793  0.00013520  0.0058278 0.0000

  HOMO= 109 E= -6.018 eV LUMO=  5.929 eV gap=  11.947 eV
  5  -1165.5128336028  -0.000868387755 0.00250722  0.00003805  0.0052211 0.0000

  HOMO= 109 E= -6.005 eV LUMO=  5.943 eV gap=  11.947 eV
  6  -1165.5129149496  -0.000081346776 0.00115027  0.00001172  0.0010469 0.0000

  HOMO= 109 E= -6.006 eV LUMO= -0.861 eV gap=   5.145 eV
  7  -1165.5129202131  -0.000005263487 0.00051728  0.00000602  0.0002401 0.0000
               *** Restarting incremental Fock matrix formation ***
                                   *** Resetting DIIS ***

  HOMO= 109 E= -6.006 eV LUMO= -0.860 eV gap=   5.145 eV
  8  -1165.5129597217  -0.000039508626 0.00033756  0.00000280  0.0001187 0.0000

  HOMO= 109 E= -6.006 eV LUMO= -0.860 eV gap=   5.146 eV
  9  -1165.5129597617  -0.000000039983 0.00014000  0.00000127  0.0001616 0.0000

  HOMO= 109 E= -6.006 eV LUMO= -0.860 eV gap=   5.146 eV
 10  -1165.5129598922  -0.000000130536 0.00006268  0.00000039  0.0000311 0.0000

  HOMO= 109 E= -6.006 eV LUMO= -0.860 eV gap=   5.146 eV
 11  -1165.5129599193  -0.000000027125 0.00002471  0.00000017  0.0000180 0.0000

  HOMO= 109 E= -6.006 eV LUMO= -0.860 eV gap=   5.146 eV
 12  -1165.5129599020   0.000000017331 0.00000726  0.00000005  0.0000035 0.0000
                 **** Energy Check signals convergence ****

               *****************************************************
               *                     SUCCESS                       *
               *           SCF CONVERGED AFTER  13 CYCLES          *
               *****************************************************

Old exchange energy                            =    -42.067053145 Eh
New exchange energy                            =    -42.067056132 Eh
Exchange energy change after final integration =     -0.000002987 Eh
Total energy after final integration           =  -1165.512962886 Eh
Final COS-X integration done in                =    13.441 sec

----------------
TOTAL SCF ENERGY
----------------

Total Energy       :        -1165.51296289 Eh          -31715.22009 eV

Components:
Nuclear Repulsion  :         2772.58206923 Eh           75445.79369 eV
Electronic Energy  :        -3938.09503211 Eh         -107161.01378 eV
One Electron Energy:        -7086.91227173 Eh         -192844.68695 eV
Two Electron Energy:         3148.81723962 Eh           85683.67316 eV
Max COSX asymmetry :            0.00000237 Eh               0.00006 eV
CPCM Dielectric    :           -0.01336843 Eh              -0.36377 eV

Virial components:
Potential Energy   :        -2322.40875389 Eh          -63195.95501 eV
Kinetic Energy     :         1156.89579101 Eh           31480.73492 eV
Virial Ratio       :            2.00744853


DFT components:
N(Alpha)           :      110.000001161223 electrons
N(Beta)            :      110.000001161223 electrons
N(Total)           :      220.000002322446 electrons
E(X)               :     -125.743743154245 Eh       
E(C)               :       -7.326445438936 Eh       
E(XC)              :     -133.070188593181 Eh       
DFET-embed. en.    :        0.000000000000 Eh       
CPCM Solvation Model Properties:
Surface-charge          :           -0.03481013
Charge-correction       :           -0.00008290 Eh              -0.00226 eV
Free-energy (cav+disp)  :  This term is not implemented in the current solvation scheme

---------------
SCF CONVERGENCE
---------------

  Last Energy change         ...    3.7849e-09  Tolerance :   1.0000e-07
  Last MAX-Density change    ...    0.0000e+00  Tolerance :   1.0000e-05
  Last RMS-Density change    ...    0.0000e+00  Tolerance :   1.0000e-06
  Last DIIS Error            ...    2.2008e-06  Tolerance :   1.0000e-07

             **** THE GBW FILE WAS UPDATED (inpJ.gbw) ****
             **** DENSITY inpJ.scfp WAS UPDATED ****
             **** ENERGY FILE WAS UPDATED (inpJ.en.tmp) ****
             **** THE GBW FILE WAS UPDATED (inpJ.gbw) ****
             **** DENSITY inpJ.scfp WAS UPDATED ****
----------------
ORBITAL ENERGIES
----------------

  NO   OCC          E(Eh)            E(eV) 
   0   2.0000     -19.212423      -522.7966 
   1   2.0000     -10.300416      -280.2886 
   2   2.0000     -10.270356      -279.4706 
   3   2.0000     -10.268212      -279.4123 
   4   2.0000     -10.263618      -279.2872 
   5   2.0000     -10.257391      -279.1178 
   6   2.0000     -10.257005      -279.1073 
   7   2.0000     -10.250298      -278.9248 
   8   2.0000     -10.249990      -278.9164 
   9   2.0000     -10.248752      -278.8827 
  10   2.0000     -10.248052      -278.8637 
  11   2.0000     -10.247597      -278.8513 
  12   2.0000     -10.246194      -278.8131 
  13   2.0000     -10.245205      -278.7862 
  14   2.0000     -10.244574      -278.7690 
  15   2.0000     -10.244498      -278.7670 
  16   2.0000     -10.243984      -278.7530 
  17   2.0000     -10.242877      -278.7228 
  18   2.0000     -10.241726      -278.6915 
  19   2.0000     -10.241350      -278.6813 
  20   2.0000     -10.240194      -278.6499 
  21   2.0000     -10.234496      -278.4948 
  22   2.0000     -10.234255      -278.4882 
  23   2.0000     -10.232982      -278.4536 
  24   2.0000     -10.226672      -278.2819 
  25   2.0000     -10.226272      -278.2710 
  26   2.0000     -10.224567      -278.2246 
  27   2.0000     -10.222191      -278.1599 
  28   2.0000     -10.220833      -278.1230 
  29   2.0000      -1.043200       -28.3869 
  30   2.0000      -0.901485       -24.5306 
  31   2.0000      -0.882089       -24.0029 
  32   2.0000      -0.860528       -23.4162 
  33   2.0000      -0.846508       -23.0347 
  34   2.0000      -0.822845       -22.3908 
  35   2.0000      -0.814329       -22.1590 
  36   2.0000      -0.795931       -21.6584 
  37   2.0000      -0.795042       -21.6342 
  38   2.0000      -0.777843       -21.1662 
  39   2.0000      -0.758352       -20.6358 
  40   2.0000      -0.741849       -20.1867 
  41   2.0000      -0.735918       -20.0253 
  42   2.0000      -0.715065       -19.4579 
  43   2.0000      -0.702862       -19.1258 
  44   2.0000      -0.701125       -19.0786 
  45   2.0000      -0.695525       -18.9262 
  46   2.0000      -0.670685       -18.2503 
  47   2.0000      -0.657438       -17.8898 
  48   2.0000      -0.629454       -17.1283 
  49   2.0000      -0.622045       -16.9267 
  50   2.0000      -0.612065       -16.6551 
  51   2.0000      -0.604487       -16.4489 
  52   2.0000      -0.596484       -16.2312 
  53   2.0000      -0.575873       -15.6703 
  54   2.0000      -0.572592       -15.5810 
  55   2.0000      -0.554091       -15.0776 
  56   2.0000      -0.540340       -14.7034 
  57   2.0000      -0.529393       -14.4055 
  58   2.0000      -0.515307       -14.0222 
  59   2.0000      -0.510431       -13.8895 
  60   2.0000      -0.498313       -13.5598 
  61   2.0000      -0.489957       -13.3324 
  62   2.0000      -0.481520       -13.1028 
  63   2.0000      -0.479728       -13.0541 
  64   2.0000      -0.473886       -12.8951 
  65   2.0000      -0.465858       -12.6766 
  66   2.0000      -0.463516       -12.6129 
  67   2.0000      -0.461039       -12.5455 
  68   2.0000      -0.459177       -12.4948 
  69   2.0000      -0.451469       -12.2851 
  70   2.0000      -0.448540       -12.2054 
  71   2.0000      -0.442206       -12.0330 
  72   2.0000      -0.435334       -11.8460 
  73   2.0000      -0.433006       -11.7827 
  74   2.0000      -0.428216       -11.6524 
  75   2.0000      -0.424575       -11.5533 
  76   2.0000      -0.421671       -11.4743 
  77   2.0000      -0.413310       -11.2467 
  78   2.0000      -0.411522       -11.1981 
  79   2.0000      -0.401760       -10.9324 
  80   2.0000      -0.400201       -10.8900 
  81   2.0000      -0.396303       -10.7840 
  82   2.0000      -0.395911       -10.7733 
  83   2.0000      -0.390957       -10.6385 
  84   2.0000      -0.389404       -10.5962 
  85   2.0000      -0.380901       -10.3649 
  86   2.0000      -0.375422       -10.2158 
  87   2.0000      -0.373837       -10.1726 
  88   2.0000      -0.369032       -10.0419 
  89   2.0000      -0.363217        -9.8836 
  90   2.0000      -0.360671        -9.8144 
  91   2.0000      -0.356440        -9.6992 
  92   2.0000      -0.350469        -9.5368 
  93   2.0000      -0.345470        -9.4007 
  94   2.0000      -0.342314        -9.3148 
  95   2.0000      -0.340945        -9.2776 
  96   2.0000      -0.339240        -9.2312 
  97   2.0000      -0.333937        -9.0869 
  98   2.0000      -0.331899        -9.0314 
  99   2.0000      -0.330120        -8.9830 
 100   2.0000      -0.326816        -8.8931 
 101   2.0000      -0.324710        -8.8358 
 102   2.0000      -0.319193        -8.6857 
 103   2.0000      -0.317078        -8.6281 
 104   2.0000      -0.310747        -8.4559 
 105   2.0000      -0.300511        -8.1773 
 106   2.0000      -0.276617        -7.5271 
 107   2.0000      -0.275110        -7.4861 
 108   2.0000      -0.257590        -7.0094 
 109   2.0000      -0.220713        -6.0059 
 110   0.0000      -0.031613        -0.8602 
 111   0.0000       0.019436         0.5289 
 112   0.0000       0.027905         0.7593 
 113   0.0000       0.080139         2.1807 
 114   0.0000       0.087085         2.3697 
 115   0.0000       0.100248         2.7279 
 116   0.0000       0.103490         2.8161 
 117   0.0000       0.106376         2.8946 
 118   0.0000       0.110254         3.0002 
 119   0.0000       0.115957         3.1553 
 120   0.0000       0.116742         3.1767 
 121   0.0000       0.119070         3.2401 
 122   0.0000       0.126689         3.4474 
 123   0.0000       0.128066         3.4849 
 124   0.0000       0.128880         3.5070 
 125   0.0000       0.136475         3.7137 
 126   0.0000       0.138332         3.7642 
 127   0.0000       0.141287         3.8446 
 128   0.0000       0.143354         3.9009 
 129   0.0000       0.152096         4.1388 
 130   0.0000       0.155034         4.2187 
 131   0.0000       0.159106         4.3295 
 132   0.0000       0.163401         4.4464 
 133   0.0000       0.165142         4.4938 
 134   0.0000       0.168385         4.5820 
 135   0.0000       0.170827         4.6484 
 136   0.0000       0.174487         4.7480 
 137   0.0000       0.177283         4.8241 
 138   0.0000       0.177809         4.8384 
 139   0.0000       0.180655         4.9159 
 140   0.0000       0.184166         5.0114 
 141   0.0000       0.186212         5.0671 
 142   0.0000       0.188365         5.1257 
 143   0.0000       0.190234         5.1765 
 144   0.0000       0.193849         5.2749 
 145   0.0000       0.198501         5.4015 
 146   0.0000       0.199757         5.4357 
 147   0.0000       0.201713         5.4889 
 148   0.0000       0.204274         5.5586 
 149   0.0000       0.205161         5.5827 
 150   0.0000       0.208615         5.6767 
 151   0.0000       0.216380         5.8880 
 152   0.0000       0.223585         6.0840 
 153   0.0000       0.228564         6.2196 
 154   0.0000       0.230921         6.2837 
 155   0.0000       0.233899         6.3647 
 156   0.0000       0.239676         6.5219 
 157   0.0000       0.245604         6.6832 
 158   0.0000       0.247472         6.7341 
 159   0.0000       0.250848         6.8259 
 160   0.0000       0.256207         6.9718 
 161   0.0000       0.259103         7.0505 
 162   0.0000       0.260586         7.0909 
 163   0.0000       0.263820         7.1789 
 164   0.0000       0.267949         7.2913 
 165   0.0000       0.274560         7.4711 
 166   0.0000       0.276277         7.5179 
 167   0.0000       0.277720         7.5571 
 168   0.0000       0.281670         7.6646 
 169   0.0000       0.287994         7.8367 
 170   0.0000       0.294736         8.0202 
 171   0.0000       0.298985         8.1358 
 172   0.0000       0.302811         8.2399 
 173   0.0000       0.305283         8.3072 
 174   0.0000       0.309918         8.4333 
 175   0.0000       0.315005         8.5717 
 176   0.0000       0.319516         8.6945 
 177   0.0000       0.336539         9.1577 
 178   0.0000       0.348367         9.4795 
 179   0.0000       0.355873         9.6838 
 180   0.0000       0.364662         9.9230 
 181   0.0000       0.373968        10.1762 
 182   0.0000       0.379823        10.3355 
 183   0.0000       0.401093        10.9143 
 184   0.0000       0.420858        11.4521 
 185   0.0000       0.461362        12.5543 
 186   0.0000       0.471956        12.8426 
 187   0.0000       0.487078        13.2541 
 188   0.0000       0.502734        13.6801 
 189   0.0000       0.516286        14.0488 
 190   0.0000       0.518885        14.1196 
 191   0.0000       0.522556        14.2195 
 192   0.0000       0.545480        14.8433 
 193   0.0000       0.557971        15.1832 
 194   0.0000       0.563448        15.3322 
 195   0.0000       0.570915        15.5354 
 196   0.0000       0.572549        15.5799 
 197   0.0000       0.580615        15.7993 
 198   0.0000       0.585545        15.9335 
 199   0.0000       0.589252        16.0344 
 200   0.0000       0.596623        16.2349 
 201   0.0000       0.618598        16.8329 
 202   0.0000       0.624716        16.9994 
 203   0.0000       0.628917        17.1137 
 204   0.0000       0.638663        17.3789 
 205   0.0000       0.647246        17.6125 
 206   0.0000       0.648974        17.6595 
 207   0.0000       0.657574        17.8935 
 208   0.0000       0.666317        18.1314 
 209   0.0000       0.668964        18.2034 
 210   0.0000       0.674031        18.3413 
 211   0.0000       0.682256        18.5651 
 212   0.0000       0.687767        18.7151 
 213   0.0000       0.692631        18.8475 
 214   0.0000       0.698896        19.0179 
 215   0.0000       0.707596        19.2547 
 216   0.0000       0.712051        19.3759 
 217   0.0000       0.714218        19.4349 
 218   0.0000       0.721576        19.6351 
 219   0.0000       0.726093        19.7580 
 220   0.0000       0.729257        19.8441 
 221   0.0000       0.730346        19.8737 
 222   0.0000       0.733697        19.9649 
 223   0.0000       0.739013        20.1096 
 224   0.0000       0.746668        20.3179 
 225   0.0000       0.750088        20.4109 
 226   0.0000       0.753792        20.5117 
 227   0.0000       0.758434        20.6380 
 228   0.0000       0.760301        20.6888 
 229   0.0000       0.763619        20.7791 
 230   0.0000       0.769537        20.9402 
 231   0.0000       0.775748        21.1092 
 232   0.0000       0.779598        21.2139 
 233   0.0000       0.785073        21.3629 
 234   0.0000       0.789138        21.4735 
 235   0.0000       0.792500        21.5650 
 236   0.0000       0.798370        21.7248 
 237   0.0000       0.801668        21.8145 
 238   0.0000       0.811918        22.0934 
 239   0.0000       0.817453        22.2440 
 240   0.0000       0.827650        22.5215 
 241   0.0000       0.833708        22.6863 
 242   0.0000       0.841922        22.9099 
 243   0.0000       0.845341        23.0029 
 244   0.0000       0.849452        23.1148 
 245   0.0000       0.854303        23.2468 
 246   0.0000       0.856093        23.2955 
 247   0.0000       0.861586        23.4450 
 248   0.0000       0.866920        23.5901 
 249   0.0000       0.870751        23.6943 
 250   0.0000       0.872293        23.7363 
 251   0.0000       0.875819        23.8322 
 252   0.0000       0.877525        23.8787 
 253   0.0000       0.882889        24.0246 
 254   0.0000       0.883851        24.0508 
 255   0.0000       0.886996        24.1364 
 256   0.0000       0.888192        24.1689 
 257   0.0000       0.891364        24.2553 
 258   0.0000       0.894264        24.3342 
 259   0.0000       0.898357        24.4456 
 260   0.0000       0.902054        24.5461 
 261   0.0000       0.903657        24.5898 
 262   0.0000       0.909647        24.7528 
 263   0.0000       0.912339        24.8260 
 264   0.0000       0.920627        25.0515 
 265   0.0000       0.923214        25.1219 
 266   0.0000       0.924303        25.1516 
 267   0.0000       0.929880        25.3033 
 268   0.0000       0.934687        25.4341 
 269   0.0000       0.937105        25.4999 
 270   0.0000       0.940547        25.5936 
 271   0.0000       0.949065        25.8254 
 272   0.0000       0.950802        25.8726 
 273   0.0000       0.954423        25.9712 
 274   0.0000       0.955165        25.9914 
 275   0.0000       0.965827        26.2815 
 276   0.0000       0.966032        26.2871 
 277   0.0000       0.971540        26.4370 
 278   0.0000       0.976014        26.5587 
 279   0.0000       0.979319        26.6486 
 280   0.0000       0.984825        26.7984 
 281   0.0000       0.992827        27.0162 
 282   0.0000       0.997267        27.1370 
 283   0.0000       1.008391        27.4397 
 284   0.0000       1.012728        27.5577 
 285   0.0000       1.028288        27.9812 
 286   0.0000       1.032857        28.1055 
 287   0.0000       1.048663        28.5356 
 288   0.0000       1.052621        28.6433 
 289   0.0000       1.066649        29.0250 
 290   0.0000       1.071389        29.1540 
 291   0.0000       1.077536        29.3212 
 292   0.0000       1.080884        29.4124 
 293   0.0000       1.093176        29.7468 
 294   0.0000       1.105137        30.0723 
 295   0.0000       1.115781        30.3619 
 296   0.0000       1.127386        30.6777 
 297   0.0000       1.134496        30.8712 
 298   0.0000       1.140114        31.0241 
 299   0.0000       1.151375        31.3305 
 300   0.0000       1.157403        31.4945 
 301   0.0000       1.166566        31.7439 
 302   0.0000       1.190300        32.3897 
 303   0.0000       1.201167        32.6854 
 304   0.0000       1.232117        33.5276 
 305   0.0000       1.235869        33.6297 
 306   0.0000       1.244403        33.8619 
 307   0.0000       1.262613        34.3575 
 308   0.0000       1.278151        34.7803 
 309   0.0000       1.303198        35.4618 
 310   0.0000       1.331504        36.2321 
 311   0.0000       1.333965        36.2990 
 312   0.0000       1.367400        37.2088 
 313   0.0000       1.380731        37.5716 
 314   0.0000       1.410787        38.3895 
 315   0.0000       1.513035        41.1718 
 316   0.0000       1.527300        41.5599 
 317   0.0000       1.568850        42.6906 
 318   0.0000       1.591500        43.3069 
 319   0.0000       1.675066        45.5809 
 320   0.0000       6.202119       168.7682 
 321   0.0000       6.232034       169.5823 
 322   0.0000       6.264165       170.4566 
 323   0.0000       6.275422       170.7629 
 324   0.0000       6.287437       171.0899 
 325   0.0000       6.293882       171.2652 
 326   0.0000       6.301498       171.4725 
 327   0.0000       6.316471       171.8799 
 328   0.0000       6.317122       171.8976 
 329   0.0000       6.336114       172.4144 
 330   0.0000       6.345568       172.6717 
 331   0.0000       6.346797       172.7051 
 332   0.0000       6.357268       172.9901 
 333   0.0000       6.361191       173.0968 
 334   0.0000       6.384665       173.7356 
 335   0.0000       6.387800       173.8209 
 336   0.0000       6.404495       174.2752 
 337   0.0000       6.407243       174.3500 
 338   0.0000       6.416042       174.5894 
 339   0.0000       6.421209       174.7300 
 340   0.0000       6.424674       174.8243 
 341   0.0000       6.443637       175.3403 
 342   0.0000       6.454055       175.6238 
 343   0.0000       6.464653       175.9121 
 344   0.0000       6.470489       176.0709 
 345   0.0000       6.481676       176.3754 
 346   0.0000       6.485830       176.4884 
 347   0.0000       6.493255       176.6905 
 348   0.0000       6.506457       177.0497 
 349   0.0000       6.511376       177.1835 
 350   0.0000       6.526487       177.5947 
 351   0.0000       6.530035       177.6913 
 352   0.0000       6.537627       177.8979 
 353   0.0000       6.546265       178.1329 
 354   0.0000       6.547818       178.1752 
 355   0.0000       6.554878       178.3673 
 356   0.0000       6.559095       178.4820 
 357   0.0000       6.562182       178.5660 
 358   0.0000       6.569749       178.7720 
 359   0.0000       6.573518       178.8745 
 360   0.0000       6.579552       179.0387 
 361   0.0000       6.583598       179.1488 
 362   0.0000       6.586858       179.2375 
 363   0.0000       6.594378       179.4421 
 364   0.0000       6.598455       179.5531 
 365   0.0000       6.601445       179.6345 
 366   0.0000       6.609455       179.8524 
 367   0.0000       6.614113       179.9792 
 368   0.0000       6.615446       180.0154 
 369   0.0000       6.618235       180.0913 
 370   0.0000       6.624865       180.2717 
 371   0.0000       6.628004       180.3571 
 372   0.0000       6.631562       180.4540 
 373   0.0000       6.633013       180.4935 
 374   0.0000       6.635936       180.5730 
[...]
     69 H        0.000      0.000      0.000      0.000      0.000      0.000
     70 H        0.000      0.000      0.000     -0.000      0.001      0.020
     71 H        0.000      0.000      0.000      0.000      0.001      0.008
     72 H        0.000      0.000      0.000      0.000      0.002      0.034
                 25 H       27 H       28 H       30 H       31 H       33 H  
      3 H        0.073     -0.003      0.002      0.000      0.000      0.088
      4 H        2.277     -0.109      0.067      0.000      0.000      2.535
      8 H        0.118      0.000      0.000      0.000      0.000      0.109
      9 H       -0.257      0.014      0.000      0.000      0.000     -0.304
     10 H        0.000      0.000      0.000      0.000      0.000      0.000
     11 H        0.000      0.000      0.000      0.000      0.000      0.000
     13 H       -0.037      0.000      0.000      0.000      0.000      0.000
     16 H       -0.258      0.014     -0.005     -0.032     -0.002     -0.300
     17 H       -0.240      0.013      0.000      0.000      0.000     -0.297
     19 H        0.919     -0.046      0.076      0.065      0.005      0.966
     21 H       -2.810      0.189      0.669     -0.231     -0.028     -2.358
     24 H      -13.396      4.353      2.340      0.644     -0.500     -0.127
     25 H        0.000     12.961      5.228     -0.642     -0.355     -2.110
     27 H       12.961      0.000    -13.596      4.046     12.991      0.062
     28 H        5.228    -13.596      0.000      2.582      4.172      0.286
     30 H       -0.642      4.046      2.582      0.000    -13.004      0.039
     31 H       -0.355     12.991      4.172    -13.004      0.000     -0.326
     33 H       -2.110      0.062      0.286      0.039     -0.326      0.000
     35 H       -0.026      0.001     -0.001      0.000      0.000     -0.034
     37 H        0.276      0.004     -0.036      0.515     -0.036      6.457
     38 H        0.166      0.001     -0.028     -0.012      0.125     12.203
     40 H       -0.013      0.019      0.143     -0.003     -0.034     -0.248
     41 H        0.009      0.022     -0.025      0.014      0.080     -0.430
     42 H       -0.018      0.013     -0.011     -0.259     -0.376     -0.206
     45 H       -0.059     -0.122     -0.146     -0.145      1.832     -0.471
     46 H       -0.016     -0.223      0.002     -0.207     -0.476     -0.216
     47 H        0.015      0.047      0.064     -0.330      0.021      0.864
     48 H       -0.014      0.030      0.022      0.029      0.010      0.002
     52 H        0.001      0.001      0.002     -0.003      0.001      0.003
     53 H        0.000     -0.000      0.000      0.000     -0.002     -0.003
     57 H        0.000      0.000      0.000      0.000     -0.000     -0.000
     58 H        0.000      0.000      0.000      0.000      0.000      0.000
     61 H        0.000      0.000      0.000      0.000      0.000     -0.000
     62 H        0.000      0.000      0.000      0.000      0.000      0.000
     63 H        0.000      0.000      0.000      0.000      0.000     -0.000
     64 H        0.000      0.000      0.000      0.000      0.000      0.000
     65 H        0.000      0.000      0.000     -0.000      0.000      0.000
     66 H        0.000      0.000      0.000      0.000      0.000      0.000
     67 H        0.000      0.000      0.000      0.000      0.000      0.000
     68 H        0.000      0.000      0.000      0.000      0.000      0.000
     69 H        0.000      0.000      0.000      0.000      0.000      0.000
     70 H        0.004     -0.010     -0.009     -0.441     -0.078      0.004
     71 H        0.000     -0.001     -0.003      0.073      0.012     -0.001
     72 H        0.000     -0.010     -0.011      0.081     -0.045      0.003
                 35 H       37 H       38 H       40 H       41 H       42 H  
      3 H       -0.268     -0.001     -0.001      0.000      0.000      0.000
      4 H       -0.646     -0.044     -0.015      0.000      0.000      0.000
      8 H       -0.031     -0.002     -0.002      0.000     -0.000      0.000
      9 H       -0.150      0.005      0.002      0.000      0.001      0.000
     10 H       -0.397     -0.000     -0.000      0.000      0.000      0.000
     11 H       -0.143     -0.002     -0.000      0.000      0.000      0.000
     13 H       12.441      0.000      0.000      0.000      0.000      0.000
     16 H       -0.003      0.004      0.003      0.001      0.001     -0.001
     17 H       -0.001      0.005      0.004     -0.000      0.001      0.000
     19 H        0.045     -0.019      0.080      0.014     -0.004      0.004
     21 H       -0.015      0.062     -0.574     -0.012      0.062     -0.024
     24 H       -0.001     -0.057     -0.081     -0.019      0.067     -0.023
     25 H       -0.026      0.276      0.166     -0.013      0.009     -0.018
     27 H        0.001      0.004      0.001      0.019      0.022      0.013
     28 H       -0.001     -0.036     -0.028      0.143     -0.025     -0.011
     30 H        0.000      0.515     -0.012     -0.003      0.014     -0.259
     31 H        0.000     -0.036      0.125     -0.034      0.080     -0.376
     33 H       -0.034      6.457     12.203     -0.248     -0.430     -0.206
     35 H        0.000      0.000     -0.000      0.000      0.000      0.000
     37 H        0.000      0.000    -12.269      9.502      2.609     -0.262
     38 H       -0.000    -12.269      0.000      6.776     11.605     -0.467
     40 H        0.000      9.502      6.776      0.000    -13.850      9.579
     41 H        0.000      2.609     11.605    -13.850      0.000      8.634
     42 H        0.000     -0.262     -0.467      9.579      8.634      0.000
     45 H       -0.000      0.064     -0.068     -0.108     -0.056     -0.080
     46 H        0.000      0.062      0.034     -0.085      0.007      1.124
     47 H        0.000     -0.170      0.009      0.051      0.044     -0.407
     48 H        0.000      0.098     -0.009     -0.205     -0.434     10.353
     52 H        0.000     -0.000      0.004      0.074     -0.020     -0.284
     53 H        0.000      0.003      0.005     -0.118      0.020      0.092
     57 H        0.000      0.000      0.001      0.005     -0.003      0.035
     58 H        0.000      0.000      0.000     -0.005      0.000      0.001
     61 H        0.000      0.000      0.001     -0.007     -0.000      0.002
     62 H        0.000     -0.001     -0.000      0.012      0.005     -0.025
     63 H        0.000      0.000     -0.000     -0.017     -0.001     -0.001
     64 H        0.000      0.000     -0.000      0.000     -0.001     -0.000
     65 H        0.000      0.000      0.000     -0.000     -0.000     -0.000
     66 H        0.000      0.000      0.000     -0.002      0.000      0.001
     67 H        0.000      0.000      0.000      0.000     -0.000     -0.000
     68 H        0.000      0.000      0.000      0.008     -0.001      0.000
     69 H        0.000      0.000      0.000      0.000      0.000      0.000
     70 H        0.000     -0.006      0.004      0.083      0.023     -0.198
     71 H        0.000     -0.020      0.036      0.028     -0.055     -0.348
     72 H        0.000      0.066      0.008     -0.023      0.008     -0.441
                 45 H       46 H       47 H       48 H       52 H       53 H  
      3 H        0.001     -0.000     -0.001      0.000      0.000      0.000
      4 H        0.026     -0.017     -0.019      0.000      0.000      0.000
      8 H        0.001     -0.001      0.000      0.000      0.000      0.000
      9 H       -0.003      0.002      0.000      0.000      0.000      0.000
     10 H        0.000     -0.000      0.000      0.000      0.000      0.000
     11 H        0.000      0.000      0.000      0.000      0.000      0.000
     13 H        0.000      0.000      0.000      0.000      0.000      0.000
     16 H       -0.003      0.000      0.002     -0.002      0.000      0.000
     17 H       -0.004     -0.000      0.001     -0.002      0.000      0.000
     19 H        0.010     -0.010     -0.008      0.005      0.000      0.000
     21 H       -0.018      0.044      0.013     -0.015      0.001     -0.001
     24 H       -0.022     -0.022     -0.016      0.002      0.000      0.000
     25 H       -0.059     -0.016      0.015     -0.014      0.001      0.000
     27 H       -0.122     -0.223      0.047      0.030      0.001     -0.000
     28 H       -0.146      0.002      0.064      0.022      0.002      0.000
     30 H       -0.145     -0.207     -0.330      0.029     -0.003      0.000
     31 H        1.832     -0.476      0.021      0.010      0.001     -0.002
     33 H       -0.471     -0.216      0.864      0.002      0.003     -0.003
     35 H       -0.000      0.000      0.000      0.000      0.000      0.000
     37 H        0.064      0.062     -0.170      0.098     -0.000      0.003
     38 H       -0.068      0.034      0.009     -0.009      0.004      0.005
     40 H       -0.108     -0.085      0.051     -0.205      0.074     -0.118
     41 H       -0.056      0.007      0.044     -0.434     -0.020      0.020
     42 H       -0.080      1.124     -0.407     10.353     -0.284      0.092
     45 H        0.000    -13.570    -13.063     -0.173      0.072     -0.002
     46 H      -13.570      0.000    -12.908     -0.109      0.244     -0.001
     47 H      -13.063    -12.908      0.000     -0.060      0.076     -0.002
     48 H       -0.173     -0.109     -0.060      0.000      9.788     -0.621
     52 H        0.072      0.244      0.076      9.788      0.000     15.958
     53 H       -0.002     -0.001     -0.002     -0.621     15.958      0.000
     57 H       -0.000      0.000      0.000     -0.042     -0.627      9.977
     58 H        0.000      0.000      0.000      0.028      0.092     -0.327
     61 H        0.000      0.000      0.000      0.016      0.091     -0.291
     62 H        0.001      0.000      0.000      0.046     -0.438     -0.063
     63 H       -0.000     -0.000      0.000     -0.002      0.084     -0.143
     64 H        0.000     -0.000     -0.000      0.000     -0.011      0.020
     65 H        0.000      0.000      0.000      0.002      0.010      0.000
     66 H        0.000      0.000     -0.000     -0.003      0.035     -0.037
     67 H        0.000      0.000      0.000     -0.001     -0.009      0.037
     68 H        0.000      0.000      0.000      0.005     -0.085      0.029
     69 H        0.000      0.000      0.000     -0.002      0.040      0.117
     70 H       -0.018     -0.050     -0.202      4.432     -0.082     -0.411
     71 H        0.035     -0.032     -0.037     12.688     -0.269      0.098
     72 H       -0.011     -0.028     -0.016      2.340     -0.153      0.088
                 57 H       58 H       61 H       62 H       63 H       64 H  
      3 H        0.000      0.000      0.000      0.000      0.000      0.000
      4 H        0.000      0.000      0.000      0.000      0.000      0.000
      8 H        0.000      0.000      0.000      0.000      0.000      0.000
      9 H        0.000      0.000      0.000      0.000      0.000      0.000
     10 H        0.000      0.000      0.000      0.000      0.000      0.000
     11 H        0.000      0.000      0.000      0.000      0.000      0.000
     13 H        0.000      0.000      0.000      0.000      0.000      0.000
     16 H        0.000      0.000      0.000      0.000      0.000      0.000
     17 H        0.000      0.000      0.000      0.000      0.000      0.000
     19 H        0.000      0.000      0.000      0.000      0.000      0.000
     21 H        0.000      0.000      0.000      0.000     -0.000      0.000
     24 H        0.000      0.000      0.000      0.000      0.000      0.000
     25 H        0.000      0.000      0.000      0.000      0.000      0.000
     27 H        0.000      0.000      0.000      0.000      0.000      0.000
     28 H        0.000      0.000      0.000      0.000      0.000      0.000
     30 H        0.000      0.000      0.000      0.000      0.000      0.000
     31 H       -0.000      0.000      0.000      0.000      0.000      0.000
     33 H       -0.000      0.000     -0.000      0.000     -0.000      0.000
     35 H        0.000      0.000      0.000      0.000      0.000      0.000
     37 H        0.000      0.000      0.000     -0.001      0.000      0.000
     38 H        0.001      0.000      0.001     -0.000     -0.000     -0.000
     40 H        0.005     -0.005     -0.007      0.012     -0.017      0.000
     41 H       -0.003      0.000     -0.000      0.005     -0.001     -0.001
     42 H        0.035      0.001      0.002     -0.025     -0.001     -0.000
     45 H       -0.000      0.000      0.000      0.001     -0.000      0.000
     46 H        0.000      0.000      0.000      0.000     -0.000     -0.000
     47 H        0.000      0.000      0.000      0.000      0.000     -0.000
     48 H       -0.042      0.028      0.016      0.046     -0.002      0.000
     52 H       -0.627      0.092      0.091     -0.438      0.084     -0.011
     53 H        9.977     -0.327     -0.291     -0.063     -0.143      0.020
     57 H        0.000      9.925     12.742      4.182      2.600     -0.211
     58 H        9.925      0.000     -0.326     -0.198     -0.469      3.561
     61 H       12.742     -0.326      0.000    -12.295    -12.681      0.035
     62 H        4.182     -0.198    -12.295      0.000    -13.069      0.017
     63 H        2.600     -0.469    -12.681    -13.069      0.000      0.027
     64 H       -0.211      3.561      0.035      0.017      0.027      0.000
     65 H       -0.348     12.812      0.065      0.056     -0.053    -12.623
     66 H       -0.313      3.041     -0.082      0.011      0.682    -12.406
     67 H       -0.196      4.193     -0.021     -0.257      0.004      2.875
     68 H       -0.455      2.457      0.019     -0.077     -0.077      0.173
     69 H       -0.337     12.645      0.087     -0.026      0.008     -0.375
     70 H        0.037     -0.026     -0.012      0.028     -0.015     -0.000
     71 H        0.015      0.002      0.003     -0.012      0.001     -0.006
     72 H       -0.004     -0.001      0.001     -0.017     -0.001     -0.035
                 65 H       66 H       67 H       68 H       69 H       70 H  
      3 H        0.000      0.000      0.000      0.000      0.000      0.000
      4 H        0.000      0.000      0.000      0.000      0.000      0.000
      8 H        0.000      0.000      0.000      0.000      0.000      0.000
      9 H        0.000      0.000      0.000      0.000      0.000      0.000
     10 H        0.000      0.000      0.000      0.000      0.000      0.000
     11 H        0.000      0.000      0.000      0.000      0.000      0.000
     13 H        0.000      0.000      0.000      0.000      0.000      0.000
     16 H        0.000      0.000      0.000      0.000      0.000      0.000
     17 H        0.000      0.000      0.000      0.000      0.000      0.000
     19 H        0.000      0.000      0.000      0.000      0.000     -0.000
     21 H        0.000      0.000      0.000      0.000      0.000      0.001
     24 H        0.000      0.000      0.000      0.000      0.000      0.020
     25 H        0.000      0.000      0.000      0.000      0.000      0.004
     27 H        0.000      0.000      0.000      0.000      0.000     -0.010
     28 H        0.000      0.000      0.000      0.000      0.000     -0.009
     30 H       -0.000      0.000      0.000      0.000      0.000     -0.441
     31 H        0.000      0.000      0.000      0.000      0.000     -0.078
     33 H        0.000      0.000      0.000      0.000      0.000      0.004
     35 H        0.000      0.000      0.000      0.000      0.000      0.000
     37 H        0.000      0.000      0.000      0.000      0.000     -0.006
     38 H        0.000      0.000      0.000      0.000      0.000      0.004
     40 H       -0.000     -0.002      0.000      0.008      0.000      0.083
     41 H       -0.000      0.000     -0.000     -0.001      0.000      0.023
     42 H       -0.000      0.001     -0.000      0.000      0.000     -0.198
     45 H        0.000      0.000      0.000      0.000      0.000     -0.018
     46 H        0.000      0.000      0.000      0.000      0.000     -0.050
     47 H        0.000     -0.000      0.000      0.000      0.000     -0.202
     48 H        0.002     -0.003     -0.001      0.005     -0.002      4.432
     52 H        0.010      0.035     -0.009     -0.085      0.040     -0.082
     53 H        0.000     -0.037      0.037      0.029      0.117     -0.411
     57 H       -0.348     -0.313     -0.196     -0.455     -0.337      0.037
     58 H       12.812      3.041      4.193      2.457     12.645     -0.026
     61 H        0.065     -0.082     -0.021      0.019      0.087     -0.012
     62 H        0.056      0.011     -0.257     -0.077     -0.026      0.028
     63 H       -0.053      0.682      0.004     -0.077      0.008     -0.015
     64 H      -12.623    -12.406      2.875      0.173     -0.375     -0.000
     65 H        0.000    -12.394     -0.300     -0.219     -0.290      0.007
     66 H      -12.394      0.000      0.024     -0.259     -0.215     -0.003
     67 H       -0.300      0.024      0.000    -13.005    -12.025      0.000
     68 H       -0.219     -0.259    -13.005      0.000    -12.797      0.000
     69 H       -0.290     -0.215    -12.025    -12.797      0.000     -0.001
     70 H        0.007     -0.003      0.000      0.000     -0.001      0.000
     71 H        0.000     -0.000     -0.000     -0.008      0.000    -12.398
     72 H       -0.002     -0.005     -0.002      0.000      0.000    -13.294
                 71 H       72 H  
      3 H        0.000      0.000
      4 H        0.000      0.000
      8 H        0.000      0.000
      9 H        0.000      0.000
     10 H        0.000      0.000
     11 H        0.000      0.000
     13 H        0.000      0.000
     16 H        0.000      0.000
     17 H        0.000      0.000
     19 H        0.000      0.000
     21 H        0.001      0.002
     24 H        0.008      0.034
     25 H        0.000      0.000
     27 H       -0.001     -0.010
     28 H       -0.003     -0.011
     30 H        0.073      0.081
     31 H        0.012     -0.045
     33 H       -0.001      0.003
     35 H        0.000      0.000
     37 H       -0.020      0.066
     38 H        0.036      0.008
     40 H        0.028     -0.023
     41 H       -0.055      0.008
     42 H       -0.348     -0.441
     45 H        0.035     -0.011
     46 H       -0.032     -0.028
     47 H       -0.037     -0.016
     48 H       12.688      2.340
     52 H       -0.269     -0.153
     53 H        0.098      0.088
     57 H        0.015     -0.004
     58 H        0.002     -0.001
     61 H        0.003      0.001
     62 H       -0.012     -0.017
     63 H        0.001     -0.001
     64 H       -0.006     -0.035
     65 H        0.000     -0.002
     66 H       -0.000     -0.005
     67 H       -0.000     -0.002
     68 H       -0.008      0.000
     69 H        0.000      0.000
     70 H      -12.398    -13.294
     71 H        0.000    -12.656
     72 H      -12.656      0.000

Maximum memory used throughout the entire EPRNMR-calculation: 984.0 MB

Timings for individual modules:

Sum of individual times         ...      400.199 sec (=   6.670 min)
GTO integral calculation        ...        0.579 sec (=   0.010 min)   0.1 %
SCF iterations                  ...      103.008 sec (=   1.717 min)  25.7 %
EPR/NMR calculation             ...      296.611 sec (=   4.944 min)  74.1 %
                             ****ORCA TERMINATED NORMALLY****
TOTAL RUN TIME: 0 days 0 hours 6 minutes 40 seconds 677 msec
