
                                 *****************
                                 * O   R   C   A *
                                 *****************

                                            #,                                       
                                            ###                                      
                                            ####                                     
                                            #####                                    
                                            ######                                   
                                           ########,                                 
                                     ,,################,,,,,                         
                               ,,#################################,,                 
                          ,,##########################################,,             
                       ,#########################################, ''#####,          
                    ,#############################################,,   '####,        
                  ,##################################################,,,,####,       
                ,###########''''           ''''###############################       
              ,#####''   ,,,,##########,,,,          '''####'''          '####       
            ,##' ,,,,###########################,,,                        '##       
           ' ,,###''''                  '''############,,,                           
         ,,##''                                '''############,,,,        ,,,,,,###''
      ,#''                                            '''#######################'''  
     '                                                          ''''####''''         
             ,#######,   #######,   ,#######,      ##                                
            ,#'     '#,  ##    ##  ,#'     '#,    #''#        ######   ,####,        
            ##       ##  ##   ,#'  ##            #'  '#       #        #'  '#        
            ##       ##  #######   ##           ,######,      #####,   #    #        
            '#,     ,#'  ##    ##  '#,     ,#' ,#      #,         ##   #,  ,#        
             '#######'   ##     ##  '#######'  #'      '#     #####' # '####'        



                  #######################################################
                  #                        -***-                        #
                  #          Department of theory and spectroscopy      #
                  #    Directorship and core code : Frank Neese         #
                  #        Max Planck Institute fuer Kohlenforschung    #
                  #                Kaiser Wilhelm Platz 1               #
                  #                 D-45470 Muelheim/Ruhr               #
                  #                      Germany                        #
                  #                                                     #
                  #                  All rights reserved                #
                  #                        -***-                        #
                  #######################################################


                         Program Version 5.0.2 -  RELEASE  -


 With contributions from (in alphabetic order):
   Daniel Aravena         : Magnetic Suceptibility
   Michael Atanasov       : Ab Initio Ligand Field Theory (pilot matlab implementation)
   Alexander A. Auer      : GIAO ZORA, VPT2 properties, NMR spectrum
   Ute Becker             : Parallelization
   Giovanni Bistoni       : ED, misc. LED, open-shell LED, HFLD
   Martin Brehm           : Molecular dynamics
   Dmytro Bykov           : SCF Hessian
   Vijay G. Chilkuri      : MRCI spin determinant printing, contributions to CSF-ICE
   Dipayan Datta          : RHF DLPNO-CCSD density
   Achintya Kumar Dutta   : EOM-CC, STEOM-CC
   Dmitry Ganyushin       : Spin-Orbit,Spin-Spin,Magnetic field MRCI
   Miquel Garcia          : C-PCM and meta-GGA Hessian, CC/C-PCM, Gaussian charge scheme
   Yang Guo               : DLPNO-NEVPT2, F12-NEVPT2, CIM, IAO-localization
   Andreas Hansen         : Spin unrestricted coupled pair/coupled cluster methods
   Benjamin Helmich-Paris : MC-RPA, TRAH-SCF, COSX integrals
   Lee Huntington         : MR-EOM, pCC
   Robert Izsak           : Overlap fitted RIJCOSX, COSX-SCS-MP3, EOM
   Marcus Kettner         : VPT2
   Christian Kollmar      : KDIIS, OOCD, Brueckner-CCSD(T), CCSD density, CASPT2, CASPT2-K
   Simone Kossmann        : Meta GGA functionals, TD-DFT gradient, OOMP2, MP2 Hessian
   Martin Krupicka        : Initial AUTO-CI
   Lucas Lang             : DCDCAS
   Marvin Lechner         : AUTO-CI (C++ implementation), FIC-MRCC
   Dagmar Lenk            : GEPOL surface, SMD
   Dimitrios Liakos       : Extrapolation schemes; Compound Job, initial MDCI parallelization
   Dimitrios Manganas     : Further ROCIS development; embedding schemes
   Dimitrios Pantazis     : SARC Basis sets
   Anastasios Papadopoulos: AUTO-CI, single reference methods and gradients
   Taras Petrenko         : DFT Hessian,TD-DFT gradient, ASA, ECA, R-Raman, ABS, FL, XAS/XES, NRVS
   Peter Pinski           : DLPNO-MP2, DLPNO-MP2 Gradient
   Christoph Reimann      : Effective Core Potentials
   Marius Retegan         : Local ZFS, SOC
   Christoph Riplinger    : Optimizer, TS searches, QM/MM, DLPNO-CCSD(T), (RO)-DLPNO pert. Triples
   Tobias Risthaus        : Range-separated hybrids, TD-DFT gradient, RPA, STAB
   Michael Roemelt        : Original ROCIS implementation
   Masaaki Saitow         : Open-shell DLPNO-CCSD energy and density
   Barbara Sandhoefer     : DKH picture change effects
   Avijit Sen             : IP-ROCIS
   Kantharuban Sivalingam : CASSCF convergence, NEVPT2, FIC-MRCI
   Bernardo de Souza      : ESD, SOC TD-DFT
   Georgi Stoychev        : AutoAux, RI-MP2 NMR, DLPNO-MP2 response
   Willem Van den Heuvel  : Paramagnetic NMR
   Boris Wezisla          : Elementary symmetry handling
   Frank Wennmohs         : Technical directorship


 We gratefully acknowledge several colleagues who have allowed us to
 interface, adapt or use parts of their codes:
   Stefan Grimme, W. Hujo, H. Kruse, P. Pracht,  : VdW corrections, initial TS optimization,
                  C. Bannwarth, S. Ehlert          DFT functionals, gCP, sTDA/sTD-DF
   Ed Valeev, F. Pavosevic, A. Kumar             : LibInt (2-el integral package), F12 methods
   Garnet Chan, S. Sharma, J. Yang, R. Olivares  : DMRG
   Ulf Ekstrom                                   : XCFun DFT Library
   Mihaly Kallay                                 : mrcc  (arbitrary order and MRCC methods)
   Jiri Pittner, Ondrej Demel                    : Mk-CCSD
   Frank Weinhold                                : gennbo (NPA and NBO analysis)
   Christopher J. Cramer and Donald G. Truhlar   : smd solvation model
   Lars Goerigk                                  : TD-DFT with DH, B97 family of functionals
   V. Asgeirsson, H. Jonsson                     : NEB implementation
   FAccTs GmbH                                   : IRC, NEB, NEB-TS, DLPNO-Multilevel, CI-OPT
                                                   MM, QMMM, 2- and 3-layer-ONIOM, Crystal-QMMM,
                                                   LR-CPCM, SF, NACMEs, symmetry and pop. for TD-DFT,
                                                   nearIR, NL-DFT gradient (VV10), updates on ESD,
                                                   ML-optimized integration grids
   S Lehtola, MJT Oliveira, MAL Marques          : LibXC Library
   Liviu Ungur et al                             : ANISO software


 Your calculation uses the libint2 library for the computation of 2-el integrals
 For citations please refer to: http://libint.valeyev.net

 Your ORCA version has been built with support for libXC version: 5.1.0
 For citations please refer to: https://tddft.org/programs/libxc/

 This ORCA versions uses:
   CBLAS   interface :  Fast vector & matrix operations
   LAPACKE interface :  Fast linear algebra routines
   SCALAPACK package :  Parallel linear algebra routines
   Shared memory     :  Shared parallel matrices
   BLAS/LAPACK       :  OpenBLAS 0.3.15  USE64BITINT DYNAMIC_ARCH NO_AFFINITY Zen SINGLE_THREADED
        Core in use  :  Zen
   Copyright (c) 2011-2014, The OpenBLAS Project


Your calculation utilizes the atom-pairwise dispersion correction
based on tight binding partial charges (D4)
Cite in your paper:
E.Caldeweyher, C.Bannwarth, S.Grimme, J.Chem.Phys., (2017), 147, 034112.
E.Caldeweyher, S.Ehlert, A.Hansen, H.Neugebauer, S.Grimme, J.Chem.Phys., (2018), in progress.
   

================================================================================

----- Orbital basis set information -----
Your calculation utilizes the basis: pcSseg-1
   F. Jensen, J. Chem. Theory Comput. 11, 132 (2015).

----- AuxJ basis set information -----
Your calculation utilizes the auxiliary basis: def2/J
   F. Weigend, Phys. Chem. Chem. Phys. 8, 1057 (2006).

================================================================================
                                        WARNINGS
                       Please study these warnings very carefully!
================================================================================



WARNING: Found flag for RIJCOSX approximation but no HF exchange needed!
  ===> : RIJCOSX  will be disabled and Split-RI-J is turned on

INFO   : the flag for use of the SHARK integral package has been found!

================================================================================
                                       INPUT FILE
================================================================================
NAME = inpS
|  1> ! revTPSS
|  2> ! D4
|  3> ! pcSseg-1
|  4> ! def2/J RIJCOSX
|  5> ! DEFGRID2
|  6> ! scfconv7
|  7> ! smallprint printgap noloewdin
|  8> ! NOSOSCF
|  9> %MaxCore 4000
| 10> %output
| 11>        print[P_BondOrder_M] 1
| 12>        print[P_Mayer] 1
| 13>        print[P_basis] 2
| 14> end
| 15> %pal
| 16>     nprocs 4
| 17> end
| 18> ! CPCM(chloroform)
| 19> *xyz 0 1
| 20> C   -5.1502148600   0.2952668500   0.1456356600
| 21> C   -6.5246443400  -0.2036851700  -0.2335344400
| 22> C   -7.0293595900   0.4507320400  -1.5255744300
| 23> H   -7.2408970900   0.0554060700   0.5645863300
| 24> H   -6.5246590800  -1.2938069800  -0.3420204400
| 25> C   -5.0252149700   1.7684203300   0.1636922100
| 26> C   -5.5770220300   2.4574265100  -1.0637968900
| 27> C   -6.9928185300   1.9696656100  -1.4002359200
| 28> H   -4.9193541400   2.2275961000  -1.9159010800
| 29> H   -5.5653795000   3.5437427000  -0.9258905100
| 30> H   -7.3395277600   2.4261032500  -2.3348181700
| 31> H   -7.6874202300   2.2736406500  -0.6025978300
| 32> O   -8.3374801500  -0.0239238500  -1.8699992200
| 33> H   -6.3860993900   0.1381008300  -2.3600123300
| 34> C   -4.1383470300  -0.5702636300   0.3912508100
| 35> C   -4.5118512500   2.4505756700   1.1936784300
| 36> H   -4.1436850600   1.9435587300   2.0812325700
| 37> H   -4.4586189500   3.5365653500   1.1743910300
| 38> C   -2.7623165900  -0.2256453600   0.6635586800
| 39> H   -4.3868419300  -1.6291195500   0.3338312500
| 40> C   -1.7671475000  -1.0834770300   0.9759004100
| 41> H   -2.5131893300   0.8307368600   0.5929391700
| 42> C   -1.9142184800  -2.5720630700   1.1651110900
| 43> C   -0.9067968200  -3.3618998300   0.3078232100
| 44> H   -2.9307334900  -2.9185041200   0.9592776100
| 45> H   -1.7117643900  -2.7972563800   2.2245765400
| 46> C    0.5342525300  -2.8615429400   0.4776273100
| 47> H   -1.2015162700  -3.2930464500  -0.7469556400
| 48> H   -0.9606093000  -4.4239173400   0.5771319400
| 49> C    0.6484962100  -1.3518966500   0.2228770900
| 50> H    1.1898021900  -3.4300185800  -0.1902042400
| 51> H    0.8691038000  -3.0656385500   1.5058792200
| 52> C   -0.3523349800  -0.6391899700   1.1863641800
| 53> H   -0.0622949500  -0.9890167300   2.1948039800
| 54> C    0.0322482400   0.8328101200   1.0930838400
| 55> H   -8.9378383900   0.2366950300  -1.1587214800
| 56> C    1.5755215900   0.7922204300   0.9792408600
| 57> H   -0.3136795600   1.4072783300   1.9590284900
| 58> H   -0.4099923400   1.2931063500   0.2023363800
| 59> C    1.9787031900  -0.6861864500   0.6799028300
| 60> H    2.0496568700   1.1452760800   1.8987929000
| 61> H    1.9314199900   1.4488832200   0.1764259500
| 62> H    2.2493819500  -1.1797895300   1.6267278100
| 63> C    3.1889923000  -0.7703706300  -0.2604096300
| 64> C    0.3290223900  -1.0130452500  -1.2396655900
| 65> H   -0.7248650800  -1.1977995700  -1.4697066000
| 66> H    0.9333568100  -1.6204300100  -1.9217461000
| 67> H    0.5313727500   0.0388242300  -1.4651886800
| 68> H    2.9228713400  -0.2391350500  -1.1881020800
| 69> C    3.5849782300  -2.2065868800  -0.6507654700
| 70> C    4.4295786300  -0.0960222500   0.2856793600
| 71> C    4.7111434000   0.1556823000   1.5641461800
| 72> H    5.1788447600   0.1318963200  -0.4744901700
| 73> H    3.9670087800  -0.0834447600   2.3221869400
| 74> C    6.0000999600   0.7333414700   2.0964045900
| 75> C    6.8303771600   1.4416564400   1.0235675700
| 76> C    6.8256877800  -0.3569542300   2.8374681400
| 77> H    5.7246080700   1.4798638100   2.8613129800
| 78> H    7.1209317800  -1.0989065200   2.0784569200
| 79> C    6.0001335600  -1.0726712800   3.9116706000
| 80> C    8.0937813000   0.2246391400   3.4700237800
| 81> H    6.2086540200   2.1322861800   0.4446887600
| 82> H    7.2782941000   0.7230407000   0.3265080300
| 83> H    7.6419074400   2.0199435100   1.4722377400
| 84> H    6.6246066500  -1.7862536500   4.4600120500
| 85> H    5.1579331100  -1.6257273400   3.4858267200
| 86> H    5.6011280500  -0.3509399800   4.6365367000
| 87> H    7.8376478900   1.0383822000   4.1610398800
| 88> H    8.7897421900   0.6182014400   2.7241678600
| 89> H    8.6220301200  -0.5458795300   4.0423298400
| 90> H    4.5329583300  -2.2035020800  -1.2004255800
| 91> H    2.8343484700  -2.6826222500  -1.2868973700
| 92> H    3.7207918500  -2.8201312400   0.2477287600
| 93> *
| 94> %eprnmr
| 95>  Nuclei = all H { shift }
| 96>  origin giao
| 97>  giao_2el giao_2el_same_as_scf
| 98>  giao_1el giao_1el_analytic
| 99> end
|100> 
|101>                          ****END OF INPUT****
================================================================================

                       ****************************
                       * Single Point Calculation *
                       ****************************

---------------------------------
CARTESIAN COORDINATES (ANGSTROEM)
---------------------------------
  C     -5.150215    0.295267    0.145636
  C     -6.524644   -0.203685   -0.233534
  C     -7.029360    0.450732   -1.525574
  H     -7.240897    0.055406    0.564586
  H     -6.524659   -1.293807   -0.342020
  C     -5.025215    1.768420    0.163692
  C     -5.577022    2.457427   -1.063797
  C     -6.992819    1.969666   -1.400236
  H     -4.919354    2.227596   -1.915901
  H     -5.565379    3.543743   -0.925891
  H     -7.339528    2.426103   -2.334818
  H     -7.687420    2.273641   -0.602598
  O     -8.337480   -0.023924   -1.869999
  H     -6.386099    0.138101   -2.360012
  C     -4.138347   -0.570264    0.391251
  C     -4.511851    2.450576    1.193678
  H     -4.143685    1.943559    2.081233
  H     -4.458619    3.536565    1.174391
  C     -2.762317   -0.225645    0.663559
  H     -4.386842   -1.629120    0.333831
  C     -1.767147   -1.083477    0.975900
  H     -2.513189    0.830737    0.592939
  C     -1.914218   -2.572063    1.165111
  C     -0.906797   -3.361900    0.307823
  H     -2.930733   -2.918504    0.959278
  H     -1.711764   -2.797256    2.224577
  C      0.534253   -2.861543    0.477627
  H     -1.201516   -3.293046   -0.746956
  H     -0.960609   -4.423917    0.577132
  C      0.648496   -1.351897    0.222877
  H      1.189802   -3.430019   -0.190204
  H      0.869104   -3.065639    1.505879
  C     -0.352335   -0.639190    1.186364
  H     -0.062295   -0.989017    2.194804
  C      0.032248    0.832810    1.093084
  H     -8.937838    0.236695   -1.158721
  C      1.575522    0.792220    0.979241
  H     -0.313680    1.407278    1.959028
  H     -0.409992    1.293106    0.202336
  C      1.978703   -0.686186    0.679903
  H      2.049657    1.145276    1.898793
  H      1.931420    1.448883    0.176426
  H      2.249382   -1.179790    1.626728
  C      3.188992   -0.770371   -0.260410
  C      0.329022   -1.013045   -1.239666
  H     -0.724865   -1.197800   -1.469707
  H      0.933357   -1.620430   -1.921746
  H      0.531373    0.038824   -1.465189
  H      2.922871   -0.239135   -1.188102
  C      3.584978   -2.206587   -0.650765
  C      4.429579   -0.096022    0.285679
  C      4.711143    0.155682    1.564146
  H      5.178845    0.131896   -0.474490
  H      3.967009   -0.083445    2.322187
  C      6.000100    0.733341    2.096405
  C      6.830377    1.441656    1.023568
  C      6.825688   -0.356954    2.837468
  H      5.724608    1.479864    2.861313
  H      7.120932   -1.098907    2.078457
  C      6.000134   -1.072671    3.911671
  C      8.093781    0.224639    3.470024
  H      6.208654    2.132286    0.444689
  H      7.278294    0.723041    0.326508
  H      7.641907    2.019944    1.472238
  H      6.624607   -1.786254    4.460012
  H      5.157933   -1.625727    3.485827
  H      5.601128   -0.350940    4.636537
  H      7.837648    1.038382    4.161040
  H      8.789742    0.618201    2.724168
  H      8.622030   -0.545880    4.042330
  H      4.532958   -2.203502   -1.200426
  H      2.834348   -2.682622   -1.286897
  H      3.720792   -2.820131    0.247729

----------------------------
CARTESIAN COORDINATES (A.U.)
----------------------------
  NO LB      ZA    FRAG     MASS         X           Y           Z
   0 C     6.0000    0    12.011   -9.732496    0.557973    0.275212
   1 C     6.0000    0    12.011  -12.329791   -0.384909   -0.441316
   2 C     6.0000    0    12.011  -13.283565    0.851760   -2.882918
   3 H     1.0000    0     1.008  -13.683312    0.104702    1.066914
   4 H     1.0000    0     1.008  -12.329819   -2.444941   -0.646325
   5 C     6.0000    0    12.011   -9.496280    3.341830    0.309333
   6 C     6.0000    0    12.011  -10.539044    4.643863   -2.010285
   7 C     6.0000    0    12.011  -13.214512    3.722129   -2.646062
   8 H     1.0000    0     1.008   -9.296232    4.209547   -3.620528
   9 H     1.0000    0     1.008  -10.517043    6.696703   -1.749679
  10 H     1.0000    0     1.008  -13.869697    4.584671   -4.412167
  11 H     1.0000    0     1.008  -14.527119    4.296558   -1.138745
  12 O     8.0000    0    15.999  -15.755554   -0.045210   -3.533786
  13 H     1.0000    0     1.008  -12.067979    0.260973   -4.459777
  14 C     6.0000    0    12.011   -7.820343   -1.077642    0.739357
  15 C     6.0000    0    12.011   -8.526163    4.630917    2.255725
  16 H     1.0000    0     1.008   -7.830430    3.672794    3.932960
  17 H     1.0000    0     1.008   -8.425569    6.683140    2.219277
  18 C     6.0000    0    12.011   -5.220022   -0.426408    1.253944
  19 H     1.0000    0     1.008   -8.289930   -3.078590    0.630850
  20 C     6.0000    0    12.011   -3.339425   -2.047475    1.844185
  21 H     1.0000    0     1.008   -4.749240    1.569865    1.120493
  22 C     6.0000    0    12.011   -3.617349   -4.860495    2.201741
  23 C     6.0000    0    12.011   -1.713598   -6.353070    0.581702
  24 H     1.0000    0     1.008   -5.538284   -5.515174    1.812772
  25 H     1.0000    0     1.008   -3.234766   -5.286048    4.203840
  26 C     6.0000    0    12.011    1.009591   -5.407532    0.902585
  27 H     1.0000    0     1.008   -2.270537   -6.222956   -1.411542
  28 H     1.0000    0     1.008   -1.815288   -8.359992    1.090621
  29 C     6.0000    0    12.011    1.225480   -2.554714    0.421177
  30 H     1.0000    0     1.008    2.248400   -6.481796   -0.359434
  31 H     1.0000    0     1.008    1.642368   -5.793217    2.845699
  32 C     6.0000    0    12.011   -0.665817   -1.207894    2.241903
  33 H     1.0000    0     1.008   -0.117720   -1.868971    4.147578
  34 C     6.0000    0    12.011    0.060940    1.573783    2.065629
  35 H     1.0000    0     1.008  -16.890067    0.447289   -2.189666
  36 C     6.0000    0    12.011    2.977304    1.497080    1.850497
  37 H     1.0000    0     1.008   -0.592768    2.659371    3.702027
  38 H     1.0000    0     1.008   -0.774773    2.443617    0.382360
  39 C     6.0000    0    12.011    3.739207   -1.296704    1.284830
  40 H     1.0000    0     1.008    3.873290    2.164258    3.588199
  41 H     1.0000    0     1.008    3.649855    2.737992    0.333397
  42 H     1.0000    0     1.008    4.250716   -2.229479    3.074070
  43 C     6.0000    0    12.011    6.026322   -1.455790   -0.492103
  44 C     6.0000    0    12.011    0.621762   -1.914378   -2.342628
  45 H     1.0000    0     1.008   -1.369796   -2.263513   -2.777343
  46 H     1.0000    0     1.008    1.763789   -3.062169   -3.631574
  47 H     1.0000    0     1.008    1.004149    0.073367   -2.768805
  48 H     1.0000    0     1.008    5.523426   -0.451900   -2.245188
  49 C     6.0000    0    12.011    6.774627   -4.169845   -1.229769
  50 C     6.0000    0    12.011    8.370690   -0.181456    0.539856
  51 C     6.0000    0    12.011    8.902771    0.294197    2.955808
  52 H     1.0000    0     1.008    9.786598    0.249248   -0.896656
  53 H     1.0000    0     1.008    7.496560   -0.157688    4.388297
  54 C     6.0000    0    12.011   11.338546    1.385815    3.961631
  55 C     6.0000    0    12.011   12.907542    2.724336    1.934262
  56 C     6.0000    0    12.011   12.898681   -0.674546    5.362038
  57 H     1.0000    0     1.008   10.817941    2.796537    5.407098
  58 H     1.0000    0     1.008   13.456611   -2.076632    3.927714
  59 C     6.0000    0    12.011   11.338609   -2.027055    7.391986
  60 C     6.0000    0    12.011   15.295030    0.424506    6.557395
  61 H     1.0000    0     1.008   11.732656    4.029437    0.840340
  62 H     1.0000    0     1.008   13.753983    1.366349    0.617011
  63 H     1.0000    0     1.008   14.441112    3.817140    2.782126
  64 H     1.0000    0     1.008   12.518692   -3.375530    8.428201
  65 H     1.0000    0     1.008    9.747081   -3.072179    6.587258
  66 H     1.0000    0     1.008   10.584598   -0.663180    8.761785
  67 H     1.0000    0     1.008   14.811008    1.962258    7.863226
  68 H     1.0000    0     1.008   16.610206    1.168231    5.147931
  69 H     1.0000    0     1.008   16.293276   -1.031563    7.638896
  70 H     1.0000    0     1.008    8.566050   -4.164015   -2.268476
  71 H     1.0000    0     1.008    5.356142   -5.069421   -2.431884
  72 H     1.0000    0     1.008    7.031278   -5.329276    0.468140

--------------------------------
INTERNAL COORDINATES (ANGSTROEM)
--------------------------------
 C      0   0   0     0.000000000000     0.00000000     0.00000000
 C      1   0   0     1.510556016336     0.00000000     0.00000000
 C      2   1   0     1.533742711176   111.71183943     0.00000000
 H      2   1   3     1.103242056864   109.36325402   241.49978661
 H      2   1   3     1.095506628483   110.70498518   122.89242354
 C      1   2   3     1.478557468323   114.14777802    50.57783531
 C      6   1   2     1.511935857820   114.41079211   311.85294861
 C      3   2   1     1.524534086607   110.36300904   305.05508405
 H      7   6   1     1.100650090407   108.37869426   290.12234344
 H      7   6   1     1.095096608891   110.23908508   172.89680203
 H      8   3   2     1.096351490805   109.70220900   179.05572440
 H      8   3   2     1.100499372651   108.64243634   296.49167916
 O      3   2   1     1.433564107172   111.18617593   180.38428528
 H      3   2   1     1.099003442818   109.00354888    65.19834935
 C      1   2   3     1.354011196079   120.95426756   232.84563564
 C      6   1   2     1.337815319950   123.35895515   129.60654637
 H     16   6   1     1.086445982245   121.40178274     0.71536208
 H     16   6   1     1.087464604770   120.95334133   181.36470288
 C     15   1   2     1.444428295170   126.41361967   175.08504737
 H     15   1   2     1.089138457918   116.19280274   357.87672349
 C     19  15   1     1.350479192008   126.44551819   176.35943836
 H     19  15   1     1.087655690740   115.95643554   355.43207989
 C     21  19  15     1.507752948287   125.75178263   356.95381355
 C     23  21  19     1.540676156004   111.87166838   127.75479629
 H     23  21  19     1.093476834766   112.32458963     3.58101181
 H     23  21  19     1.101892338285   107.72866568   246.38432765
 C     24  23  21     1.534866013332   112.65821825    50.64520597
 H     24  23  21     1.097341680860   109.09100179   288.49639719
 H     24  23  21     1.096952217102   109.12581562   172.54466421
 C     27  24  23     1.535246303992   111.84308223   306.24614859
 H     27  24  23     1.094946980075   108.98879892   182.63677206
 H     27  24  23     1.100491881597   109.18300425    66.14720448
 C     21  19  15     1.497791860345   122.69417184   177.34510987
 H     33  21  19     1.106098011588   106.37881816   124.10039203
 C     33  21  19     1.524266951651   121.07679410     1.67405190
 H     13   3   2     0.966575522330   107.49924570    62.60723781
 C     35  33  21     1.547998830700   103.33921124   195.12217149
 H     35  33  21     1.095235090735   112.23798643    73.35983931
 H     35  33  21     1.095846881388   110.70497401   313.68210417
 C     30  27  24     1.556114779522   115.82002567   166.50668398
 H     37  35  33     1.093173595549   111.22734503   251.59906477
 H     37  35  33     1.096531563892   111.20569789   133.25062652
 H     40  30  27     1.101539166100   105.71192876   322.00895712
 C     40  30  27     1.534950887937   118.07568495    82.86953051
 C     30  27  24     1.534898981617   111.08220629   294.75793061
 H     45  30  27     1.094409349587   111.31236502    67.43806445
 H     45  30  27     1.095157595965   110.86456459   307.35917877
 H     45  30  27     1.094639545819   111.71412452   187.33423635
 H     44  40  30     1.101655521747   107.39437954    62.54333223
 C     44  40  30     1.540097287623   114.15147069   303.65355363
 C     44  40  30     1.513939683340   113.62325073   180.26454152
 C     51  44  40     1.333083384503   127.09286462    22.94407608
 H     51  44  40     1.091423072166   113.84958339   198.53657856
 H     52  51  44     1.088826835327   118.80695988   356.11802198
 C     52  51  44     1.509436366750   126.21339240   174.97140540
 C     55  52  51     1.530375639197   113.15471829    18.70770233
 C     55  52  51     1.555479073183   110.66980514   252.41079814
 H     55  52  51     1.103755512180   106.86202363   137.38496962
 H     57  55  52     1.101707879730   106.62240787    65.42890407
 C     57  55  52     1.532221129893   112.05222651   307.18960202
 C     57  55  52     1.531808950617   111.71509803   183.88569337
 H     56  55  52     1.094810384154   110.76532471    48.52584491
 H     56  55  52     1.096781732716   111.33691265   288.31941449
 H     56  55  52     1.092841366409   111.09908338   168.25529046
 H     60  57  55     1.095374266950   110.37044833   183.74945921
 H     60  57  55     1.093853561322   112.21478587    63.58778383
 H     60  57  55     1.097967362602   110.58489774   302.88557750
 H     61  57  55     1.097854881975   110.37737747    57.15599866
 H     61  57  55     1.093413873055   112.45129688   296.32367516
 H     61  57  55     1.095572938221   110.35553925   176.15741316
 H     50  44  40     1.095811125383   110.30041379   188.08169130
 H     50  44  40     1.093031794728   112.15298510    68.08967598
 H     50  44  40     1.096436912188   110.24168842   306.99862984

---------------------------
INTERNAL COORDINATES (A.U.)
---------------------------
 C      0   0   0     0.000000000000     0.00000000     0.00000000
 C      1   0   0     2.854537180822     0.00000000     0.00000000
 C      2   1   0     2.898353684021   111.71183943     0.00000000
 H      2   1   3     2.084825346896   109.36325402   241.49978661
 H      2   1   3     2.070207505729   110.70498518   122.89242354
 C      1   2   3     2.794068688395   114.14777802    50.57783531
 C      6   1   2     2.857144703336   114.41079211   311.85294861
 C      3   2   1     2.880951905516   110.36300904   305.05508405
 H      7   6   1     2.079927240145   108.37869426   290.12234344
 H      7   6   1     2.069432680991   110.23908508   172.89680203
 H      8   3   2     2.071804064138   109.70220900   179.05572440
 H      8   3   2     2.079642424862   108.64243634   296.49167916
 O      3   2   1     2.709043557975   111.18617593   180.38428528
 H      3   2   1     2.076815527163   109.00354888    65.19834935
 C      1   2   3     2.558710342853   120.95426756   232.84563564
 C      6   1   2     2.528104572470   123.35895515   129.60654637
 H     16   6   1     2.053085365743   121.40178274     0.71536208
 H     16   6   1     2.055010283349   120.95334133   181.36470288
 C     15   1   2     2.729573897958   126.41361967   175.08504737
 H     15   1   2     2.058173407386   116.19280274   357.87672349
 C     19  15   1     2.552035822454   126.44551819   176.35943836
 H     19  15   1     2.055371383500   115.95643554   355.43207989
 C     21  19  15     2.849240149874   125.75178263   356.95381355
 C     23  21  19     2.911455995910   111.87166838   127.75479629
 H     23  21  19     2.066371751494   112.32458963     3.58101181
 H     23  21  19     2.082274748424   107.72866568   246.38432765
 C     24  23  21     2.900476417462   112.65821825    50.64520597
 H     24  23  21     2.073675252163   109.09100179   288.49639719
 H     24  23  21     2.072939272320   109.12581562   172.54466421
 C     27  24  23     2.901195062659   111.84308223   306.24614859
 H     27  24  23     2.069149923506   108.98879892   182.63677206
 H     27  24  23     2.079628268822   109.18300425    66.14720448
 C     21  19  15     2.830416421668   122.69417184   177.34510987
 H     33  21  19     2.090222319176   106.37881816   124.10039203
 C     33  21  19     2.880447093608   121.07679410     1.67405190
 H     13   3   2     1.826563024956   107.49924570    62.60723781
 C     35  33  21     2.925293845654   103.33921124   195.12217149
 H     35  33  21     2.069694373749   112.23798643    73.35983931
 H     35  33  21     2.070850490535   110.70497401   313.68210417
 C     30  27  24     2.940630766244   115.82002567   166.50668398
 H     37  35  33     2.065798712422   111.22734503   251.59906477
 H     37  35  33     2.072144352956   111.20569789   133.25062652
 H     40  30  27     2.081607349717   105.71192876   322.00895712
 C     40  30  27     2.900636807220   118.07568495    82.86953051
 C     30  27  24     2.900538718491   111.08220629   294.75793061
 H     45  30  27     2.068133949122   111.31236502    67.43806445
 H     45  30  27     2.069547929857   110.86456459   307.35917877
 H     45  30  27     2.068568956958   111.71412452   187.33423635
 H     44  40  30     2.081827230024   107.39437954    62.54333223
 C     44  40  30     2.910362093203   114.15147069   303.65355363
 C     44  40  30     2.860931384787   113.62325073   180.26454152
 C     51  44  40     2.519162510391   127.09286462    22.94407608
 H     51  44  40     2.062490702637   113.84958339   198.53657856
 H     52  51  44     2.057584526032   118.80695988   356.11802198
 C     52  51  44     2.852421349739   126.21339240   174.97140540
 C     55  52  51     2.891990840108   113.15471829    18.70770233
 C     55  52  51     2.939429455361   110.66980514   252.41079814
 H     55  52  51     2.085795636826   106.86202363   137.38496962
 H     57  55  52     2.081926172272   106.62240787    65.42890407
 C     57  55  52     2.895478312105   112.05222651   307.18960202
 C     57  55  52     2.894699406155   111.71509803   183.88569337
 H     56  55  52     2.068891794624   110.76532471    48.52584491
 H     56  55  52     2.072617103521   111.33691265   288.31941449
 H     56  55  52     2.065170890333   111.09908338   168.25529046
 H     60  57  55     2.069957378681   110.37044833   183.74945921
 H     60  57  55     2.067083661513   112.21478587    63.58778383
 H     60  57  55     2.074857619302   110.58489774   302.88557750
 H     61  57  55     2.074645061721   110.37737747    57.15599866
 H     61  57  55     2.066252771105   112.45129688   296.32367516
 H     61  57  55     2.070332812974   110.35553925   176.15741316
 H     50  44  40     2.070782921477   110.30041379   188.08169130
 H     50  44  40     2.065530747704   112.15298510    68.08967598
 H     50  44  40     2.071965487158   110.24168842   306.99862984

---------------------
BASIS SET INFORMATION
---------------------
There are 3 groups of distinct atoms

 Group   1 Type C   : 8s5p1d contracted to 3s3p1d pattern {521/311/1}
 Group   2 Type H   : 4s2p contracted to 2s1p pattern {31/2}
 Group   3 Type O   : 8s5p1d contracted to 3s3p1d pattern {521/311/1}

Atom   0C    basis set group =>   1
Atom   1C    basis set group =>   1
Atom   2C    basis set group =>   1
Atom   3H    basis set group =>   2
Atom   4H    basis set group =>   2
Atom   5C    basis set group =>   1
Atom   6C    basis set group =>   1
Atom   7C    basis set group =>   1
Atom   8H    basis set group =>   2
Atom   9H    basis set group =>   2
Atom  10H    basis set group =>   2
Atom  11H    basis set group =>   2
Atom  12O    basis set group =>   3
Atom  13H    basis set group =>   2
Atom  14C    basis set group =>   1
Atom  15C    basis set group =>   1
Atom  16H    basis set group =>   2
Atom  17H    basis set group =>   2
Atom  18C    basis set group =>   1
Atom  19H    basis set group =>   2
Atom  20C    basis set group =>   1
Atom  21H    basis set group =>   2
Atom  22C    basis set group =>   1
Atom  23C    basis set group =>   1
Atom  24H    basis set group =>   2
Atom  25H    basis set group =>   2
Atom  26C    basis set group =>   1
Atom  27H    basis set group =>   2
Atom  28H    basis set group =>   2
Atom  29C    basis set group =>   1
Atom  30H    basis set group =>   2
Atom  31H    basis set group =>   2
Atom  32C    basis set group =>   1
Atom  33H    basis set group =>   2
Atom  34C    basis set group =>   1
Atom  35H    basis set group =>   2
Atom  36C    basis set group =>   1
Atom  37H    basis set group =>   2
Atom  38H    basis set group =>   2
Atom  39C    basis set group =>   1
Atom  40H    basis set group =>   2
Atom  41H    basis set group =>   2
Atom  42H    basis set group =>   2
Atom  43C    basis set group =>   1
Atom  44C    basis set group =>   1
Atom  45H    basis set group =>   2
Atom  46H    basis set group =>   2
Atom  47H    basis set group =>   2
Atom  48H    basis set group =>   2
Atom  49C    basis set group =>   1
Atom  50C    basis set group =>   1
Atom  51C    basis set group =>   1
Atom  52H    basis set group =>   2
Atom  53H    basis set group =>   2
Atom  54C    basis set group =>   1
Atom  55C    basis set group =>   1
Atom  56C    basis set group =>   1
Atom  57H    basis set group =>   2
Atom  58H    basis set group =>   2
Atom  59C    basis set group =>   1
Atom  60C    basis set group =>   1
Atom  61H    basis set group =>   2
Atom  62H    basis set group =>   2
Atom  63H    basis set group =>   2
Atom  64H    basis set group =>   2
Atom  65H    basis set group =>   2
Atom  66H    basis set group =>   2
Atom  67H    basis set group =>   2
Atom  68H    basis set group =>   2
Atom  69H    basis set group =>   2
Atom  70H    basis set group =>   2
Atom  71H    basis set group =>   2
Atom  72H    basis set group =>   2

-------------------------
BASIS SET IN INPUT FORMAT
-------------------------

 # Basis set for element : H 
 NewGTO H 
 S 3 
   1      12.2518000000      0.0372173893
   2       1.8687100000      0.2538082070
   3       0.4182080000      0.7973867639
 S 1 
   1       0.1061000000      1.0000000000
 P 2 
   1       9.0000000000      0.0402678705
   2       1.0000000000      0.9880231245
  end;

 # Basis set for element : C 
 NewGTO C 
 S 5 
   1    1243.2000000000      0.0056300977
   2     187.1450000000      0.0419506039
   3      42.5126000000      0.1846643605
   4      11.7393000000      0.4665574214
   5       3.5054800000      0.4482347783
 S 2 
   1       5.3908900000     -0.1481148174
   2       0.4933410000      1.0519817143
 S 1 
   1       0.1497410000      1.0000000000
 P 3 
   1      59.6736000000      0.0113906672
   2       9.1805600000      0.1672414929
   3       1.9365800000      0.9041087436
 P 1 
   1       0.5262960000      1.0000000000
 P 1 
   1       0.1363190000      1.0000000000
 D 1 
   1       0.8000000000      1.0000000000
  end;

 # Basis set for element : O 
 NewGTO O 
 S 5 
   1    2288.6400000000      0.0054511382
   2     344.4160000000      0.0407189228
   3      78.2538000000      0.1813694209
   4      21.7195000000      0.4655368202
   5       6.5590700000      0.4512113212
 S 2 
   1      10.4656000000     -0.1502112012
   2       0.9643510000      1.0528679834
 S 1 
   1       0.2851270000      1.0000000000
 P 3 
   1     110.8840000000      0.0113058003
   2      17.0590000000      0.1699226452
   3       3.6899900000      0.9008060328
 P 1 
   1       0.9929960000      1.0000000000
 P 1 
   1       0.2449240000      1.0000000000
 D 1 
   1       1.0000000000      1.0000000000
  end;

---------------------------------
AUXILIARY/J BASIS SET INFORMATION
---------------------------------
There are 3 groups of distinct atoms

 Group   1 Type C   : 12s5p4d2f1g contracted to 6s4p3d1f1g pattern {711111/2111/211/2/1}
 Group   2 Type H   : 5s2p1d contracted to 3s1p1d pattern {311/2/1}
 Group   3 Type O   : 12s5p4d2f1g contracted to 6s4p3d1f1g pattern {711111/2111/211/2/1}

Atom   0C    basis set group =>   1
Atom   1C    basis set group =>   1
Atom   2C    basis set group =>   1
Atom   3H    basis set group =>   2
Atom   4H    basis set group =>   2
Atom   5C    basis set group =>   1
Atom   6C    basis set group =>   1
Atom   7C    basis set group =>   1
Atom   8H    basis set group =>   2
Atom   9H    basis set group =>   2
Atom  10H    basis set group =>   2
Atom  11H    basis set group =>   2
Atom  12O    basis set group =>   3
Atom  13H    basis set group =>   2
Atom  14C    basis set group =>   1
Atom  15C    basis set group =>   1
Atom  16H    basis set group =>   2
Atom  17H    basis set group =>   2
Atom  18C    basis set group =>   1
Atom  19H    basis set group =>   2
Atom  20C    basis set group =>   1
Atom  21H    basis set group =>   2
Atom  22C    basis set group =>   1
Atom  23C    basis set group =>   1
Atom  24H    basis set group =>   2
Atom  25H    basis set group =>   2
Atom  26C    basis set group =>   1
Atom  27H    basis set group =>   2
Atom  28H    basis set group =>   2
Atom  29C    basis set group =>   1
Atom  30H    basis set group =>   2
Atom  31H    basis set group =>   2
Atom  32C    basis set group =>   1
Atom  33H    basis set group =>   2
Atom  34C    basis set group =>   1
Atom  35H    basis set group =>   2
Atom  36C    basis set group =>   1
Atom  37H    basis set group =>   2
Atom  38H    basis set group =>   2
Atom  39C    basis set group =>   1
Atom  40H    basis set group =>   2
Atom  41H    basis set group =>   2
Atom  42H    basis set group =>   2
Atom  43C    basis set group =>   1
Atom  44C    basis set group =>   1
Atom  45H    basis set group =>   2
Atom  46H    basis set group =>   2
Atom  47H    basis set group =>   2
Atom  48H    basis set group =>   2
Atom  49C    basis set group =>   1
Atom  50C    basis set group =>   1
Atom  51C    basis set group =>   1
Atom  52H    basis set group =>   2
Atom  53H    basis set group =>   2
Atom  54C    basis set group =>   1
Atom  55C    basis set group =>   1
Atom  56C    basis set group =>   1
Atom  57H    basis set group =>   2
Atom  58H    basis set group =>   2
Atom  59C    basis set group =>   1
Atom  60C    basis set group =>   1
Atom  61H    basis set group =>   2
Atom  62H    basis set group =>   2
Atom  63H    basis set group =>   2
Atom  64H    basis set group =>   2
Atom  65H    basis set group =>   2
Atom  66H    basis set group =>   2
Atom  67H    basis set group =>   2
Atom  68H    basis set group =>   2
Atom  69H    basis set group =>   2
Atom  70H    basis set group =>   2
Atom  71H    basis set group =>   2
Atom  72H    basis set group =>   2

-------------------------------------
AUXILIARY/J BASIS SET IN INPUT FORMAT
-------------------------------------

 # Auxiliary/J basis set for element : H 
 NewAuxJGTO H 
 S 3 
   1      15.6752927000      0.1007184237
   2       3.6063578000      0.3404257499
   3       1.2080016000      0.6491996172
 S 1 
   1       0.4726794000      1.0000000000
 S 1 
   1       0.2018100000      1.0000000000
 P 2 
   1       2.0281365000      0.5596620919
   2       0.5358730000      0.5596620919
 D 1 
   1       2.2165124000      1.0000000000
  end;

 # Auxiliary/J basis set for element : C 
 NewAuxJGTO C 
 S 7 
   1    1861.0916331000      0.0134602335
   2     642.9939764000      0.0299160374
   3     235.1105725000      0.1008649584
   4      90.7028894000      0.2370970548
   5      36.7794552000      0.3924037254
   6      15.6046273000      0.3195862154
   7       6.8907294000      0.0530104441
 S 1 
   1       3.1478850000     -1.0000000000
 S 1 
   1       1.4777287000      1.0000000000
 S 1 
   1       0.7076466000      1.0000000000
 S 1 
   1       0.3430122000      1.0000000000
 S 1 
   1       0.1669453000      1.0000000000
 P 2 
   1      13.5472892000     -0.6769313712
   2       5.4669419000     -0.3779500978
 P 1 
   1       2.1751721000      1.0000000000
 P 1 
   1       0.8582194000      1.0000000000
 P 1 
   1       0.3376720000      1.0000000000
 D 2 
   1       5.9287253000     -0.3533329857
   2       1.9809209000     -0.7456525731
 D 1 
   1       0.8055417000     -1.0000000000
 D 1 
   1       0.3531244000     -1.0000000000
 F 2 
   1       1.6755626000      0.6311076882
   2       0.5997536000      0.4968166032
 G 1 
   1       1.0024600000     -1.0000000000
  end;

 # Auxiliary/J basis set for element : O 
 NewAuxJGTO O 
 S 7 
   1    2876.8216605000      0.0168151159
   2    1004.7443032000      0.0340137548
   3     369.7579954000      0.1194951309
   4     142.9442404000      0.2664627624
   5      57.8366425000      0.4202764046
   6      24.3864983000      0.2765077335
   7      10.6622662000      0.0057008815
 S 1 
   1       4.8070437000     -1.0000000000
 S 1 
   1       2.2210770000      1.0000000000
 S 1 
   1       1.0447795000      1.0000000000
 S 1 
   1       0.4968425000      1.0000000000
 S 1 
   1       0.2371384000      1.0000000000
 P 2 
   1      64.2613382000     -0.2731534179
   2      16.3006076000     -0.8168011598
 P 1 
   1       4.3550542000      1.0000000000
 P 1 
   1       1.2019554000      1.0000000000
 P 1 
   1       0.3354196000      1.0000000000
 D 2 
   1       9.2146611000     -0.4661230638
   2       2.8435251000     -0.6600908911
 D 1 
   1       0.9955759000     -1.0000000000
 D 1 
   1       0.3649441000     -1.0000000000
 F 2 
   1       2.6420115000      0.5931563945
   2       0.7345613000      0.5931563945
 G 1 
   1       1.3931000000     -1.0000000000
  end;



           ************************************************************
           *        Program running with 4 parallel MPI-processes     *
           *              working on a common directory               *
           ************************************************************
------------------------------------------------------------------------------
                           ORCA GTO INTEGRAL CALCULATION
                           -- RI-GTO INTEGRALS CHOSEN --
------------------------------------------------------------------------------
------------------------------------------------------------------------------
                   ___                                                        
                  /   \      - P O W E R E D   B Y -                         
                 /     \                                                     
                 |  |  |   _    _      __       _____    __    __             
                 |  |  |  | |  | |    /  \     |  _  \  |  |  /  |          
                  \  \/   | |  | |   /    \    | | | |  |  | /  /          
                 / \  \   | |__| |  /  /\  \   | |_| |  |  |/  /          
                |  |  |   |  __  | /  /__\  \  |    /   |      \           
                |  |  |   | |  | | |   __   |  |    \   |  |\   \          
                \     /   | |  | | |  |  |  |  | |\  \  |  | \   \       
                 \___/    |_|  |_| |__|  |__|  |_| \__\ |__|  \__/        
                                                                              
                      - O R C A' S   B I G   F R I E N D -                    
                                      &                                       
                       - I N T E G R A L  F E E D E R -                       
                                                                              
 v1 FN, 2020, v2 2021                                                         
------------------------------------------------------------------------------


Reading SHARK input file inpS.SHARKINP.tmp ... ok
----------------------
SHARK INTEGRAL PACKAGE
----------------------

Number of atoms                             ...     73
Number of basis functions                   ...    713
Number of shells                            ...    335
Maximum angular momentum                    ...      2
Integral batch strategy                     ... SHARK/LIBINT Hybrid
RI-J (if used) integral strategy            ... SPLIT-RIJ (Revised 2003 algorithm where possible)
Printlevel                                  ...      1
Contraction scheme used                     ... SEGMENTED contraction
Coulomb Range Separation                    ... NOT USED
Exchange Range Separation                   ... NOT USED
Finite Nucleus Model                        ... NOT USED
Auxiliary Coulomb fitting basis             ... AVAILABLE
   # of basis functions in Aux-J            ...   1905
   # of shells in Aux-J                     ...    655
   Maximum angular momentum in Aux-J        ...      4
Auxiliary J/K fitting basis                 ... NOT available
Auxiliary Correlation fitting basis         ... NOT available
Auxiliary 'external' fitting basis          ... NOT available
Integral threshold                          ...     3.000000e-11
Primitive cut-off                           ...     1.000000e-12
Primitive pair pre-selection threshold      ...     1.000000e-12

Calculating pre-screening integrals         ... done (  0.0 sec) Dimension = 335
Organizing shell pair data                  ... done (  0.2 sec)
Shell pair information
Total number of shell pairs                 ...     56280
Shell pairs after pre-screening             ...     31552
Total number of primitive shell pairs       ...    225367
Primitive shell pairs kept                  ...     74300
          la=0 lb=0:   9641 shell pairs
          la=1 lb=0:  12965 shell pairs
          la=1 lb=1:   4240 shell pairs
          la=2 lb=0:   2763 shell pairs
          la=2 lb=1:   1748 shell pairs
          la=2 lb=2:    195 shell pairs

Calculating one electron integrals          ... done (  0.1 sec)
Calculating RI/J V-Matrix + Cholesky decomp.... done (  0.1 sec)
Calculating Nuclear repulsion               ... done (  0.0 sec) ENN=   2770.491745335373 Eh

SHARK setup successfully completed in   0.7 seconds

Maximum memory used throughout the entire GTOINT-calculation: 61.1 MB


           ************************************************************
           *        Program running with 4 parallel MPI-processes     *
           *              working on a common directory               *
           ************************************************************
-------------------------------------------------------------------------------
                                 ORCA SCF
-------------------------------------------------------------------------------

------------
SCF SETTINGS
------------
Hamiltonian:
 Density Functional     Method          .... DFT(GTOs)
 Exchange Functional    Exchange        .... revTPSS
 Correlation Functional Correlation     .... revTPSS
 LDA part of GGA corr.  LDAOpt          .... PW91-LDA
 Gradients option       PostSCFGGA      .... off
   Density functional embedding theory  .... OFF
 RI-approximation to the Coulomb term is turned on
   Number of AuxJ basis functions       .... 1905


General Settings:
 Integral files         IntName         .... inpS
 Hartree-Fock type      HFTyp           .... RHF
 Total Charge           Charge          ....    0
 Multiplicity           Mult            ....    1
 Number of Electrons    NEL             ....  220
 Basis Dimension        Dim             ....  713
 Nuclear Repulsion      ENuc            ....   2770.4917453354 Eh

Convergence Acceleration:
 DIIS                   CNVDIIS         .... on
   Start iteration      DIISMaxIt       ....    12
   Startup error        DIISStart       ....  0.200000
   # of expansion vecs  DIISMaxEq       ....     5
   Bias factor          DIISBfac        ....   1.050
   Max. coefficient     DIISMaxC        ....  10.000
 Trust-Rad. Augm. Hess. CNVTRAH         .... auto
   Auto Start mean grad. ratio tolernc. ....  1.125000
   Auto Start start iteration           ....    20
   Auto Start num. interpolation iter.  ....    10
   Max. Number of Micro iterations      ....    16
   Max. Number of Macro iterations      .... Maxiter - #DIIS iter
   Number of Davidson start vectors     ....     2
   Converg. threshold I  (grad. norm)   ....   1.000e-04
   Converg. threshold II (energy diff.) ....   1.000e-07
   Grad. Scal. Fac. for Micro threshold ....   0.100
   Minimum threshold for Micro iter.    ....   0.010
   NR start threshold (gradient norm)   ....   0.001
   Initial trust radius                 ....   0.400
   Minimum AH scaling param. (alpha)    ....   1.000
   Maximum AH scaling param. (alpha)    .... 1000.000
   Orbital update algorithm             .... Taylor
   White noise on init. David. guess    .... on
   Maximum white noise                  ....   0.010
   Quad. conv. algorithm                .... NR
 SOSCF                  CNVSOSCF        .... off
 Level Shifting         CNVShift        .... on
   Level shift para.    LevelShift      ....    0.2500
   Turn off err/grad.   ShiftErr        ....    0.0010
 Zerner damping         CNVZerner       .... off
 Static damping         CNVDamp         .... on
   Fraction old density DampFac         ....    0.7000
   Max. Damping (<1)    DampMax         ....    0.9800
   Min. Damping (>=0)   DampMin         ....    0.0000
   Turn off err/grad.   DampErr         ....    0.1000
 Fernandez-Rico         CNVRico         .... off

SCF Procedure:
 Maximum # iterations   MaxIter         ....   125
 SCF integral mode      SCFMode         .... Direct
   Integral package                     .... SHARK and LIBINT hybrid scheme
 Reset frequency        DirectResetFreq ....    20
 Integral Threshold     Thresh          ....  3.000e-11 Eh
 Primitive CutOff       TCut            ....  1.000e-12 Eh

Convergence Tolerance:
 Convergence Check Mode ConvCheckMode   .... Total+1el-Energy
 Convergence forced     ConvForced      .... 0
 Energy Change          TolE            ....  1.000e-07 Eh
 1-El. energy change                    ....  1.000e-04 Eh
 DIIS Error             TolErr          ....  1.000e-07


Diagonalization of the overlap matrix:
Smallest eigenvalue                        ... 4.957e-04
Time for diagonalization                   ...    0.074 sec
Threshold for overlap eigenvalues          ... 1.000e-08
Number of eigenvalues below threshold      ... 0
Time for construction of square roots      ...    0.057 sec
Total time needed                          ...    0.133 sec

Time for model grid setup =    0.791 sec

------------------------------
INITIAL GUESS: MODEL POTENTIAL
------------------------------
Loading Hartree-Fock densities                     ... done
Calculating cut-offs                               ... done
Initializing the effective Hamiltonian             ... done
Setting up the integral package (SHARK)            ... done
Starting the Coulomb interaction                   ... done (   0.7 sec)
Reading the grid                                   ... done
Mapping shells                                     ... done
Starting the XC term evaluation                    ... done (   0.3 sec)
  promolecular density results
     # of electrons  =    219.981870277
     EX              =   -164.433298977
     EC              =     -7.327172441
     EX+EC           =   -171.760471417
Transforming the Hamiltonian                       ... done (   0.0 sec)
Diagonalizing the Hamiltonian                      ... done (   0.1 sec)
Back transforming the eigenvectors                 ... done (   0.0 sec)
Now organizing SCF variables                       ... done
                      ------------------
                      INITIAL GUESS DONE (   2.0 sec)
                      ------------------
-------------------
DFT GRID GENERATION
-------------------

General Integration Accuracy     IntAcc      ... 4.388
Radial Grid Type                 RadialGrid  ... OptM3 with GC (2021)
Angular Grid (max. ang.)         AngularGrid ... 4 (Lebedev-302)
Angular grid pruning method      GridPruning ... 4 (adaptive)
Weight generation scheme         WeightScheme... Becke
Basis function cutoff            BFCut       ... 1.0000e-11
Integration weight cutoff        WCut        ... 1.0000e-14
Angular grids for H and He will be reduced by one unit
Partially contracted basis set               ... off
Rotationally invariant grid construction     ... off

Total number of grid points                  ...   309941
Total number of batches                      ...     4882
Average number of points per batch           ...       63
Average number of grid points per atom       ...     4246
Time for grid setup =    3.003 sec


--------------------
CPCM SOLVATION MODEL
--------------------
CPCM parameters:
  Epsilon                                         ...       4.9000
  Refrac                                          ...       1.4500
  Rsolv                                           ...       1.3000
  Surface type                                    ... GAUSSIAN VDW
  Epsilon function type                           ...         CPCM
Radii:
 Radius for C  used is    3.8550 Bohr (=   2.0400 Ang.)
 Radius for H  used is    2.4944 Bohr (=   1.3200 Ang.)
 Radius for O  used is    3.4469 Bohr (=   1.8240 Ang.)
Calculating surface                               ...        done! (  0.0s)
GEPOL surface points                              ...         3638
GEPOL Volume                                      ...    3601.7984
GEPOL Surface-area                                ...    1793.4929
Calculating surface distance matrix               ...        done! (  0.1s)
Performing Cholesky decomposition & store         ...        done! (  0.5s)
Overall time for CPCM initialization              ...                 0.6s
--------------
SCF ITERATIONS
--------------
ITER       Energy         Delta-E        Max-DP      RMS-DP      [F,P]     Damp
               ***  Starting incremental Fock matrix formation  ***

  HOMO= 109 E= -1.876 eV LUMO=  7.836 eV gap=   9.711 eV
  0  -1167.5227016550   0.000000000000 0.05207824  0.00083203  0.2603878 0.7000

  HOMO= 109 E= -3.348 eV LUMO=  6.724 eV gap=  10.072 eV
  1  -1167.8948870144  -0.372185359358 0.02895015  0.00061492  0.1010918 0.7000
                               ***Turning on DIIS***

  HOMO= 109 E= -4.322 eV LUMO=  5.833 eV gap=  10.155 eV
  2  -1168.0411342951  -0.146247280694 0.05198041  0.00101444  0.0298377 0.0000

  HOMO= 109 E= -4.949 eV LUMO=  5.241 eV gap=  10.190 eV
  3  -1168.2376124210  -0.196478125962 0.02313388  0.00047371  0.0528131 0.0000

  HOMO= 109 E= -4.988 eV LUMO=  5.203 eV gap=  10.191 eV
  4  -1168.3047333915  -0.067120970444 0.00746772  0.00015262  0.0101836 0.0000

  HOMO= 109 E= -4.939 eV LUMO=  5.259 eV gap=  10.198 eV
  5  -1168.3078077236  -0.003074332106 0.00312929  0.00005702  0.0093609 0.0000

  HOMO= 109 E= -4.919 eV LUMO=  5.277 eV gap=  10.195 eV
  6  -1168.3080816555  -0.000273931963 0.00122159  0.00001934  0.0027829 0.0000

  HOMO= 109 E= -4.921 eV LUMO= -1.528 eV gap=   3.392 eV
  7  -1168.3081011426  -0.000019487108 0.00072431  0.00001176  0.0005749 0.0000

  HOMO= 109 E= -4.919 eV LUMO= -1.527 eV gap=   3.392 eV
  8  -1168.3081042116  -0.000003068953 0.00026468  0.00000287  0.0003779 0.0000

  HOMO= 109 E= -4.917 eV LUMO= -1.524 eV gap=   3.392 eV
  9  -1168.3081047954  -0.000000583835 0.00017020  0.00000158  0.0002670 0.0000

  HOMO= 109 E= -4.917 eV LUMO= -1.525 eV gap=   3.392 eV
 10  -1168.3081050707  -0.000000275313 0.00006332  0.00000071  0.0001017 0.0000

  HOMO= 109 E= -4.918 eV LUMO= -1.525 eV gap=   3.392 eV
 11  -1168.3081051096  -0.000000038860 0.00002704  0.00000027  0.0000325 0.0000

  HOMO= 109 E= -4.917 eV LUMO= -1.525 eV gap=   3.392 eV
 12  -1168.3081050946   0.000000014967 0.00001213  0.00000012  0.0000169 0.0000

  HOMO= 109 E= -4.917 eV LUMO= -1.525 eV gap=   3.392 eV
 13  -1168.3081051203  -0.000000025658 0.00000612  0.00000005  0.0000083 0.0000
                 **** Energy Check signals convergence ****

               *****************************************************
               *                     SUCCESS                       *
               *           SCF CONVERGED AFTER  14 CYCLES          *
               *****************************************************


----------------
TOTAL SCF ENERGY
----------------

Total Energy       :        -1168.30810512 Eh          -31791.27978 eV

Components:
Nuclear Repulsion  :         2770.49174534 Eh           75388.91309 eV
Electronic Energy  :        -3938.79985046 Eh         -107180.19287 eV
One Electron Energy:        -7087.38752675 Eh         -192857.61929 eV
Two Electron Energy:         3148.58767629 Eh           85677.42643 eV
CPCM Dielectric    :           -0.01048756 Eh              -0.28538 eV

Virial components:
Potential Energy   :        -2330.40963921 Eh          -63413.67017 eV
Kinetic Energy     :         1162.10153408 Eh           31622.39039 eV
Virial Ratio       :            2.00534082


DFT components:
N(Alpha)           :      110.000131400761 electrons
N(Beta)            :      110.000131400761 electrons
N(Total)           :      220.000262801521 electrons
E(X)               :     -169.583589746146 Eh       
E(C)               :       -7.443014038835 Eh       
E(XC)              :     -177.026603784981 Eh       
DFET-embed. en.    :        0.000000000000 Eh       
CPCM Solvation Model Properties:
Surface-charge          :           -0.04533605
Charge-correction       :           -0.00003138 Eh              -0.00085 eV
Free-energy (cav+disp)  :  This term is not implemented in the current solvation scheme

---------------
SCF CONVERGENCE
---------------

  Last Energy change         ...   -4.2955e-09  Tolerance :   1.0000e-07
  Last MAX-Density change    ...    2.9220e-06  Tolerance :   1.0000e-05
  Last RMS-Density change    ...    2.7499e-08  Tolerance :   1.0000e-06
  Last DIIS Error            ...    3.3990e-06  Tolerance :   1.0000e-07

             **** THE GBW FILE WAS UPDATED (inpS.gbw) ****
             **** DENSITY inpS.scfp WAS UPDATED ****
             **** ENERGY FILE WAS UPDATED (inpS.en.tmp) ****
             **** THE GBW FILE WAS UPDATED (inpS.gbw) ****
             **** DENSITY inpS.scfp WAS UPDATED ****
----------------
ORBITAL ENERGIES
----------------

  NO   OCC          E(Eh)            E(eV) 
   0   2.0000     -18.905503      -514.4449 
   1   2.0000     -10.057012      -273.6652 
   2   2.0000     -10.015787      -272.5434 
   3   2.0000     -10.013382      -272.4780 
   4   2.0000     -10.013294      -272.4756 
   5   2.0000     -10.011360      -272.4229 
   6   2.0000     -10.011325      -272.4220 
   7   2.0000     -10.010740      -272.4061 
   8   2.0000     -10.010178      -272.3908 
   9   2.0000     -10.009210      -272.3644 
  10   2.0000     -10.008178      -272.3364 
  11   2.0000     -10.007740      -272.3245 
  12   2.0000     -10.006747      -272.2974 
  13   2.0000     -10.006505      -272.2909 
  14   2.0000     -10.005239      -272.2564 
  15   2.0000     -10.004673      -272.2410 
  16   2.0000     -10.004103      -272.2255 
  17   2.0000     -10.000928      -272.1391 
  18   2.0000      -9.999979      -272.1133 
  19   2.0000      -9.998611      -272.0760 
  20   2.0000      -9.998307      -272.0678 
  21   2.0000      -9.998306      -272.0677 
  22   2.0000      -9.998196      -272.0648 
  23   2.0000      -9.997610      -272.0488 
  24   2.0000      -9.996121      -272.0083 
  25   2.0000      -9.995942      -272.0034 
  26   2.0000      -9.995821      -272.0001 
  27   2.0000      -9.995619      -271.9946 
  28   2.0000      -9.994527      -271.9649 
  29   2.0000      -0.955811       -26.0089 
  30   2.0000      -0.806989       -21.9593 
  31   2.0000      -0.790956       -21.5230 
  32   2.0000      -0.770468       -20.9655 
  33   2.0000      -0.756244       -20.5785 
  34   2.0000      -0.734070       -19.9751 
  35   2.0000      -0.727373       -19.7928 
  36   2.0000      -0.708446       -19.2778 
  37   2.0000      -0.707912       -19.2633 
  38   2.0000      -0.694125       -18.8881 
  39   2.0000      -0.675288       -18.3755 
  40   2.0000      -0.656585       -17.8666 
  41   2.0000      -0.653954       -17.7950 
  42   2.0000      -0.634724       -17.2717 
  43   2.0000      -0.627858       -17.0849 
  44   2.0000      -0.623237       -16.9591 
  45   2.0000      -0.615981       -16.7617 
  46   2.0000      -0.590481       -16.0678 
  47   2.0000      -0.589298       -16.0356 
  48   2.0000      -0.557796       -15.1784 
  49   2.0000      -0.548869       -14.9355 
  50   2.0000      -0.547319       -14.8933 
  51   2.0000      -0.537430       -14.6242 
  52   2.0000      -0.526254       -14.3201 
  53   2.0000      -0.516845       -14.0641 
  54   2.0000      -0.497365       -13.5340 
  55   2.0000      -0.473337       -12.8802 
  56   2.0000      -0.466187       -12.6856 
  57   2.0000      -0.462847       -12.5947 
  58   2.0000      -0.451134       -12.2760 
  59   2.0000      -0.447293       -12.1715 
  60   2.0000      -0.431991       -11.7551 
  61   2.0000      -0.430029       -11.7017 
  62   2.0000      -0.415934       -11.3181 
  63   2.0000      -0.414760       -11.2862 
  64   2.0000      -0.413363       -11.2482 
  65   2.0000      -0.408190       -11.1074 
  66   2.0000      -0.400612       -10.9012 
  67   2.0000      -0.399841       -10.8802 
  68   2.0000      -0.395450       -10.7607 
  69   2.0000      -0.388864       -10.5815 
  70   2.0000      -0.388509       -10.5719 
  71   2.0000      -0.381201       -10.3730 
  72   2.0000      -0.380249       -10.3471 
  73   2.0000      -0.375261       -10.2114 
  74   2.0000      -0.371682       -10.1140 
  75   2.0000      -0.363385        -9.8882 
  76   2.0000      -0.359377        -9.7792 
  77   2.0000      -0.356742        -9.7074 
  78   2.0000      -0.352829        -9.6010 
  79   2.0000      -0.348622        -9.4865 
  80   2.0000      -0.346069        -9.4170 
  81   2.0000      -0.344337        -9.3699 
  82   2.0000      -0.341570        -9.2946 
  83   2.0000      -0.336886        -9.1671 
  84   2.0000      -0.335155        -9.1200 
  85   2.0000      -0.330486        -8.9930 
  86   2.0000      -0.323018        -8.7898 
  87   2.0000      -0.319903        -8.7050 
  88   2.0000      -0.315125        -8.5750 
  89   2.0000      -0.314361        -8.5542 
  90   2.0000      -0.309900        -8.4328 
  91   2.0000      -0.307451        -8.3662 
  92   2.0000      -0.303786        -8.2664 
  93   2.0000      -0.294841        -8.0230 
  94   2.0000      -0.289617        -7.8809 
  95   2.0000      -0.285500        -7.7688 
  96   2.0000      -0.284942        -7.7537 
  97   2.0000      -0.282874        -7.6974 
  98   2.0000      -0.281133        -7.6500 
  99   2.0000      -0.278767        -7.5856 
 100   2.0000      -0.275904        -7.5077 
 101   2.0000      -0.273217        -7.4346 
 102   2.0000      -0.269745        -7.3401 
 103   2.0000      -0.266185        -7.2433 
 104   2.0000      -0.260395        -7.0857 
 105   2.0000      -0.248761        -6.7691 
 106   2.0000      -0.233185        -6.3453 
 107   2.0000      -0.227183        -6.1820 
 108   2.0000      -0.212719        -5.7884 
 109   2.0000      -0.180712        -4.9174 
 110   0.0000      -0.056041        -1.5250 
 111   0.0000      -0.012981        -0.3532 
 112   0.0000      -0.005858        -0.1594 
 113   0.0000       0.030534         0.8309 
 114   0.0000       0.041836         1.1384 
 115   0.0000       0.042445         1.1550 
 116   0.0000       0.047902         1.3035 
 117   0.0000       0.049099         1.3360 
 118   0.0000       0.051709         1.4071 
 119   0.0000       0.054066         1.4712 
 120   0.0000       0.059503         1.6192 
 121   0.0000       0.066481         1.8090 
 122   0.0000       0.071471         1.9448 
 123   0.0000       0.073013         1.9868 
 124   0.0000       0.075108         2.0438 
 125   0.0000       0.077459         2.1078 
 126   0.0000       0.082433         2.2431 
 127   0.0000       0.086041         2.3413 
 128   0.0000       0.090406         2.4601 
 129   0.0000       0.091180         2.4811 
 130   0.0000       0.102160         2.7799 
 131   0.0000       0.103501         2.8164 
 132   0.0000       0.104830         2.8526 
 133   0.0000       0.107450         2.9239 
 134   0.0000       0.108139         2.9426 
 135   0.0000       0.112503         3.0614 
 136   0.0000       0.116392         3.1672 
 137   0.0000       0.119187         3.2432 
 138   0.0000       0.122152         3.3239 
 139   0.0000       0.123832         3.3696 
 140   0.0000       0.126979         3.4553 
 141   0.0000       0.129978         3.5369 
 142   0.0000       0.130456         3.5499 
 143   0.0000       0.131484         3.5779 
 144   0.0000       0.138139         3.7589 
 145   0.0000       0.139721         3.8020 
 146   0.0000       0.143513         3.9052 
 147   0.0000       0.146034         3.9738 
 148   0.0000       0.147370         4.0101 
 149   0.0000       0.148700         4.0463 
 150   0.0000       0.154340         4.1998 
 151   0.0000       0.155563         4.2331 
 152   0.0000       0.158892         4.3237 
 153   0.0000       0.163048         4.4368 
 154   0.0000       0.166774         4.5381 
 155   0.0000       0.169196         4.6040 
 156   0.0000       0.174512         4.7487 
 157   0.0000       0.177628         4.8335 
 158   0.0000       0.179204         4.8764 
 159   0.0000       0.183937         5.0052 
 160   0.0000       0.190804         5.1920 
 161   0.0000       0.194010         5.2793 
 162   0.0000       0.197248         5.3674 
 163   0.0000       0.201216         5.4754 
 164   0.0000       0.202485         5.5099 
 165   0.0000       0.204933         5.5765 
 166   0.0000       0.205491         5.5917 
 167   0.0000       0.207934         5.6582 
 168   0.0000       0.214173         5.8279 
 169   0.0000       0.216461         5.8902 
 170   0.0000       0.219856         5.9826 
 171   0.0000       0.226848         6.1728 
 172   0.0000       0.229285         6.2391 
 173   0.0000       0.230202         6.2641 
 174   0.0000       0.237190         6.4543 
 175   0.0000       0.243698         6.6314 
 176   0.0000       0.247139         6.7250 
 177   0.0000       0.256370         6.9762 
 178   0.0000       0.262053         7.1308 
 179   0.0000       0.266761         7.2589 
 180   0.0000       0.270958         7.3731 
 181   0.0000       0.284448         7.7402 
 182   0.0000       0.291829         7.9411 
 183   0.0000       0.295437         8.0393 
 184   0.0000       0.303711         8.2644 
 185   0.0000       0.332959         9.0603 
 186   0.0000       0.339030         9.2255 
 187   0.0000       0.340122         9.2552 
 188   0.0000       0.346679         9.4336 
 189   0.0000       0.352827         9.6009 
 190   0.0000       0.354902         9.6574 
 191   0.0000       0.355414         9.6713 
 192   0.0000       0.362434         9.8623 
 193   0.0000       0.369590        10.0571 
 194   0.0000       0.373072        10.1518 
 195   0.0000       0.379514        10.3271 
 196   0.0000       0.384286        10.4570 
 197   0.0000       0.390207        10.6181 
 198   0.0000       0.392943        10.6925 
 199   0.0000       0.398485        10.8433 
 200   0.0000       0.405980        11.0473 
 201   0.0000       0.408255        11.1092 
 202   0.0000       0.412993        11.2381 
 203   0.0000       0.416974        11.3464 
 204   0.0000       0.422407        11.4943 
 205   0.0000       0.429522        11.6879 
 206   0.0000       0.434554        11.8248 
 207   0.0000       0.439058        11.9474 
 208   0.0000       0.449094        12.2205 
 209   0.0000       0.450723        12.2648 
 210   0.0000       0.456889        12.4326 
 211   0.0000       0.467220        12.7137 
 212   0.0000       0.472522        12.8580 
 213   0.0000       0.477904        13.0044 
 214   0.0000       0.480091        13.0639 
 215   0.0000       0.483326        13.1520 
 216   0.0000       0.491183        13.3658 
 217   0.0000       0.493187        13.4203 
 218   0.0000       0.496473        13.5097 
 219   0.0000       0.506217        13.7749 
 220   0.0000       0.510217        13.8837 
 221   0.0000       0.515811        14.0359 
 222   0.0000       0.518995        14.1226 
 223   0.0000       0.527098        14.3431 
 224   0.0000       0.532199        14.4819 
 225   0.0000       0.535550        14.5731 
 226   0.0000       0.539196        14.6723 
 227   0.0000       0.540488        14.7074 
 228   0.0000       0.546326        14.8663 
 229   0.0000       0.549218        14.9450 
 230   0.0000       0.553332        15.0569 
 231   0.0000       0.556256        15.1365 
 232   0.0000       0.558746        15.2043 
 233   0.0000       0.562100        15.2955 
 234   0.0000       0.565943        15.4001 
 235   0.0000       0.570377        15.5208 
 236   0.0000       0.575123        15.6499 
 237   0.0000       0.576058        15.6753 
 238   0.0000       0.577536        15.7155 
 239   0.0000       0.579681        15.7739 
 240   0.0000       0.581956        15.8358 
 241   0.0000       0.583661        15.8822 
 242   0.0000       0.588603        16.0167 
 243   0.0000       0.589588        16.0435 
 244   0.0000       0.590852        16.0779 
 245   0.0000       0.593982        16.1631 
 246   0.0000       0.594890        16.1878 
 247   0.0000       0.598987        16.2993 
 248   0.0000       0.601190        16.3592 
 249   0.0000       0.606464        16.5027 
 250   0.0000       0.607638        16.5347 
 251   0.0000       0.609809        16.5937 
 252   0.0000       0.612167        16.6579 
 253   0.0000       0.613468        16.6933 
 254   0.0000       0.616980        16.7889 
 255   0.0000       0.619457        16.8563 
 256   0.0000       0.623240        16.9592 
 257   0.0000       0.628282        17.0964 
 258   0.0000       0.629456        17.1284 
 259   0.0000       0.631931        17.1957 
 260   0.0000       0.633448        17.2370 
 261   0.0000       0.634043        17.2532 
 262   0.0000       0.639832        17.4107 
 263   0.0000       0.641494        17.4559 
 264   0.0000       0.643789        17.5184 
 265   0.0000       0.647806        17.6277 
 266   0.0000       0.648325        17.6418 
 267   0.0000       0.652065        17.7436 
 268   0.0000       0.656145        17.8546 
 269   0.0000       0.657766        17.8987 
 270   0.0000       0.661041        17.9878 
 271   0.0000       0.661871        18.0104 
 272   0.0000       0.667051        18.1514 
 273   0.0000       0.669345        18.2138 
 274   0.0000       0.672569        18.3015 
 275   0.0000       0.675605        18.3841 
 276   0.0000       0.678268        18.4566 
 277   0.0000       0.681896        18.5553 
 278   0.0000       0.685368        18.6498 
 279   0.0000       0.690605        18.7923 
 280   0.0000       0.691421        18.8145 
 281   0.0000       0.694480        18.8978 
 282   0.0000       0.699607        19.0373 
 283   0.0000       0.704655        19.1746 
 284   0.0000       0.710213        19.3259 
 285   0.0000       0.713326        19.4106 
 286   0.0000       0.715313        19.4646 
 287   0.0000       0.722661        19.6646 
 288   0.0000       0.728895        19.8342 
 289   0.0000       0.735182        20.0053 
 290   0.0000       0.737997        20.0819 
 291   0.0000       0.745793        20.2941 
 292   0.0000       0.750769        20.4295 
 293   0.0000       0.758869        20.6499 
 294   0.0000       0.765846        20.8397 
 295   0.0000       0.766989        20.8708 
 296   0.0000       0.769589        20.9416 
 297   0.0000       0.779040        21.1988 
 298   0.0000       0.783668        21.3247 
 299   0.0000       0.790845        21.5200 
 300   0.0000       0.796592        21.6764 
 301   0.0000       0.809753        22.0345 
 302   0.0000       0.818654        22.2767 
 303   0.0000       0.835162        22.7259 
 304   0.0000       0.838117        22.8063 
 305   0.0000       0.850751        23.1501 
 306   0.0000       0.861109        23.4320 
 307   0.0000       0.887328        24.1454 
 308   0.0000       0.901927        24.5427 
 309   0.0000       0.915724        24.9181 
 310   0.0000       0.921831        25.0843 
 311   0.0000       0.938799        25.5460 
 312   0.0000       0.939805        25.5734 
 313   0.0000       0.953262        25.9396 
 314   0.0000       0.971393        26.4330 
 315   0.0000       0.984511        26.7899 
 316   0.0000       0.997811        27.1518 
 317   0.0000       1.016790        27.6683 
 318   0.0000       1.031957        28.0810 
 319   0.0000       1.033678        28.1278 
 320   0.0000       1.043700        28.4005 
 321   0.0000       1.059562        28.8321 
 322   0.0000       1.065968        29.0065 
 323   0.0000       1.077468        29.3194 
 324   0.0000       1.126997        30.6671 
 325   0.0000       1.131011        30.7764 
 326   0.0000       1.139662        31.0118 
 327   0.0000       1.153401        31.3856 
 328   0.0000       1.170990        31.8643 
 329   0.0000       1.183628        32.2082 
 330   0.0000       1.193604        32.4796 
 331   0.0000       1.225624        33.3509 
 332   0.0000       1.229240        33.4493 
 333   0.0000       1.241055        33.7708 
 334   0.0000       1.261158        34.3179 
 335   0.0000       1.263900        34.3925 
 336   0.0000       1.280228        34.8368 
 337   0.0000       1.282379        34.8953 
 338   0.0000       1.288877        35.0721 
 339   0.0000       1.318916        35.8895 
 340   0.0000       1.328827        36.1592 
 341   0.0000       1.336063        36.3561 
 342   0.0000       1.347283        36.6614 
 343   0.0000       1.360135        37.0112 
 344   0.0000       1.371074        37.3088 
 345   0.0000       1.375013        37.4160 
 346   0.0000       1.381000        37.5789 
 347   0.0000       1.397730        38.0342 
 348   0.0000       1.406753        38.2797 
 349   0.0000       1.414618        38.4937 
 350   0.0000       1.426339        38.8127 
 351   0.0000       1.427955        38.8566 
 352   0.0000       1.435140        39.0521 
 353   0.0000       1.452120        39.5142 
 354   0.0000       1.457538        39.6616 
 355   0.0000       1.463855        39.8335 
 356   0.0000       1.481316        40.3086 
 357   0.0000       1.496419        40.7196 
 358   0.0000       1.506914        41.0052 
 359   0.0000       1.515022        41.2258 
 360   0.0000       1.518697        41.3258 
 361   0.0000       1.523029        41.4437 
 362   0.0000       1.531320        41.6693 
 363   0.0000       1.545777        42.0627 
 364   0.0000       1.550473        42.1905 
 365   0.0000       1.559047        42.4238 
 366   0.0000       1.572022        42.7769 
 367   0.0000       1.578087        42.9419 
 368   0.0000       1.601251        43.5723 
 369   0.0000       1.605135        43.6779 
 370   0.0000       1.614707        43.9384 
 371   0.0000       1.618492        44.0414 
 372   0.0000       1.628920        44.3252 
 373   0.0000       1.636657        44.5357 
 374   0.0000       1.650824        44.9212 
 375   0.0000       1.652295        44.9612 
 376   0.0000       1.661067        45.1999 
 377   0.0000       1.674521        45.5660 
 378   0.0000       1.678392        45.6714 
 379   0.0000       1.683740        45.8169 
 380   0.0000       1.690057        45.9888 
 381   0.0000       1.691529        46.0289 
 382   0.0000       1.701114        46.2897 
 383   0.0000       1.702678        46.3322 
 384   0.0000       1.716050        46.6961 
 385   0.0000       1.720314        46.8121 
 386   0.0000       1.725552        46.9547 
 387   0.0000       1.729105        47.0513 
 388   0.0000       1.733103        47.1601 
 389   0.0000       1.737730        47.2860 
 390   0.0000       1.742133        47.4058 
 391   0.0000       1.749216        47.5986 
 392   0.0000       1.754814        47.7509 
 393   0.0000       1.766627        48.0724 
 394   0.0000       1.769949        48.1628 
 395   0.0000       1.771738        48.2114 
 396   0.0000       1.778570        48.3974 
 397   0.0000       1.783134        48.5215 
 398   0.0000       1.786322        48.6083 
 399   0.0000       1.793021        48.7906 
 400   0.0000       1.796627        48.8887 
 401   0.0000       1.799730        48.9731 
 402   0.0000       1.802882        49.0589 
 403   0.0000       1.805443        49.1286 
 404   0.0000       1.811292        49.2878 
 405   0.0000       1.818954        49.4963 
 406   0.0000       1.823580        49.6221 
 407   0.0000       1.832597        49.8675 
 408   0.0000       1.836781        49.9813 
 409   0.0000       1.852034        50.3964 
 410   0.0000       1.857843        50.5545 
 411   0.0000       1.861630        50.6575 
 412   0.0000       1.875602        51.0377 
 413   0.0000       1.881946        51.2104 
 414   0.0000       1.893534        51.5257 
 415   0.0000       1.898942        51.6728 
 416   0.0000       1.900269        51.7089 
 417   0.0000       1.902983        51.7828 
 418   0.0000       1.907353        51.9017 
 419   0.0000       1.916690        52.1558 
 420   0.0000       1.930647        52.5356 
 421   0.0000       1.936540        52.6959 
 422   0.0000       1.942265        52.8517 
 423   0.0000       1.947668        52.9987 
 424   0.0000       1.951205        53.0950 
 425   0.0000       1.951854        53.1126 
 426   0.0000       1.964395        53.4539 
 427   0.0000       1.969154        53.5834 
 428   0.0000       1.970892        53.6307 
 429   0.0000       1.978876        53.8480 
 430   0.0000       1.982085        53.9353 
 431   0.0000       1.987227        54.0752 
 432   0.0000       1.992597        54.2213 
 433   0.0000       1.995732        54.3066 
 434   0.0000       1.997964        54.3674 
 435   0.0000       2.003717        54.5239 
 436   0.0000       2.008467        54.6532 
 437   0.0000       2.013241        54.7831 
 438   0.0000       2.015477        54.8439 
 439   0.0000       2.018704        54.9317 
 440   0.0000       2.021615        55.0109 
 441   0.0000       2.032583        55.3094 
 442   0.0000       2.039444        55.4961 
 443   0.0000       2.043106        55.5957 
[...]

 --------------
 Nucleus  47H :
 --------------

Diamagnetic contribution to the shielding tensor (ppm) : 
            31.282          3.785        -0.907
             1.777         49.539        -5.969
             0.301         -5.108        41.909

Paramagnetic contribution to the shielding tensor (ppm): 
            -2.711         -3.520         1.543
            -1.482        -16.727         2.379
            -0.228          1.524        -9.443

Total shielding tensor (ppm): 
            28.571          0.266         0.636
             0.295         32.812        -3.590
             0.073         -3.584        32.466


 Diagonalized sT*s matrix:
 
 sDSO            32.081           39.224           51.425  iso=      40.910
 sPSO            -3.781           -9.905          -15.195  iso=      -9.627
        ---------------  ---------------  ---------------
 Total           28.300           29.319           36.230  iso=      31.283

 --------------
 Nucleus  48H :
 --------------

Diamagnetic contribution to the shielding tensor (ppm) : 
            35.810          0.837        -1.593
            -1.870         40.811        -8.131
            -0.944         -4.798        43.711

Paramagnetic contribution to the shielding tensor (ppm): 
            -4.198          0.094         2.001
             2.117        -13.685         4.950
             0.849          2.409       -13.081

Total shielding tensor (ppm): 
            31.612          0.931         0.408
             0.247         27.126        -3.182
            -0.095         -2.389        30.630


 Diagonalized sT*s matrix:
 
 sDSO            36.275           35.908           48.149  iso=      40.111
 sPSO           -10.744           -4.278          -15.941  iso=     -10.321
        ---------------  ---------------  ---------------
 Total           25.531           31.629           32.209  iso=      29.790

 --------------
 Nucleus  52H :
 --------------

Diamagnetic contribution to the shielding tensor (ppm) : 
            42.397          4.563        -7.521
            10.697         26.950        -8.007
           -10.949        -10.145        50.598

Paramagnetic contribution to the shielding tensor (ppm): 
           -14.078         -1.471        11.612
            -7.574         -2.615         9.368
            13.390         11.167       -24.416

Total shielding tensor (ppm): 
            28.319          3.092         4.091
             3.123         24.335         1.361
             2.441          1.023        26.182


 Diagonalized sT*s matrix:
 
 sDSO            25.327           58.782           35.836  iso=      39.982
 sPSO            -2.820          -34.496           -3.793  iso=     -13.703
        ---------------  ---------------  ---------------
 Total           22.507           24.287           32.042  iso=      26.279

 --------------
 Nucleus  53H :
 --------------

Diamagnetic contribution to the shielding tensor (ppm) : 
            46.219          8.791        -9.543
             6.220         42.273       -12.739
            -3.676        -13.855        52.010

Paramagnetic contribution to the shielding tensor (ppm): 
           -16.070         -7.969        16.512
            -5.520        -20.414        14.381
             9.561         14.611       -26.725

Total shielding tensor (ppm): 
            30.149          0.822         6.968
             0.701         21.859         1.642
             5.885          0.756        25.284


 Diagonalized sT*s matrix:
 
 sDSO            65.657           33.233           41.612  iso=      46.834
 sPSO           -45.075          -11.242           -6.892  iso=     -21.070
        ---------------  ---------------  ---------------
 Total           20.582           21.991           34.720  iso=      25.764

 --------------
 Nucleus  57H :
 --------------

Diamagnetic contribution to the shielding tensor (ppm) : 
            35.891          1.430        -3.635
            14.253         36.290         6.939
            -7.060         -2.681        43.664

Paramagnetic contribution to the shielding tensor (ppm): 
            -5.758         -1.965         2.770
           -14.590         -5.880        -3.434
             6.261          4.936       -13.602

Total shielding tensor (ppm): 
            30.133         -0.536        -0.866
            -0.337         30.410         3.504
            -0.800          2.255        30.062


 Diagonalized sT*s matrix:
 
 sDSO            36.024           39.117           40.704  iso=      38.615
 sPSO            -8.707           -9.194           -7.338  iso=      -8.413
        ---------------  ---------------  ---------------
 Total           27.317           29.923           33.366  iso=      30.202

 --------------
 Nucleus  58H :
 --------------

Diamagnetic contribution to the shielding tensor (ppm) : 
            33.977         -6.679         0.044
           -13.659         29.143        -1.393
             1.743          7.663        31.711

Paramagnetic contribution to the shielding tensor (ppm): 
            -3.475          5.649        -0.312
            12.167          1.996         3.775
            -1.905         -5.298        -0.581

Total shielding tensor (ppm): 
            30.501         -1.030        -0.268
            -1.493         31.139         2.383
            -0.163          2.365        31.130


 Diagonalized sT*s matrix:
 
 sDSO            22.318           34.966           37.547  iso=      31.610
 sPSO             6.143           -4.503           -3.701  iso=      -0.687
        ---------------  ---------------  ---------------
 Total           28.461           30.463           33.846  iso=      30.924

 --------------
 Nucleus  61H :
 --------------

Diamagnetic contribution to the shielding tensor (ppm) : 
            33.656         -1.392         1.597
            23.735         35.209        -4.338
           -11.921        -10.263        35.839

Paramagnetic contribution to the shielding tensor (ppm): 
            -3.774          0.918         0.080
           -24.046         -2.485        -0.839
            14.126          5.743        -5.932

Total shielding tensor (ppm): 
            29.882         -0.474         1.677
            -0.311         32.724        -5.177
             2.205         -4.520        29.907


 Diagonalized sT*s matrix:
 
 sDSO            28.072           39.566           37.066  iso=      34.901
 sPSO            -2.254           -9.564           -0.373  iso=      -4.064
        ---------------  ---------------  ---------------
 Total           25.817           30.002           36.694  iso=      30.838

 --------------
 Nucleus  62H :
 --------------

Diamagnetic contribution to the shielding tensor (ppm) : 
            37.427         -2.499        -5.637
             8.754         24.731         7.507
           -18.677          2.993        31.775

Paramagnetic contribution to the shielding tensor (ppm): 
            -6.010          2.142         2.498
            -9.065          3.293        -5.739
            15.807         -1.017         1.424

Total shielding tensor (ppm): 
            31.416         -0.356        -3.140
            -0.311         28.024         1.768
            -2.869          1.976        33.199


 Diagonalized sT*s matrix:
 
 sDSO            19.480           29.291           45.162  iso=      31.311
 sPSO             7.805            0.246           -9.344  iso=      -0.431
        ---------------  ---------------  ---------------
 Total           27.285           29.537           35.818  iso=      30.880

 --------------
 Nucleus  63H :
 --------------

Diamagnetic contribution to the shielding tensor (ppm) : 
            38.971          6.041         2.673
            28.793         29.075        15.497
            -8.709          6.948        19.433

Paramagnetic contribution to the shielding tensor (ppm): 
            -6.684         -0.934        -0.438
           -23.535          1.369       -16.965
            10.234         -8.382         9.070

Total shielding tensor (ppm): 
            32.288          5.108         2.234
             5.258         30.444        -1.468
             1.525         -1.434        28.503


 Diagonalized sT*s matrix:
 
 sDSO            26.228            8.663           52.588  iso=      29.160
 sPSO            -1.543           21.223          -15.924  iso=       1.252
        ---------------  ---------------  ---------------
 Total           24.685           29.886           36.664  iso=      30.412

 --------------
 Nucleus  64H :
 --------------

Diamagnetic contribution to the shielding tensor (ppm) : 
            21.921         -6.467         0.978
           -21.499         27.439       -10.936
            18.605         -4.809        37.632

Paramagnetic contribution to the shielding tensor (ppm): 
             7.630          5.136         0.740
            19.602          4.870         5.457
           -16.207         -0.371        -6.789

Total shielding tensor (ppm): 
            29.551         -1.331         1.718
            -1.896         32.309        -5.479
             2.398         -5.180        30.843


 Diagonalized sT*s matrix:
 
 sDSO            26.202           12.778           48.012  iso=      28.997
 sPSO            -0.091           16.053          -10.251  iso=       1.904
        ---------------  ---------------  ---------------
 Total           26.111           28.830           37.761  iso=      30.901

 --------------
 Nucleus  65H :
 --------------

Diamagnetic contribution to the shielding tensor (ppm) : 
            33.735          9.190        -3.976
            -6.391         32.468       -16.165
            11.222         -9.119        43.367

Paramagnetic contribution to the shielding tensor (ppm): 
            -0.748         -4.863         7.873
            11.153         -3.157        14.151
            -9.106          7.222       -14.810

Total shielding tensor (ppm): 
            32.987          4.327         3.897
             4.762         29.311        -2.013
             2.116         -1.898        28.557


 Diagonalized sT*s matrix:
 
 sDSO            24.104           51.768           33.699  iso=      36.523
 sPSO            -0.253          -21.105            2.644  iso=      -6.238
        ---------------  ---------------  ---------------
 Total           23.850           30.663           36.342  iso=      30.285

 --------------
 Nucleus  66H :
 --------------

Diamagnetic contribution to the shielding tensor (ppm) : 
            25.162         -1.261        -9.486
           -10.513         28.574        -3.734
             8.184          0.083        47.621

Paramagnetic contribution to the shielding tensor (ppm): 
             5.385          0.411         7.059
             9.763         -0.282         4.506
           -10.741          1.675       -13.320

Total shielding tensor (ppm): 
            30.547         -0.850        -2.427
            -0.750         28.292         0.772
            -2.557          1.758        34.301


 Diagonalized sT*s matrix:
 
 sDSO            27.123           30.868           43.367  iso=      33.786
 sPSO             0.859           -1.547           -7.530  iso=      -2.739
        ---------------  ---------------  ---------------
 Total           27.982           29.321           35.837  iso=      31.047

 --------------
 Nucleus  67H :
 --------------

Diamagnetic contribution to the shielding tensor (ppm) : 
            26.912         -1.574         5.555
             6.218         19.395        19.215
            10.941         11.631        25.066

Paramagnetic contribution to the shielding tensor (ppm): 
             2.720          3.246        -3.040
            -5.027         12.165       -15.285
            -9.076         -7.584         7.130

Total shielding tensor (ppm): 
            29.632          1.672         2.515
             1.191         31.560         3.930
             1.866          4.047        32.196


 Diagonalized sT*s matrix:
 
 sDSO             6.795           23.081           41.497  iso=      23.791
 sPSO            20.912            5.791           -4.688  iso=       7.338
        ---------------  ---------------  ---------------
 Total           27.707           28.871           36.809  iso=      31.129

 --------------
 Nucleus  68H :
 --------------

Diamagnetic contribution to the shielding tensor (ppm) : 
            40.628          1.678         2.609
             7.124         12.627        12.215
            -6.617          5.950        12.727

Paramagnetic contribution to the shielding tensor (ppm): 
            -5.394          1.402        -4.057
            -4.483         13.938       -15.390
             6.298         -8.047        16.498

Total shielding tensor (ppm): 
            35.234          3.080        -1.448
             2.641         26.565        -3.175
            -0.318         -2.097        29.225


 Diagonalized sT*s matrix:
 
 sDSO            19.646            8.244           38.092  iso=      21.994
 sPSO             4.903           21.759           -1.620  iso=       8.347
        ---------------  ---------------  ---------------
 Total           24.549           30.003           36.472  iso=      30.341

 --------------
 Nucleus  69H :
 --------------

Diamagnetic contribution to the shielding tensor (ppm) : 
            30.775         -6.802        12.522
           -16.280          7.664        -0.250
            16.066          0.987        18.085

Paramagnetic contribution to the shielding tensor (ppm): 
             3.025          4.037        -7.901
            14.063         21.657        -2.325
           -11.911         -4.089        11.422

Total shielding tensor (ppm): 
            33.801         -2.766         4.621
            -2.217         29.321        -2.574
             4.155         -3.102        29.507


 Diagonalized sT*s matrix:
 
 sDSO            13.368            1.363           41.792  iso=      18.841
 sPSO            12.780           27.062           -3.739  iso=      12.035
        ---------------  ---------------  ---------------
 Total           26.149           28.425           38.054  iso=      30.876

 --------------
 Nucleus  70H :
 --------------

Diamagnetic contribution to the shielding tensor (ppm) : 
            36.145         -6.276        -8.642
           -12.436         29.029        -2.268
           -10.430          2.043        32.563

Paramagnetic contribution to the shielding tensor (ppm): 
            -2.106          4.845         4.241
            10.539         -0.258         5.762
             6.352          0.427        -3.022

Total shielding tensor (ppm): 
            34.039         -1.431        -4.401
            -1.897         28.771         3.495
            -4.079          2.470        29.541


 Diagonalized sT*s matrix:
 
 sDSO            30.804           19.923           47.011  iso=      32.579
 sPSO            -5.092            9.104           -9.398  iso=      -1.795
        ---------------  ---------------  ---------------
 Total           25.712           29.026           37.613  iso=      30.784

 --------------
 Nucleus  71H :
 --------------

Diamagnetic contribution to the shielding tensor (ppm) : 
            32.515          2.692         3.768
            -5.921         41.191         6.310
             0.057          6.397        36.633

Paramagnetic contribution to the shielding tensor (ppm): 
            -0.297         -2.269        -3.496
             7.638        -11.193        -0.737
             1.160         -1.598        -7.964

Total shielding tensor (ppm): 
            32.218          0.423         0.272
             1.718         29.998         5.572
             1.216          4.799        28.669


 Diagonalized sT*s matrix:
 
 sDSO            32.431           34.620           43.288  iso=      36.779
 sPSO            -8.329           -2.973           -8.152  iso=      -6.485
        ---------------  ---------------  ---------------
 Total           24.103           31.646           35.136  iso=      30.295

 --------------
 Nucleus  72H :
 --------------

Diamagnetic contribution to the shielding tensor (ppm) : 
            28.930         -5.575         0.155
           -12.366         42.464        -8.710
            -0.512         -8.247        35.582

Paramagnetic contribution to the shielding tensor (ppm): 
             2.049          3.192         0.924
            10.581         -9.160         6.225
             0.867          6.193        -6.095

Total shielding tensor (ppm): 
            30.978         -2.383         1.079
            -1.785         33.304        -2.485
             0.356         -2.054        29.487


 Diagonalized sT*s matrix:
 
 sDSO            28.972           27.546           50.458  iso=      35.659
 sPSO            -0.571            2.384          -15.019  iso=      -4.402
        ---------------  ---------------  ---------------
 Total           28.401           29.930           35.439  iso=      31.257



--------------------------------
CHEMICAL SHIELDING SUMMARY (ppm)
--------------------------------


  Nucleus  Element    Isotropic     Anisotropy
  -------  -------  ------------   ------------
      3       H           29.639          5.421 
      4       H           29.130          5.288 
      8       H           29.573          6.408 
      9       H           29.431          7.758 
     10       H           29.631          8.806 
     11       H           30.530          6.236 
     13       H           28.188          2.744 
     16       H           26.859          5.170 
     17       H           26.524          5.006 
     19       H           25.450         10.750 
     21       H           25.700         15.104 
     24       H           28.882          9.981 
     25       H           29.973          9.363 
     27       H           30.226          7.280 
     28       H           30.149         11.740 
     30       H           29.729          7.972 
     31       H           30.394          6.799 
     33       H           29.775          3.949 
     35       H           31.119         14.847 
     37       H           30.379         10.853 
     38       H           30.306          9.558 
     40       H           29.710          9.627 
     41       H           30.751          7.701 
     42       H           30.163          7.573 
     45       H           31.052          8.323 
     46       H           31.284          9.477 
     47       H           31.283          7.421 
     48       H           29.790          3.629 
     52       H           26.279          8.646 
     53       H           25.764         13.434 
     57       H           30.202          4.746 
     58       H           30.924          4.384 
     61       H           30.838          8.784 
     62       H           30.880          7.407 
     63       H           30.412          9.378 
     64       H           30.901         10.290 
     65       H           30.285          9.086 
     66       H           31.047          7.186 
     67       H           31.129          8.520 
     68       H           30.341          9.196 
     69       H           30.876         10.767 
     70       H           30.784         10.244 
     71       H           30.295          7.261 
     72       H           31.257          6.274 



Maximum memory used throughout the entire EPRNMR-calculation: 140.6 MB

Timings for individual modules:

Sum of individual times         ...      140.448 sec (=   2.341 min)
GTO integral calculation        ...        0.876 sec (=   0.015 min)   0.6 %
SCF iterations                  ...       94.387 sec (=   1.573 min)  67.2 %
EPR/NMR calculation             ...       45.185 sec (=   0.753 min)  32.2 %
                             ****ORCA TERMINATED NORMALLY****
TOTAL RUN TIME: 0 days 0 hours 2 minutes 20 seconds 969 msec
