
                                 *****************
                                 * O   R   C   A *
                                 *****************

                                            #,                                       
                                            ###                                      
                                            ####                                     
                                            #####                                    
                                            ######                                   
                                           ########,                                 
                                     ,,################,,,,,                         
                               ,,#################################,,                 
                          ,,##########################################,,             
                       ,#########################################, ''#####,          
                    ,#############################################,,   '####,        
                  ,##################################################,,,,####,       
                ,###########''''           ''''###############################       
              ,#####''   ,,,,##########,,,,          '''####'''          '####       
            ,##' ,,,,###########################,,,                        '##       
           ' ,,###''''                  '''############,,,                           
         ,,##''                                '''############,,,,        ,,,,,,###''
      ,#''                                            '''#######################'''  
     '                                                          ''''####''''         
             ,#######,   #######,   ,#######,      ##                                
            ,#'     '#,  ##    ##  ,#'     '#,    #''#        ######   ,####,        
            ##       ##  ##   ,#'  ##            #'  '#       #        #'  '#        
            ##       ##  #######   ##           ,######,      #####,   #    #        
            '#,     ,#'  ##    ##  '#,     ,#' ,#      #,         ##   #,  ,#        
             '#######'   ##     ##  '#######'  #'      '#     #####' # '####'        



                  #######################################################
                  #                        -***-                        #
                  #          Department of theory and spectroscopy      #
                  #    Directorship and core code : Frank Neese         #
                  #        Max Planck Institute fuer Kohlenforschung    #
                  #                Kaiser Wilhelm Platz 1               #
                  #                 D-45470 Muelheim/Ruhr               #
                  #                      Germany                        #
                  #                                                     #
                  #                  All rights reserved                #
                  #                        -***-                        #
                  #######################################################


                         Program Version 5.0.2 -  RELEASE  -


 With contributions from (in alphabetic order):
   Daniel Aravena         : Magnetic Suceptibility
   Michael Atanasov       : Ab Initio Ligand Field Theory (pilot matlab implementation)
   Alexander A. Auer      : GIAO ZORA, VPT2 properties, NMR spectrum
   Ute Becker             : Parallelization
   Giovanni Bistoni       : ED, misc. LED, open-shell LED, HFLD
   Martin Brehm           : Molecular dynamics
   Dmytro Bykov           : SCF Hessian
   Vijay G. Chilkuri      : MRCI spin determinant printing, contributions to CSF-ICE
   Dipayan Datta          : RHF DLPNO-CCSD density
   Achintya Kumar Dutta   : EOM-CC, STEOM-CC
   Dmitry Ganyushin       : Spin-Orbit,Spin-Spin,Magnetic field MRCI
   Miquel Garcia          : C-PCM and meta-GGA Hessian, CC/C-PCM, Gaussian charge scheme
   Yang Guo               : DLPNO-NEVPT2, F12-NEVPT2, CIM, IAO-localization
   Andreas Hansen         : Spin unrestricted coupled pair/coupled cluster methods
   Benjamin Helmich-Paris : MC-RPA, TRAH-SCF, COSX integrals
   Lee Huntington         : MR-EOM, pCC
   Robert Izsak           : Overlap fitted RIJCOSX, COSX-SCS-MP3, EOM
   Marcus Kettner         : VPT2
   Christian Kollmar      : KDIIS, OOCD, Brueckner-CCSD(T), CCSD density, CASPT2, CASPT2-K
   Simone Kossmann        : Meta GGA functionals, TD-DFT gradient, OOMP2, MP2 Hessian
   Martin Krupicka        : Initial AUTO-CI
   Lucas Lang             : DCDCAS
   Marvin Lechner         : AUTO-CI (C++ implementation), FIC-MRCC
   Dagmar Lenk            : GEPOL surface, SMD
   Dimitrios Liakos       : Extrapolation schemes; Compound Job, initial MDCI parallelization
   Dimitrios Manganas     : Further ROCIS development; embedding schemes
   Dimitrios Pantazis     : SARC Basis sets
   Anastasios Papadopoulos: AUTO-CI, single reference methods and gradients
   Taras Petrenko         : DFT Hessian,TD-DFT gradient, ASA, ECA, R-Raman, ABS, FL, XAS/XES, NRVS
   Peter Pinski           : DLPNO-MP2, DLPNO-MP2 Gradient
   Christoph Reimann      : Effective Core Potentials
   Marius Retegan         : Local ZFS, SOC
   Christoph Riplinger    : Optimizer, TS searches, QM/MM, DLPNO-CCSD(T), (RO)-DLPNO pert. Triples
   Tobias Risthaus        : Range-separated hybrids, TD-DFT gradient, RPA, STAB
   Michael Roemelt        : Original ROCIS implementation
   Masaaki Saitow         : Open-shell DLPNO-CCSD energy and density
   Barbara Sandhoefer     : DKH picture change effects
   Avijit Sen             : IP-ROCIS
   Kantharuban Sivalingam : CASSCF convergence, NEVPT2, FIC-MRCI
   Bernardo de Souza      : ESD, SOC TD-DFT
   Georgi Stoychev        : AutoAux, RI-MP2 NMR, DLPNO-MP2 response
   Willem Van den Heuvel  : Paramagnetic NMR
   Boris Wezisla          : Elementary symmetry handling
   Frank Wennmohs         : Technical directorship


 We gratefully acknowledge several colleagues who have allowed us to
 interface, adapt or use parts of their codes:
   Stefan Grimme, W. Hujo, H. Kruse, P. Pracht,  : VdW corrections, initial TS optimization,
                  C. Bannwarth, S. Ehlert          DFT functionals, gCP, sTDA/sTD-DF
   Ed Valeev, F. Pavosevic, A. Kumar             : LibInt (2-el integral package), F12 methods
   Garnet Chan, S. Sharma, J. Yang, R. Olivares  : DMRG
   Ulf Ekstrom                                   : XCFun DFT Library
   Mihaly Kallay                                 : mrcc  (arbitrary order and MRCC methods)
   Jiri Pittner, Ondrej Demel                    : Mk-CCSD
   Frank Weinhold                                : gennbo (NPA and NBO analysis)
   Christopher J. Cramer and Donald G. Truhlar   : smd solvation model
   Lars Goerigk                                  : TD-DFT with DH, B97 family of functionals
   V. Asgeirsson, H. Jonsson                     : NEB implementation
   FAccTs GmbH                                   : IRC, NEB, NEB-TS, DLPNO-Multilevel, CI-OPT
                                                   MM, QMMM, 2- and 3-layer-ONIOM, Crystal-QMMM,
                                                   LR-CPCM, SF, NACMEs, symmetry and pop. for TD-DFT,
                                                   nearIR, NL-DFT gradient (VV10), updates on ESD,
                                                   ML-optimized integration grids
   S Lehtola, MJT Oliveira, MAL Marques          : LibXC Library
   Liviu Ungur et al                             : ANISO software


 Your calculation uses the libint2 library for the computation of 2-el integrals
 For citations please refer to: http://libint.valeyev.net

 Your ORCA version has been built with support for libXC version: 5.1.0
 For citations please refer to: https://tddft.org/programs/libxc/

 This ORCA versions uses:
   CBLAS   interface :  Fast vector & matrix operations
   LAPACKE interface :  Fast linear algebra routines
   SCALAPACK package :  Parallel linear algebra routines
   Shared memory     :  Shared parallel matrices
   BLAS/LAPACK       :  OpenBLAS 0.3.15  USE64BITINT DYNAMIC_ARCH NO_AFFINITY Zen SINGLE_THREADED
        Core in use  :  Zen
   Copyright (c) 2011-2014, The OpenBLAS Project


Your calculation utilizes the atom-pairwise dispersion correction
based on tight binding partial charges (D4)
Cite in your paper:
E.Caldeweyher, C.Bannwarth, S.Grimme, J.Chem.Phys., (2017), 147, 034112.
E.Caldeweyher, S.Ehlert, A.Hansen, H.Neugebauer, S.Grimme, J.Chem.Phys., (2018), in progress.
   

================================================================================

----- Orbital basis set information -----
Your calculation utilizes the basis: pcJ-0
   F. Jensen, Theor. Chem. Acc. 126, 371 (2010).

----- AuxJ basis set information -----
Your calculation utilizes the auxiliary basis: def2/J
   F. Weigend, Phys. Chem. Chem. Phys. 8, 1057 (2006).

================================================================================
                                        WARNINGS
                       Please study these warnings very carefully!
================================================================================


INFO   : the flag for use of the SHARK integral package has been found!

================================================================================
                                       INPUT FILE
================================================================================
NAME = inpJ
|  1> ! pbe0
|  2> ! D4
|  3> ! pcJ-0
|  4> ! def2/J RIJCOSX
|  5> ! DEFGRID2
|  6> ! scfconv7
|  7> ! smallprint printgap noloewdin
|  8> ! NOSOSCF
|  9> %MaxCore 4000
| 10> %output
| 11>        print[P_BondOrder_M] 1
| 12>        print[P_Mayer] 1
| 13>        print[P_basis] 2
| 14> end
| 15> %pal
| 16>     nprocs 4
| 17> end
| 18> ! CPCM(chloroform)
| 19> *xyz 0 1
| 20> C   -5.1502148600   0.2952668500   0.1456356600
| 21> C   -6.5246443400  -0.2036851700  -0.2335344400
| 22> C   -7.0293595900   0.4507320400  -1.5255744300
| 23> H   -7.2408970900   0.0554060700   0.5645863300
| 24> H   -6.5246590800  -1.2938069800  -0.3420204400
| 25> C   -5.0252149700   1.7684203300   0.1636922100
| 26> C   -5.5770220300   2.4574265100  -1.0637968900
| 27> C   -6.9928185300   1.9696656100  -1.4002359200
| 28> H   -4.9193541400   2.2275961000  -1.9159010800
| 29> H   -5.5653795000   3.5437427000  -0.9258905100
| 30> H   -7.3395277600   2.4261032500  -2.3348181700
| 31> H   -7.6874202300   2.2736406500  -0.6025978300
| 32> O   -8.3374801500  -0.0239238500  -1.8699992200
| 33> H   -6.3860993900   0.1381008300  -2.3600123300
| 34> C   -4.1383470300  -0.5702636300   0.3912508100
| 35> C   -4.5118512500   2.4505756700   1.1936784300
| 36> H   -4.1436850600   1.9435587300   2.0812325700
| 37> H   -4.4586189500   3.5365653500   1.1743910300
| 38> C   -2.7623165900  -0.2256453600   0.6635586800
| 39> H   -4.3868419300  -1.6291195500   0.3338312500
| 40> C   -1.7671475000  -1.0834770300   0.9759004100
| 41> H   -2.5131893300   0.8307368600   0.5929391700
| 42> C   -1.9142184800  -2.5720630700   1.1651110900
| 43> C   -0.9067968200  -3.3618998300   0.3078232100
| 44> H   -2.9307334900  -2.9185041200   0.9592776100
| 45> H   -1.7117643900  -2.7972563800   2.2245765400
| 46> C    0.5342525300  -2.8615429400   0.4776273100
| 47> H   -1.2015162700  -3.2930464500  -0.7469556400
| 48> H   -0.9606093000  -4.4239173400   0.5771319400
| 49> C    0.6484962100  -1.3518966500   0.2228770900
| 50> H    1.1898021900  -3.4300185800  -0.1902042400
| 51> H    0.8691038000  -3.0656385500   1.5058792200
| 52> C   -0.3523349800  -0.6391899700   1.1863641800
| 53> H   -0.0622949500  -0.9890167300   2.1948039800
| 54> C    0.0322482400   0.8328101200   1.0930838400
| 55> H   -8.9378383900   0.2366950300  -1.1587214800
| 56> C    1.5755215900   0.7922204300   0.9792408600
| 57> H   -0.3136795600   1.4072783300   1.9590284900
| 58> H   -0.4099923400   1.2931063500   0.2023363800
| 59> C    1.9787031900  -0.6861864500   0.6799028300
| 60> H    2.0496568700   1.1452760800   1.8987929000
| 61> H    1.9314199900   1.4488832200   0.1764259500
| 62> H    2.2493819500  -1.1797895300   1.6267278100
| 63> C    3.1889923000  -0.7703706300  -0.2604096300
| 64> C    0.3290223900  -1.0130452500  -1.2396655900
| 65> H   -0.7248650800  -1.1977995700  -1.4697066000
| 66> H    0.9333568100  -1.6204300100  -1.9217461000
| 67> H    0.5313727500   0.0388242300  -1.4651886800
| 68> H    2.9228713400  -0.2391350500  -1.1881020800
| 69> C    3.5849782300  -2.2065868800  -0.6507654700
| 70> C    4.4295786300  -0.0960222500   0.2856793600
| 71> C    4.7111434000   0.1556823000   1.5641461800
| 72> H    5.1788447600   0.1318963200  -0.4744901700
| 73> H    3.9670087800  -0.0834447600   2.3221869400
| 74> C    6.0000999600   0.7333414700   2.0964045900
| 75> C    6.8303771600   1.4416564400   1.0235675700
| 76> C    6.8256877800  -0.3569542300   2.8374681400
| 77> H    5.7246080700   1.4798638100   2.8613129800
| 78> H    7.1209317800  -1.0989065200   2.0784569200
| 79> C    6.0001335600  -1.0726712800   3.9116706000
| 80> C    8.0937813000   0.2246391400   3.4700237800
| 81> H    6.2086540200   2.1322861800   0.4446887600
| 82> H    7.2782941000   0.7230407000   0.3265080300
| 83> H    7.6419074400   2.0199435100   1.4722377400
| 84> H    6.6246066500  -1.7862536500   4.4600120500
| 85> H    5.1579331100  -1.6257273400   3.4858267200
| 86> H    5.6011280500  -0.3509399800   4.6365367000
| 87> H    7.8376478900   1.0383822000   4.1610398800
| 88> H    8.7897421900   0.6182014400   2.7241678600
| 89> H    8.6220301200  -0.5458795300   4.0423298400
| 90> H    4.5329583300  -2.2035020800  -1.2004255800
| 91> H    2.8343484700  -2.6826222500  -1.2868973700
| 92> H    3.7207918500  -2.8201312400   0.2477287600
| 93> *
| 94> %eprnmr
| 95>  Nuclei = all H { ssfc }
| 96>  SpinSpinRThresh 8.0
| 97> end
| 98> 
| 99>                          ****END OF INPUT****
================================================================================

                       ****************************
                       * Single Point Calculation *
                       ****************************

---------------------------------
CARTESIAN COORDINATES (ANGSTROEM)
---------------------------------
  C     -5.150215    0.295267    0.145636
  C     -6.524644   -0.203685   -0.233534
  C     -7.029360    0.450732   -1.525574
  H     -7.240897    0.055406    0.564586
  H     -6.524659   -1.293807   -0.342020
  C     -5.025215    1.768420    0.163692
  C     -5.577022    2.457427   -1.063797
  C     -6.992819    1.969666   -1.400236
  H     -4.919354    2.227596   -1.915901
  H     -5.565379    3.543743   -0.925891
  H     -7.339528    2.426103   -2.334818
  H     -7.687420    2.273641   -0.602598
  O     -8.337480   -0.023924   -1.869999
  H     -6.386099    0.138101   -2.360012
  C     -4.138347   -0.570264    0.391251
  C     -4.511851    2.450576    1.193678
  H     -4.143685    1.943559    2.081233
  H     -4.458619    3.536565    1.174391
  C     -2.762317   -0.225645    0.663559
  H     -4.386842   -1.629120    0.333831
  C     -1.767147   -1.083477    0.975900
  H     -2.513189    0.830737    0.592939
  C     -1.914218   -2.572063    1.165111
  C     -0.906797   -3.361900    0.307823
  H     -2.930733   -2.918504    0.959278
  H     -1.711764   -2.797256    2.224577
  C      0.534253   -2.861543    0.477627
  H     -1.201516   -3.293046   -0.746956
  H     -0.960609   -4.423917    0.577132
  C      0.648496   -1.351897    0.222877
  H      1.189802   -3.430019   -0.190204
  H      0.869104   -3.065639    1.505879
  C     -0.352335   -0.639190    1.186364
  H     -0.062295   -0.989017    2.194804
  C      0.032248    0.832810    1.093084
  H     -8.937838    0.236695   -1.158721
  C      1.575522    0.792220    0.979241
  H     -0.313680    1.407278    1.959028
  H     -0.409992    1.293106    0.202336
  C      1.978703   -0.686186    0.679903
  H      2.049657    1.145276    1.898793
  H      1.931420    1.448883    0.176426
  H      2.249382   -1.179790    1.626728
  C      3.188992   -0.770371   -0.260410
  C      0.329022   -1.013045   -1.239666
  H     -0.724865   -1.197800   -1.469707
  H      0.933357   -1.620430   -1.921746
  H      0.531373    0.038824   -1.465189
  H      2.922871   -0.239135   -1.188102
  C      3.584978   -2.206587   -0.650765
  C      4.429579   -0.096022    0.285679
  C      4.711143    0.155682    1.564146
  H      5.178845    0.131896   -0.474490
  H      3.967009   -0.083445    2.322187
  C      6.000100    0.733341    2.096405
  C      6.830377    1.441656    1.023568
  C      6.825688   -0.356954    2.837468
  H      5.724608    1.479864    2.861313
  H      7.120932   -1.098907    2.078457
  C      6.000134   -1.072671    3.911671
  C      8.093781    0.224639    3.470024
  H      6.208654    2.132286    0.444689
  H      7.278294    0.723041    0.326508
  H      7.641907    2.019944    1.472238
  H      6.624607   -1.786254    4.460012
  H      5.157933   -1.625727    3.485827
  H      5.601128   -0.350940    4.636537
  H      7.837648    1.038382    4.161040
  H      8.789742    0.618201    2.724168
  H      8.622030   -0.545880    4.042330
  H      4.532958   -2.203502   -1.200426
  H      2.834348   -2.682622   -1.286897
  H      3.720792   -2.820131    0.247729

----------------------------
CARTESIAN COORDINATES (A.U.)
----------------------------
  NO LB      ZA    FRAG     MASS         X           Y           Z
   0 C     6.0000    0    12.011   -9.732496    0.557973    0.275212
   1 C     6.0000    0    12.011  -12.329791   -0.384909   -0.441316
   2 C     6.0000    0    12.011  -13.283565    0.851760   -2.882918
   3 H     1.0000    0     1.008  -13.683312    0.104702    1.066914
   4 H     1.0000    0     1.008  -12.329819   -2.444941   -0.646325
   5 C     6.0000    0    12.011   -9.496280    3.341830    0.309333
   6 C     6.0000    0    12.011  -10.539044    4.643863   -2.010285
   7 C     6.0000    0    12.011  -13.214512    3.722129   -2.646062
   8 H     1.0000    0     1.008   -9.296232    4.209547   -3.620528
   9 H     1.0000    0     1.008  -10.517043    6.696703   -1.749679
  10 H     1.0000    0     1.008  -13.869697    4.584671   -4.412167
  11 H     1.0000    0     1.008  -14.527119    4.296558   -1.138745
  12 O     8.0000    0    15.999  -15.755554   -0.045210   -3.533786
  13 H     1.0000    0     1.008  -12.067979    0.260973   -4.459777
  14 C     6.0000    0    12.011   -7.820343   -1.077642    0.739357
  15 C     6.0000    0    12.011   -8.526163    4.630917    2.255725
  16 H     1.0000    0     1.008   -7.830430    3.672794    3.932960
  17 H     1.0000    0     1.008   -8.425569    6.683140    2.219277
  18 C     6.0000    0    12.011   -5.220022   -0.426408    1.253944
  19 H     1.0000    0     1.008   -8.289930   -3.078590    0.630850
  20 C     6.0000    0    12.011   -3.339425   -2.047475    1.844185
  21 H     1.0000    0     1.008   -4.749240    1.569865    1.120493
  22 C     6.0000    0    12.011   -3.617349   -4.860495    2.201741
  23 C     6.0000    0    12.011   -1.713598   -6.353070    0.581702
  24 H     1.0000    0     1.008   -5.538284   -5.515174    1.812772
  25 H     1.0000    0     1.008   -3.234766   -5.286048    4.203840
  26 C     6.0000    0    12.011    1.009591   -5.407532    0.902585
  27 H     1.0000    0     1.008   -2.270537   -6.222956   -1.411542
  28 H     1.0000    0     1.008   -1.815288   -8.359992    1.090621
  29 C     6.0000    0    12.011    1.225480   -2.554714    0.421177
  30 H     1.0000    0     1.008    2.248400   -6.481796   -0.359434
  31 H     1.0000    0     1.008    1.642368   -5.793217    2.845699
  32 C     6.0000    0    12.011   -0.665817   -1.207894    2.241903
  33 H     1.0000    0     1.008   -0.117720   -1.868971    4.147578
  34 C     6.0000    0    12.011    0.060940    1.573783    2.065629
  35 H     1.0000    0     1.008  -16.890067    0.447289   -2.189666
  36 C     6.0000    0    12.011    2.977304    1.497080    1.850497
  37 H     1.0000    0     1.008   -0.592768    2.659371    3.702027
  38 H     1.0000    0     1.008   -0.774773    2.443617    0.382360
  39 C     6.0000    0    12.011    3.739207   -1.296704    1.284830
  40 H     1.0000    0     1.008    3.873290    2.164258    3.588199
  41 H     1.0000    0     1.008    3.649855    2.737992    0.333397
  42 H     1.0000    0     1.008    4.250716   -2.229479    3.074070
  43 C     6.0000    0    12.011    6.026322   -1.455790   -0.492103
  44 C     6.0000    0    12.011    0.621762   -1.914378   -2.342628
  45 H     1.0000    0     1.008   -1.369796   -2.263513   -2.777343
  46 H     1.0000    0     1.008    1.763789   -3.062169   -3.631574
  47 H     1.0000    0     1.008    1.004149    0.073367   -2.768805
  48 H     1.0000    0     1.008    5.523426   -0.451900   -2.245188
  49 C     6.0000    0    12.011    6.774627   -4.169845   -1.229769
  50 C     6.0000    0    12.011    8.370690   -0.181456    0.539856
  51 C     6.0000    0    12.011    8.902771    0.294197    2.955808
  52 H     1.0000    0     1.008    9.786598    0.249248   -0.896656
  53 H     1.0000    0     1.008    7.496560   -0.157688    4.388297
  54 C     6.0000    0    12.011   11.338546    1.385815    3.961631
  55 C     6.0000    0    12.011   12.907542    2.724336    1.934262
  56 C     6.0000    0    12.011   12.898681   -0.674546    5.362038
  57 H     1.0000    0     1.008   10.817941    2.796537    5.407098
  58 H     1.0000    0     1.008   13.456611   -2.076632    3.927714
  59 C     6.0000    0    12.011   11.338609   -2.027055    7.391986
  60 C     6.0000    0    12.011   15.295030    0.424506    6.557395
  61 H     1.0000    0     1.008   11.732656    4.029437    0.840340
  62 H     1.0000    0     1.008   13.753983    1.366349    0.617011
  63 H     1.0000    0     1.008   14.441112    3.817140    2.782126
  64 H     1.0000    0     1.008   12.518692   -3.375530    8.428201
  65 H     1.0000    0     1.008    9.747081   -3.072179    6.587258
  66 H     1.0000    0     1.008   10.584598   -0.663180    8.761785
  67 H     1.0000    0     1.008   14.811008    1.962258    7.863226
  68 H     1.0000    0     1.008   16.610206    1.168231    5.147931
  69 H     1.0000    0     1.008   16.293276   -1.031563    7.638896
  70 H     1.0000    0     1.008    8.566050   -4.164015   -2.268476
  71 H     1.0000    0     1.008    5.356142   -5.069421   -2.431884
  72 H     1.0000    0     1.008    7.031278   -5.329276    0.468140

--------------------------------
INTERNAL COORDINATES (ANGSTROEM)
--------------------------------
 C      0   0   0     0.000000000000     0.00000000     0.00000000
 C      1   0   0     1.510556016336     0.00000000     0.00000000
 C      2   1   0     1.533742711176   111.71183943     0.00000000
 H      2   1   3     1.103242056864   109.36325402   241.49978661
 H      2   1   3     1.095506628483   110.70498518   122.89242354
 C      1   2   3     1.478557468323   114.14777802    50.57783531
 C      6   1   2     1.511935857820   114.41079211   311.85294861
 C      3   2   1     1.524534086607   110.36300904   305.05508405
 H      7   6   1     1.100650090407   108.37869426   290.12234344
 H      7   6   1     1.095096608891   110.23908508   172.89680203
 H      8   3   2     1.096351490805   109.70220900   179.05572440
 H      8   3   2     1.100499372651   108.64243634   296.49167916
 O      3   2   1     1.433564107172   111.18617593   180.38428528
 H      3   2   1     1.099003442818   109.00354888    65.19834935
 C      1   2   3     1.354011196079   120.95426756   232.84563564
 C      6   1   2     1.337815319950   123.35895515   129.60654637
 H     16   6   1     1.086445982245   121.40178274     0.71536208
 H     16   6   1     1.087464604770   120.95334133   181.36470288
 C     15   1   2     1.444428295170   126.41361967   175.08504737
 H     15   1   2     1.089138457918   116.19280274   357.87672349
 C     19  15   1     1.350479192008   126.44551819   176.35943836
 H     19  15   1     1.087655690740   115.95643554   355.43207989
 C     21  19  15     1.507752948287   125.75178263   356.95381355
 C     23  21  19     1.540676156004   111.87166838   127.75479629
 H     23  21  19     1.093476834766   112.32458963     3.58101181
 H     23  21  19     1.101892338285   107.72866568   246.38432765
 C     24  23  21     1.534866013332   112.65821825    50.64520597
 H     24  23  21     1.097341680860   109.09100179   288.49639719
 H     24  23  21     1.096952217102   109.12581562   172.54466421
 C     27  24  23     1.535246303992   111.84308223   306.24614859
 H     27  24  23     1.094946980075   108.98879892   182.63677206
 H     27  24  23     1.100491881597   109.18300425    66.14720448
 C     21  19  15     1.497791860345   122.69417184   177.34510987
 H     33  21  19     1.106098011588   106.37881816   124.10039203
 C     33  21  19     1.524266951651   121.07679410     1.67405190
 H     13   3   2     0.966575522330   107.49924570    62.60723781
 C     35  33  21     1.547998830700   103.33921124   195.12217149
 H     35  33  21     1.095235090735   112.23798643    73.35983931
 H     35  33  21     1.095846881388   110.70497401   313.68210417
 C     30  27  24     1.556114779522   115.82002567   166.50668398
 H     37  35  33     1.093173595549   111.22734503   251.59906477
 H     37  35  33     1.096531563892   111.20569789   133.25062652
 H     40  30  27     1.101539166100   105.71192876   322.00895712
 C     40  30  27     1.534950887937   118.07568495    82.86953051
 C     30  27  24     1.534898981617   111.08220629   294.75793061
 H     45  30  27     1.094409349587   111.31236502    67.43806445
 H     45  30  27     1.095157595965   110.86456459   307.35917877
 H     45  30  27     1.094639545819   111.71412452   187.33423635
 H     44  40  30     1.101655521747   107.39437954    62.54333223
 C     44  40  30     1.540097287623   114.15147069   303.65355363
 C     44  40  30     1.513939683340   113.62325073   180.26454152
 C     51  44  40     1.333083384503   127.09286462    22.94407608
 H     51  44  40     1.091423072166   113.84958339   198.53657856
 H     52  51  44     1.088826835327   118.80695988   356.11802198
 C     52  51  44     1.509436366750   126.21339240   174.97140540
 C     55  52  51     1.530375639197   113.15471829    18.70770233
 C     55  52  51     1.555479073183   110.66980514   252.41079814
 H     55  52  51     1.103755512180   106.86202363   137.38496962
 H     57  55  52     1.101707879730   106.62240787    65.42890407
 C     57  55  52     1.532221129893   112.05222651   307.18960202
 C     57  55  52     1.531808950617   111.71509803   183.88569337
 H     56  55  52     1.094810384154   110.76532471    48.52584491
 H     56  55  52     1.096781732716   111.33691265   288.31941449
 H     56  55  52     1.092841366409   111.09908338   168.25529046
 H     60  57  55     1.095374266950   110.37044833   183.74945921
 H     60  57  55     1.093853561322   112.21478587    63.58778383
 H     60  57  55     1.097967362602   110.58489774   302.88557750
 H     61  57  55     1.097854881975   110.37737747    57.15599866
 H     61  57  55     1.093413873055   112.45129688   296.32367516
 H     61  57  55     1.095572938221   110.35553925   176.15741316
 H     50  44  40     1.095811125383   110.30041379   188.08169130
 H     50  44  40     1.093031794728   112.15298510    68.08967598
 H     50  44  40     1.096436912188   110.24168842   306.99862984

---------------------------
INTERNAL COORDINATES (A.U.)
---------------------------
 C      0   0   0     0.000000000000     0.00000000     0.00000000
 C      1   0   0     2.854537180822     0.00000000     0.00000000
 C      2   1   0     2.898353684021   111.71183943     0.00000000
 H      2   1   3     2.084825346896   109.36325402   241.49978661
 H      2   1   3     2.070207505729   110.70498518   122.89242354
 C      1   2   3     2.794068688395   114.14777802    50.57783531
 C      6   1   2     2.857144703336   114.41079211   311.85294861
 C      3   2   1     2.880951905516   110.36300904   305.05508405
 H      7   6   1     2.079927240145   108.37869426   290.12234344
 H      7   6   1     2.069432680991   110.23908508   172.89680203
 H      8   3   2     2.071804064138   109.70220900   179.05572440
 H      8   3   2     2.079642424862   108.64243634   296.49167916
 O      3   2   1     2.709043557975   111.18617593   180.38428528
 H      3   2   1     2.076815527163   109.00354888    65.19834935
 C      1   2   3     2.558710342853   120.95426756   232.84563564
 C      6   1   2     2.528104572470   123.35895515   129.60654637
 H     16   6   1     2.053085365743   121.40178274     0.71536208
 H     16   6   1     2.055010283349   120.95334133   181.36470288
 C     15   1   2     2.729573897958   126.41361967   175.08504737
 H     15   1   2     2.058173407386   116.19280274   357.87672349
 C     19  15   1     2.552035822454   126.44551819   176.35943836
 H     19  15   1     2.055371383500   115.95643554   355.43207989
 C     21  19  15     2.849240149874   125.75178263   356.95381355
 C     23  21  19     2.911455995910   111.87166838   127.75479629
 H     23  21  19     2.066371751494   112.32458963     3.58101181
 H     23  21  19     2.082274748424   107.72866568   246.38432765
 C     24  23  21     2.900476417462   112.65821825    50.64520597
 H     24  23  21     2.073675252163   109.09100179   288.49639719
 H     24  23  21     2.072939272320   109.12581562   172.54466421
 C     27  24  23     2.901195062659   111.84308223   306.24614859
 H     27  24  23     2.069149923506   108.98879892   182.63677206
 H     27  24  23     2.079628268822   109.18300425    66.14720448
 C     21  19  15     2.830416421668   122.69417184   177.34510987
 H     33  21  19     2.090222319176   106.37881816   124.10039203
 C     33  21  19     2.880447093608   121.07679410     1.67405190
 H     13   3   2     1.826563024956   107.49924570    62.60723781
 C     35  33  21     2.925293845654   103.33921124   195.12217149
 H     35  33  21     2.069694373749   112.23798643    73.35983931
 H     35  33  21     2.070850490535   110.70497401   313.68210417
 C     30  27  24     2.940630766244   115.82002567   166.50668398
 H     37  35  33     2.065798712422   111.22734503   251.59906477
 H     37  35  33     2.072144352956   111.20569789   133.25062652
 H     40  30  27     2.081607349717   105.71192876   322.00895712
 C     40  30  27     2.900636807220   118.07568495    82.86953051
 C     30  27  24     2.900538718491   111.08220629   294.75793061
 H     45  30  27     2.068133949122   111.31236502    67.43806445
 H     45  30  27     2.069547929857   110.86456459   307.35917877
 H     45  30  27     2.068568956958   111.71412452   187.33423635
 H     44  40  30     2.081827230024   107.39437954    62.54333223
 C     44  40  30     2.910362093203   114.15147069   303.65355363
 C     44  40  30     2.860931384787   113.62325073   180.26454152
 C     51  44  40     2.519162510391   127.09286462    22.94407608
 H     51  44  40     2.062490702637   113.84958339   198.53657856
 H     52  51  44     2.057584526032   118.80695988   356.11802198
 C     52  51  44     2.852421349739   126.21339240   174.97140540
 C     55  52  51     2.891990840108   113.15471829    18.70770233
 C     55  52  51     2.939429455361   110.66980514   252.41079814
 H     55  52  51     2.085795636826   106.86202363   137.38496962
 H     57  55  52     2.081926172272   106.62240787    65.42890407
 C     57  55  52     2.895478312105   112.05222651   307.18960202
 C     57  55  52     2.894699406155   111.71509803   183.88569337
 H     56  55  52     2.068891794624   110.76532471    48.52584491
 H     56  55  52     2.072617103521   111.33691265   288.31941449
 H     56  55  52     2.065170890333   111.09908338   168.25529046
 H     60  57  55     2.069957378681   110.37044833   183.74945921
 H     60  57  55     2.067083661513   112.21478587    63.58778383
 H     60  57  55     2.074857619302   110.58489774   302.88557750
 H     61  57  55     2.074645061721   110.37737747    57.15599866
 H     61  57  55     2.066252771105   112.45129688   296.32367516
 H     61  57  55     2.070332812974   110.35553925   176.15741316
 H     50  44  40     2.070782921477   110.30041379   188.08169130
 H     50  44  40     2.065530747704   112.15298510    68.08967598
 H     50  44  40     2.071965487158   110.24168842   306.99862984

---------------------
BASIS SET INFORMATION
---------------------
There are 3 groups of distinct atoms

 Group   1 Type C   : 7s4p contracted to 4s3p pattern {4111/211}
 Group   2 Type H   : 5s contracted to 3s pattern {311}
 Group   3 Type O   : 7s4p contracted to 4s3p pattern {4111/211}

Atom   0C    basis set group =>   1
Atom   1C    basis set group =>   1
Atom   2C    basis set group =>   1
Atom   3H    basis set group =>   2
Atom   4H    basis set group =>   2
Atom   5C    basis set group =>   1
Atom   6C    basis set group =>   1
Atom   7C    basis set group =>   1
Atom   8H    basis set group =>   2
Atom   9H    basis set group =>   2
Atom  10H    basis set group =>   2
Atom  11H    basis set group =>   2
Atom  12O    basis set group =>   3
Atom  13H    basis set group =>   2
Atom  14C    basis set group =>   1
Atom  15C    basis set group =>   1
Atom  16H    basis set group =>   2
Atom  17H    basis set group =>   2
Atom  18C    basis set group =>   1
Atom  19H    basis set group =>   2
Atom  20C    basis set group =>   1
Atom  21H    basis set group =>   2
Atom  22C    basis set group =>   1
Atom  23C    basis set group =>   1
Atom  24H    basis set group =>   2
Atom  25H    basis set group =>   2
Atom  26C    basis set group =>   1
Atom  27H    basis set group =>   2
Atom  28H    basis set group =>   2
Atom  29C    basis set group =>   1
Atom  30H    basis set group =>   2
Atom  31H    basis set group =>   2
Atom  32C    basis set group =>   1
Atom  33H    basis set group =>   2
Atom  34C    basis set group =>   1
Atom  35H    basis set group =>   2
Atom  36C    basis set group =>   1
Atom  37H    basis set group =>   2
Atom  38H    basis set group =>   2
Atom  39C    basis set group =>   1
Atom  40H    basis set group =>   2
Atom  41H    basis set group =>   2
Atom  42H    basis set group =>   2
Atom  43C    basis set group =>   1
Atom  44C    basis set group =>   1
Atom  45H    basis set group =>   2
Atom  46H    basis set group =>   2
Atom  47H    basis set group =>   2
Atom  48H    basis set group =>   2
Atom  49C    basis set group =>   1
Atom  50C    basis set group =>   1
Atom  51C    basis set group =>   1
Atom  52H    basis set group =>   2
Atom  53H    basis set group =>   2
Atom  54C    basis set group =>   1
Atom  55C    basis set group =>   1
Atom  56C    basis set group =>   1
Atom  57H    basis set group =>   2
Atom  58H    basis set group =>   2
Atom  59C    basis set group =>   1
Atom  60C    basis set group =>   1
Atom  61H    basis set group =>   2
Atom  62H    basis set group =>   2
Atom  63H    basis set group =>   2
Atom  64H    basis set group =>   2
Atom  65H    basis set group =>   2
Atom  66H    basis set group =>   2
Atom  67H    basis set group =>   2
Atom  68H    basis set group =>   2
Atom  69H    basis set group =>   2
Atom  70H    basis set group =>   2
Atom  71H    basis set group =>   2
Atom  72H    basis set group =>   2

-------------------------
BASIS SET IN INPUT FORMAT
-------------------------

 # Basis set for element : H 
 NewGTO H 
 S 3 
   1    1357.7500000000      0.0012928364
   2      54.3100000000      0.0588280685
   3       4.3448000000      0.9761499708
 S 1 
   1       0.6604910000      1.0000000000
 S 1 
   1       0.1366870000      1.0000000000
  end;

 # Basis set for element : C 
 NewGTO C 
 S 4 
   1  139534.0000000000      0.0001655246
   2    5581.3600000000      0.0074486101
   3     446.5090000000      0.1285821065
   4      67.4620000000      0.9218029311
 S 1 
   1      15.0674000000      1.0000000000
 S 1 
   1       3.9387600000      1.0000000000
 S 1 
   1       0.2999150000      1.0000000000
 P 2 
   1      28.3900000000      0.0816325586
   2       4.3676900000      0.9660360576
 P 1 
   1       0.8698170000      1.0000000000
 P 1 
   1       0.1889340000      1.0000000000
  end;

 # Basis set for element : O 
 NewGTO O 
 S 4 
   1  253789.0000000000      0.0001641076
   2   10151.6000000000      0.0074010921
   3     812.1250000000      0.1277711901
   4     122.6930000000      0.9223372164
 S 1 
   1      27.5608000000      1.0000000000
 S 1 
   1       7.3172600000      1.0000000000
 S 1 
   1       0.5792400000      1.0000000000
 P 2 
   1      53.4157000000      0.0793786106
   2       8.2177900000      0.9670506337
 P 1 
   1       1.6754400000      1.0000000000
 P 1 
   1       0.3506720000      1.0000000000
  end;

---------------------------------
AUXILIARY/J BASIS SET INFORMATION
---------------------------------
There are 3 groups of distinct atoms

 Group   1 Type C   : 12s5p4d2f1g contracted to 6s4p3d1f1g pattern {711111/2111/211/2/1}
 Group   2 Type H   : 5s2p1d contracted to 3s1p1d pattern {311/2/1}
 Group   3 Type O   : 12s5p4d2f1g contracted to 6s4p3d1f1g pattern {711111/2111/211/2/1}

Atom   0C    basis set group =>   1
Atom   1C    basis set group =>   1
Atom   2C    basis set group =>   1
Atom   3H    basis set group =>   2
Atom   4H    basis set group =>   2
Atom   5C    basis set group =>   1
Atom   6C    basis set group =>   1
Atom   7C    basis set group =>   1
Atom   8H    basis set group =>   2
Atom   9H    basis set group =>   2
Atom  10H    basis set group =>   2
Atom  11H    basis set group =>   2
Atom  12O    basis set group =>   3
Atom  13H    basis set group =>   2
Atom  14C    basis set group =>   1
Atom  15C    basis set group =>   1
Atom  16H    basis set group =>   2
Atom  17H    basis set group =>   2
Atom  18C    basis set group =>   1
Atom  19H    basis set group =>   2
Atom  20C    basis set group =>   1
Atom  21H    basis set group =>   2
Atom  22C    basis set group =>   1
Atom  23C    basis set group =>   1
Atom  24H    basis set group =>   2
Atom  25H    basis set group =>   2
Atom  26C    basis set group =>   1
Atom  27H    basis set group =>   2
Atom  28H    basis set group =>   2
Atom  29C    basis set group =>   1
Atom  30H    basis set group =>   2
Atom  31H    basis set group =>   2
Atom  32C    basis set group =>   1
Atom  33H    basis set group =>   2
Atom  34C    basis set group =>   1
Atom  35H    basis set group =>   2
Atom  36C    basis set group =>   1
Atom  37H    basis set group =>   2
Atom  38H    basis set group =>   2
Atom  39C    basis set group =>   1
Atom  40H    basis set group =>   2
Atom  41H    basis set group =>   2
Atom  42H    basis set group =>   2
Atom  43C    basis set group =>   1
Atom  44C    basis set group =>   1
Atom  45H    basis set group =>   2
Atom  46H    basis set group =>   2
Atom  47H    basis set group =>   2
Atom  48H    basis set group =>   2
Atom  49C    basis set group =>   1
Atom  50C    basis set group =>   1
Atom  51C    basis set group =>   1
Atom  52H    basis set group =>   2
Atom  53H    basis set group =>   2
Atom  54C    basis set group =>   1
Atom  55C    basis set group =>   1
Atom  56C    basis set group =>   1
Atom  57H    basis set group =>   2
Atom  58H    basis set group =>   2
Atom  59C    basis set group =>   1
Atom  60C    basis set group =>   1
Atom  61H    basis set group =>   2
Atom  62H    basis set group =>   2
Atom  63H    basis set group =>   2
Atom  64H    basis set group =>   2
Atom  65H    basis set group =>   2
Atom  66H    basis set group =>   2
Atom  67H    basis set group =>   2
Atom  68H    basis set group =>   2
Atom  69H    basis set group =>   2
Atom  70H    basis set group =>   2
Atom  71H    basis set group =>   2
Atom  72H    basis set group =>   2

-------------------------------------
AUXILIARY/J BASIS SET IN INPUT FORMAT
-------------------------------------

 # Auxiliary/J basis set for element : H 
 NewAuxJGTO H 
 S 3 
   1      15.6752927000      0.1007184237
   2       3.6063578000      0.3404257499
   3       1.2080016000      0.6491996172
 S 1 
   1       0.4726794000      1.0000000000
 S 1 
   1       0.2018100000      1.0000000000
 P 2 
   1       2.0281365000      0.5596620919
   2       0.5358730000      0.5596620919
 D 1 
   1       2.2165124000      1.0000000000
  end;

 # Auxiliary/J basis set for element : C 
 NewAuxJGTO C 
 S 7 
   1    1861.0916331000      0.0134602335
   2     642.9939764000      0.0299160374
   3     235.1105725000      0.1008649584
   4      90.7028894000      0.2370970548
   5      36.7794552000      0.3924037254
   6      15.6046273000      0.3195862154
   7       6.8907294000      0.0530104441
 S 1 
   1       3.1478850000     -1.0000000000
 S 1 
   1       1.4777287000      1.0000000000
 S 1 
   1       0.7076466000      1.0000000000
 S 1 
   1       0.3430122000      1.0000000000
 S 1 
   1       0.1669453000      1.0000000000
 P 2 
   1      13.5472892000     -0.6769313712
   2       5.4669419000     -0.3779500978
 P 1 
   1       2.1751721000      1.0000000000
 P 1 
   1       0.8582194000      1.0000000000
 P 1 
   1       0.3376720000      1.0000000000
 D 2 
   1       5.9287253000     -0.3533329857
   2       1.9809209000     -0.7456525731
 D 1 
   1       0.8055417000     -1.0000000000
 D 1 
   1       0.3531244000     -1.0000000000
 F 2 
   1       1.6755626000      0.6311076882
   2       0.5997536000      0.4968166032
 G 1 
   1       1.0024600000     -1.0000000000
  end;

 # Auxiliary/J basis set for element : O 
 NewAuxJGTO O 
 S 7 
   1    2876.8216605000      0.0168151159
   2    1004.7443032000      0.0340137548
   3     369.7579954000      0.1194951309
   4     142.9442404000      0.2664627624
   5      57.8366425000      0.4202764046
   6      24.3864983000      0.2765077335
   7      10.6622662000      0.0057008815
 S 1 
   1       4.8070437000     -1.0000000000
 S 1 
   1       2.2210770000      1.0000000000
 S 1 
   1       1.0447795000      1.0000000000
 S 1 
   1       0.4968425000      1.0000000000
 S 1 
   1       0.2371384000      1.0000000000
 P 2 
   1      64.2613382000     -0.2731534179
   2      16.3006076000     -0.8168011598
 P 1 
   1       4.3550542000      1.0000000000
 P 1 
   1       1.2019554000      1.0000000000
 P 1 
   1       0.3354196000      1.0000000000
 D 2 
   1       9.2146611000     -0.4661230638
   2       2.8435251000     -0.6600908911
 D 1 
   1       0.9955759000     -1.0000000000
 D 1 
   1       0.3649441000     -1.0000000000
 F 2 
   1       2.6420115000      0.5931563945
   2       0.7345613000      0.5931563945
 G 1 
   1       1.3931000000     -1.0000000000
  end;



           ************************************************************
           *        Program running with 4 parallel MPI-processes     *
           *              working on a common directory               *
           ************************************************************
------------------------------------------------------------------------------
                           ORCA GTO INTEGRAL CALCULATION
                           -- RI-GTO INTEGRALS CHOSEN --
------------------------------------------------------------------------------
------------------------------------------------------------------------------
                   ___                                                        
                  /   \      - P O W E R E D   B Y -                         
                 /     \                                                     
                 |  |  |   _    _      __       _____    __    __             
                 |  |  |  | |  | |    /  \     |  _  \  |  |  /  |          
                  \  \/   | |  | |   /    \    | | | |  |  | /  /          
                 / \  \   | |__| |  /  /\  \   | |_| |  |  |/  /          
                |  |  |   |  __  | /  /__\  \  |    /   |      \           
                |  |  |   | |  | | |   __   |  |    \   |  |\   \          
                \     /   | |  | | |  |  |  |  | |\  \  |  | \   \       
                 \___/    |_|  |_| |__|  |__|  |_| \__\ |__|  \__/        
                                                                              
                      - O R C A' S   B I G   F R I E N D -                    
                                      &                                       
                       - I N T E G R A L  F E E D E R -                       
                                                                              
 v1 FN, 2020, v2 2021                                                         
------------------------------------------------------------------------------


Reading SHARK input file inpJ.SHARKINP.tmp ... ok
----------------------
SHARK INTEGRAL PACKAGE
----------------------

Number of atoms                             ...     73
Number of basis functions                   ...    509
Number of shells                            ...    335
Maximum angular momentum                    ...      1
Integral batch strategy                     ... SHARK/LIBINT Hybrid
RI-J (if used) integral strategy            ... SPLIT-RIJ (Revised 2003 algorithm where possible)
Printlevel                                  ...      1
Contraction scheme used                     ... SEGMENTED contraction
Coulomb Range Separation                    ... NOT USED
Exchange Range Separation                   ... NOT USED
Finite Nucleus Model                        ... NOT USED
Auxiliary Coulomb fitting basis             ... AVAILABLE
   # of basis functions in Aux-J            ...   1905
   # of shells in Aux-J                     ...    655
   Maximum angular momentum in Aux-J        ...      4
Auxiliary J/K fitting basis                 ... NOT available
Auxiliary Correlation fitting basis         ... NOT available
Auxiliary 'external' fitting basis          ... NOT available
Integral threshold                          ...     3.000000e-11
Primitive cut-off                           ...     1.000000e-12
Primitive pair pre-selection threshold      ...     1.000000e-12

Calculating pre-screening integrals         ... done (  0.0 sec) Dimension = 335
Organizing shell pair data                  ... done (  0.1 sec)
Shell pair information
Total number of shell pairs                 ...     56280
Shell pairs after pre-screening             ...     21797
Total number of primitive shell pairs       ...    145865
Primitive shell pairs kept                  ...     37478
          la=0 lb=0:  10981 shell pairs
          la=1 lb=0:   8951 shell pairs
          la=1 lb=1:   1865 shell pairs

Calculating one electron integrals          ... done (  0.0 sec)
Calculating RI/J V-Matrix + Cholesky decomp.... done (  0.2 sec)
Calculating Nuclear repulsion               ... done (  0.0 sec) ENN=   2770.491745335373 Eh

SHARK setup successfully completed in   0.4 seconds

Maximum memory used throughout the entire GTOINT-calculation: 46.3 MB


           ************************************************************
           *        Program running with 4 parallel MPI-processes     *
           *              working on a common directory               *
           ************************************************************
-------------------------------------------------------------------------------
                                 ORCA SCF
-------------------------------------------------------------------------------

------------
SCF SETTINGS
------------
Hamiltonian:
 Density Functional     Method          .... DFT(GTOs)
 Exchange Functional    Exchange        .... PBE
   PBE kappa parameter   XKappa         ....  0.804000
   PBE mue parameter    XMuePBE         ....  0.219520
 Correlation Functional Correlation     .... PBE
   PBE beta parameter  CBetaPBE         ....  0.066725
 LDA part of GGA corr.  LDAOpt          .... PW91-LDA
 Gradients option       PostSCFGGA      .... off
 Hybrid DFT is turned on
   Fraction HF Exchange ScalHFX         ....  0.250000
   Scaling of DF-GGA-X  ScalDFX         ....  0.750000
   Scaling of DF-GGA-C  ScalDFC         ....  1.000000
   Scaling of DF-LDA-C  ScalLDAC        ....  1.000000
   Perturbative correction              ....  0.000000
   Density functional embedding theory  .... OFF
   NL short-range parameter             ....  6.900000
 RI-approximation to the Coulomb term is turned on
   Number of AuxJ basis functions       .... 1905
   RIJ-COSX (HFX calculated with COS-X)).... on


General Settings:
 Integral files         IntName         .... inpJ
 Hartree-Fock type      HFTyp           .... RHF
 Total Charge           Charge          ....    0
 Multiplicity           Mult            ....    1
 Number of Electrons    NEL             ....  220
 Basis Dimension        Dim             ....  509
 Nuclear Repulsion      ENuc            ....   2770.4917453354 Eh

Convergence Acceleration:
 DIIS                   CNVDIIS         .... on
   Start iteration      DIISMaxIt       ....    12
   Startup error        DIISStart       ....  0.200000
   # of expansion vecs  DIISMaxEq       ....     5
   Bias factor          DIISBfac        ....   1.050
   Max. coefficient     DIISMaxC        ....  10.000
 Trust-Rad. Augm. Hess. CNVTRAH         .... auto
   Auto Start mean grad. ratio tolernc. ....  1.125000
   Auto Start start iteration           ....    20
   Auto Start num. interpolation iter.  ....    10
   Max. Number of Micro iterations      ....    16
   Max. Number of Macro iterations      .... Maxiter - #DIIS iter
   Number of Davidson start vectors     ....     2
   Converg. threshold I  (grad. norm)   ....   1.000e-04
   Converg. threshold II (energy diff.) ....   1.000e-07
   Grad. Scal. Fac. for Micro threshold ....   0.100
   Minimum threshold for Micro iter.    ....   0.010
   NR start threshold (gradient norm)   ....   0.001
   Initial trust radius                 ....   0.400
   Minimum AH scaling param. (alpha)    ....   1.000
   Maximum AH scaling param. (alpha)    .... 1000.000
   Orbital update algorithm             .... Taylor
   White noise on init. David. guess    .... on
   Maximum white noise                  ....   0.010
   Quad. conv. algorithm                .... NR
 SOSCF                  CNVSOSCF        .... off
 Level Shifting         CNVShift        .... on
   Level shift para.    LevelShift      ....    0.2500
   Turn off err/grad.   ShiftErr        ....    0.0010
 Zerner damping         CNVZerner       .... off
 Static damping         CNVDamp         .... on
   Fraction old density DampFac         ....    0.7000
   Max. Damping (<1)    DampMax         ....    0.9800
   Min. Damping (>=0)   DampMin         ....    0.0000
   Turn off err/grad.   DampErr         ....    0.1000
 Fernandez-Rico         CNVRico         .... off

SCF Procedure:
 Maximum # iterations   MaxIter         ....   125
 SCF integral mode      SCFMode         .... Direct
   Integral package                     .... SHARK and LIBINT hybrid scheme
 Reset frequency        DirectResetFreq ....    20
 Integral Threshold     Thresh          ....  3.000e-11 Eh
 Primitive CutOff       TCut            ....  1.000e-12 Eh

Convergence Tolerance:
 Convergence Check Mode ConvCheckMode   .... Total+1el-Energy
 Convergence forced     ConvForced      .... 0
 Energy Change          TolE            ....  1.000e-07 Eh
 1-El. energy change                    ....  1.000e-04 Eh
 DIIS Error             TolErr          ....  1.000e-07


Diagonalization of the overlap matrix:
Smallest eigenvalue                        ... 7.556e-03
Time for diagonalization                   ...    0.037 sec
Threshold for overlap eigenvalues          ... 1.000e-08
Number of eigenvalues below threshold      ... 0
Time for construction of square roots      ...    0.023 sec
Total time needed                          ...    0.061 sec

Time for model grid setup =    0.755 sec

------------------------------
INITIAL GUESS: MODEL POTENTIAL
------------------------------
Loading Hartree-Fock densities                     ... done
Calculating cut-offs                               ... done
Initializing the effective Hamiltonian             ... done
Setting up the integral package (SHARK)            ... done
Starting the Coulomb interaction                   ... done (   0.5 sec)
Reading the grid                                   ... done
Mapping shells                                     ... done
Starting the XC term evaluation                    ... done (   0.2 sec)
  promolecular density results
     # of electrons  =    219.981870277
     EX              =   -164.433298977
     EC              =     -7.327172441
     EX+EC           =   -171.760471417
Transforming the Hamiltonian                       ... done (   0.0 sec)
Diagonalizing the Hamiltonian                      ... done (   0.0 sec)
Back transforming the eigenvectors                 ... done (   0.0 sec)
Now organizing SCF variables                       ... done
                      ------------------
                      INITIAL GUESS DONE (   1.5 sec)
                      ------------------
-------------------
DFT GRID GENERATION
-------------------

General Integration Accuracy     IntAcc      ... 4.388
Radial Grid Type                 RadialGrid  ... OptM3 with GC (2021)
Angular Grid (max. ang.)         AngularGrid ... 4 (Lebedev-302)
Angular grid pruning method      GridPruning ... 4 (adaptive)
Weight generation scheme         WeightScheme... Becke
Basis function cutoff            BFCut       ... 1.0000e-11
Integration weight cutoff        WCut        ... 1.0000e-14
Angular grids for H and He will be reduced by one unit
Partially contracted basis set               ... off
Rotationally invariant grid construction     ... off

Total number of grid points                  ...   309941
Total number of batches                      ...     4882
Average number of points per batch           ...       63
Average number of grid points per atom       ...     4246
Time for grid setup =    3.228 sec

--------------------
COSX GRID GENERATION
--------------------

GRIDX 1
-------
General Integration Accuracy     IntAcc      ... 3.816
Radial Grid Type                 RadialGrid  ... OptM3 with GC (2021)
Angular Grid (max. ang.)         AngularGrid ... 1 (Lebedev-50)
Angular grid pruning method      GridPruning ... 4 (adaptive)
Weight generation scheme         WeightScheme... Becke
Basis function cutoff            BFCut       ... 1.0000e-11
Integration weight cutoff        WCut        ... 1.0000e-14
Angular grids for H and He will be reduced by one unit
Partially contracted basis set               ... on
Rotationally invariant grid construction     ... off

Total number of grid points                  ...    39390
Total number of batches                      ...      656
Average number of points per batch           ...       60
Average number of grid points per atom       ...      540
UseSFitting                                  ... on

GRIDX 2
-------
General Integration Accuracy     IntAcc      ... 4.020
Radial Grid Type                 RadialGrid  ... OptM3 with GC (2021)
Angular Grid (max. ang.)         AngularGrid ... 2 (Lebedev-110)
Angular grid pruning method      GridPruning ... 4 (adaptive)
Weight generation scheme         WeightScheme... Becke
Basis function cutoff            BFCut       ... 1.0000e-11
Integration weight cutoff        WCut        ... 1.0000e-14
Angular grids for H and He will be reduced by one unit
Partially contracted basis set               ... on
Rotationally invariant grid construction     ... off

Total number of grid points                  ...    81384
Total number of batches                      ...     1307
Average number of points per batch           ...       62
Average number of grid points per atom       ...     1115
UseSFitting                                  ... on

GRIDX 3
-------
General Integration Accuracy     IntAcc      ... 4.338
Radial Grid Type                 RadialGrid  ... OptM3 with GC (2021)
Angular Grid (max. ang.)         AngularGrid ... 3 (Lebedev-194)
Angular grid pruning method      GridPruning ... 4 (adaptive)
Weight generation scheme         WeightScheme... Becke
Basis function cutoff            BFCut       ... 1.0000e-11
Integration weight cutoff        WCut        ... 1.0000e-14
Angular grids for H and He will be reduced by one unit
Partially contracted basis set               ... on
Rotationally invariant grid construction     ... off

Total number of grid points                  ...   176337
Total number of batches                      ...     2793
Average number of points per batch           ...       63
Average number of grid points per atom       ...     2416
UseSFitting                                  ... on

Time for X-Grid setup             =    2.755 sec


--------------------
CPCM SOLVATION MODEL
--------------------
CPCM parameters:
  Epsilon                                         ...       4.9000
  Refrac                                          ...       1.4500
  Rsolv                                           ...       1.3000
  Surface type                                    ... GAUSSIAN VDW
  Epsilon function type                           ...         CPCM
Radii:
 Radius for C  used is    3.8550 Bohr (=   2.0400 Ang.)
 Radius for H  used is    2.4944 Bohr (=   1.3200 Ang.)
 Radius for O  used is    3.4469 Bohr (=   1.8240 Ang.)
Calculating surface                               ...        done! (  0.0s)
GEPOL surface points                              ...         3638
GEPOL Volume                                      ...    3601.7984
GEPOL Surface-area                                ...    1793.4929
Calculating surface distance matrix               ...        done! (  0.1s)
Performing Cholesky decomposition & store         ...        done! (  0.5s)
Overall time for CPCM initialization              ...                 0.6s
--------------
SCF ITERATIONS
--------------
ITER       Energy         Delta-E        Max-DP      RMS-DP      [F,P]     Damp
               ***  Starting incremental Fock matrix formation  ***

  HOMO= 109 E= -3.893 eV LUMO=  7.794 eV gap=  11.687 eV
  0  -1165.0071013178   0.000000000000 0.09761578  0.00105947  0.1924004 0.7000

  HOMO= 109 E= -4.738 eV LUMO=  7.098 eV gap=  11.836 eV
  1  -1165.2250248615  -0.217923543689 0.06548988  0.00078069  0.0933230 0.7000
                               ***Turning on DIIS***

  HOMO= 109 E= -5.336 eV LUMO=  6.541 eV gap=  11.877 eV
  2  -1165.3257696014  -0.100744739852 0.10379415  0.00138625  0.0376791 0.0000

  HOMO= 109 E= -5.902 eV LUMO=  5.999 eV gap=  11.901 eV
  3  -1165.4698198127  -0.144050211331 0.05153658  0.00056766  0.0452426 0.0000

  HOMO= 109 E= -5.982 eV LUMO=  5.919 eV gap=  11.901 eV
  4  -1165.5052305678  -0.035410755059 0.01168970  0.00013453  0.0062839 0.0000

  HOMO= 109 E= -5.929 eV LUMO=  5.979 eV gap=  11.908 eV
  5  -1165.5060966692  -0.000866101433 0.00284717  0.00003818  0.0044325 0.0000

  HOMO= 109 E= -5.915 eV LUMO=  5.993 eV gap=  11.908 eV
  6  -1165.5061722532  -0.000075584054 0.00116302  0.00001159  0.0010627 0.0000

  HOMO= 109 E= -5.917 eV LUMO= -0.811 eV gap=   5.106 eV
  7  -1165.5061768231  -0.000004569843 0.00051354  0.00000592  0.0002343 0.0000
               *** Restarting incremental Fock matrix formation ***
                                   *** Resetting DIIS ***

  HOMO= 109 E= -5.916 eV LUMO= -0.810 eV gap=   5.107 eV
  8  -1165.5062637795  -0.000086956363 0.00039698  0.00000281  0.0001112 0.0000

  HOMO= 109 E= -5.917 eV LUMO= -0.810 eV gap=   5.107 eV
  9  -1165.5062638254  -0.000000045901 0.00012957  0.00000123  0.0001477 0.0000

  HOMO= 109 E= -5.917 eV LUMO= -0.810 eV gap=   5.107 eV
 10  -1165.5062639378  -0.000000112450 0.00006003  0.00000038  0.0000352 0.0000

  HOMO= 109 E= -5.917 eV LUMO= -0.810 eV gap=   5.107 eV
 11  -1165.5062639705  -0.000000032741 0.00002419  0.00000016  0.0000204 0.0000

  HOMO= 109 E= -5.917 eV LUMO= -0.810 eV gap=   5.107 eV
 12  -1165.5062639513   0.000000019201 0.00000687  0.00000004  0.0000034 0.0000
                 **** Energy Check signals convergence ****

               *****************************************************
               *                     SUCCESS                       *
               *           SCF CONVERGED AFTER  13 CYCLES          *
               *****************************************************

Old exchange energy                            =    -42.067524234 Eh
New exchange energy                            =    -42.067563517 Eh
Exchange energy change after final integration =     -0.000039283 Eh
Total energy after final integration           =  -1165.506303250 Eh
Final COS-X integration done in                =    14.720 sec

----------------
TOTAL SCF ENERGY
----------------

Total Energy       :        -1165.50630325 Eh          -31715.03887 eV

Components:
Nuclear Repulsion  :         2770.49174534 Eh           75388.91309 eV
Electronic Energy  :        -3935.99804859 Eh         -107103.95196 eV
One Electron Energy:        -7083.05111830 Eh         -192739.61962 eV
Two Electron Energy:         3147.05306972 Eh           85635.66766 eV
Max COSX asymmetry :            0.00000201 Eh               0.00005 eV
CPCM Dielectric    :           -0.01551591 Eh              -0.42221 eV

Virial components:
Potential Energy   :        -2322.40643356 Eh          -63195.89187 eV
Kinetic Energy     :         1156.90013031 Eh           31480.85300 eV
Virial Ratio       :            2.00743899


DFT components:
N(Alpha)           :      110.000211005014 electrons
N(Beta)            :      110.000211005014 electrons
N(Total)           :      220.000422010028 electrons
E(X)               :     -125.745658549344 Eh       
E(C)               :       -7.327658533843 Eh       
E(XC)              :     -133.073317083187 Eh       
DFET-embed. en.    :        0.000000000000 Eh       
CPCM Solvation Model Properties:
Surface-charge          :           -0.03438741
Charge-correction       :           -0.00005953 Eh              -0.00162 eV
Free-energy (cav+disp)  :  This term is not implemented in the current solvation scheme

---------------
SCF CONVERGENCE
---------------

  Last Energy change         ...   -1.5920e-08  Tolerance :   1.0000e-07
  Last MAX-Density change    ...    0.0000e+00  Tolerance :   1.0000e-05
  Last RMS-Density change    ...    0.0000e+00  Tolerance :   1.0000e-06
  Last DIIS Error            ...    2.2695e-06  Tolerance :   1.0000e-07

             **** THE GBW FILE WAS UPDATED (inpJ.gbw) ****
             **** DENSITY inpJ.scfp WAS UPDATED ****
             **** ENERGY FILE WAS UPDATED (inpJ.en.tmp) ****
             **** THE GBW FILE WAS UPDATED (inpJ.gbw) ****
             **** DENSITY inpJ.scfp WAS UPDATED ****
----------------
ORBITAL ENERGIES
----------------

  NO   OCC          E(Eh)            E(eV) 
   0   2.0000     -19.214897      -522.8639 
   1   2.0000     -10.301240      -280.3110 
   2   2.0000     -10.269314      -279.4422 
   3   2.0000     -10.266564      -279.3674 
   4   2.0000     -10.261482      -279.2291 
   5   2.0000     -10.256035      -279.0809 
   6   2.0000     -10.253223      -279.0044 
   7   2.0000     -10.251392      -278.9546 
   8   2.0000     -10.251229      -278.9501 
   9   2.0000     -10.250261      -278.9238 
  10   2.0000     -10.249097      -278.8921 
  11   2.0000     -10.245947      -278.8064 
  12   2.0000     -10.244811      -278.7755 
  13   2.0000     -10.243771      -278.7472 
  14   2.0000     -10.243733      -278.7462 
  15   2.0000     -10.243232      -278.7325 
  16   2.0000     -10.242836      -278.7217 
  17   2.0000     -10.241822      -278.6941 
  18   2.0000     -10.241286      -278.6796 
  19   2.0000     -10.240927      -278.6698 
  20   2.0000     -10.238978      -278.6168 
  21   2.0000     -10.233287      -278.4619 
  22   2.0000     -10.233198      -278.4595 
  23   2.0000     -10.232217      -278.4328 
  24   2.0000     -10.226668      -278.2818 
  25   2.0000     -10.224610      -278.2258 
  26   2.0000     -10.224541      -278.2239 
  27   2.0000     -10.224431      -278.2209 
  28   2.0000     -10.219819      -278.0954 
  29   2.0000      -1.045717       -28.4554 
  30   2.0000      -0.900427       -24.5019 
  31   2.0000      -0.883498       -24.0412 
  32   2.0000      -0.859822       -23.3970 
  33   2.0000      -0.845169       -22.9982 
  34   2.0000      -0.821764       -22.3613 
  35   2.0000      -0.813480       -22.1359 
  36   2.0000      -0.794741       -21.6260 
  37   2.0000      -0.794550       -21.6208 
  38   2.0000      -0.777220       -21.1492 
  39   2.0000      -0.757210       -20.6047 
  40   2.0000      -0.738782       -20.1033 
  41   2.0000      -0.732984       -19.9455 
  42   2.0000      -0.713529       -19.4161 
  43   2.0000      -0.702173       -19.1071 
  44   2.0000      -0.699215       -19.0266 
  45   2.0000      -0.693340       -18.8667 
  46   2.0000      -0.668667       -18.1953 
  47   2.0000      -0.663050       -18.0425 
  48   2.0000      -0.631335       -17.1795 
  49   2.0000      -0.621600       -16.9146 
  50   2.0000      -0.619226       -16.8500 
  51   2.0000      -0.608261       -16.5516 
  52   2.0000      -0.596491       -16.2314 
  53   2.0000      -0.586881       -15.9698 
  54   2.0000      -0.566842       -15.4246 
  55   2.0000      -0.541591       -14.7375 
  56   2.0000      -0.530998       -14.4492 
  57   2.0000      -0.528398       -14.3784 
  58   2.0000      -0.514829       -14.0092 
  59   2.0000      -0.511165       -13.9095 
  60   2.0000      -0.498524       -13.5655 
  61   2.0000      -0.492408       -13.3991 
  62   2.0000      -0.480408       -13.0726 
  63   2.0000      -0.477194       -12.9851 
  64   2.0000      -0.475717       -12.9449 
  65   2.0000      -0.468968       -12.7613 
  66   2.0000      -0.463871       -12.6226 
  67   2.0000      -0.460521       -12.5314 
  68   2.0000      -0.456721       -12.4280 
  69   2.0000      -0.449912       -12.2427 
  70   2.0000      -0.448034       -12.1916 
  71   2.0000      -0.440476       -11.9859 
  72   2.0000      -0.439099       -11.9485 
  73   2.0000      -0.432367       -11.7653 
  74   2.0000      -0.430011       -11.7012 
  75   2.0000      -0.418221       -11.3804 
  76   2.0000      -0.416297       -11.3280 
  77   2.0000      -0.414689       -11.2843 
  78   2.0000      -0.406616       -11.0646 
  79   2.0000      -0.403672       -10.9845 
  80   2.0000      -0.401199       -10.9172 
  81   2.0000      -0.399301       -10.8655 
  82   2.0000      -0.394603       -10.7377 
  83   2.0000      -0.389846       -10.6082 
  84   2.0000      -0.388751       -10.5784 
  85   2.0000      -0.384715       -10.4686 
  86   2.0000      -0.377875       -10.2825 
  87   2.0000      -0.368894       -10.0381 
  88   2.0000      -0.367124        -9.9899 
  89   2.0000      -0.365562        -9.9475 
  90   2.0000      -0.361432        -9.8351 
  91   2.0000      -0.360651        -9.8138 
  92   2.0000      -0.354178        -9.6377 
  93   2.0000      -0.343939        -9.3591 
  94   2.0000      -0.340798        -9.2736 
  95   2.0000      -0.337256        -9.1772 
  96   2.0000      -0.336426        -9.1546 
  97   2.0000      -0.332144        -9.0381 
  98   2.0000      -0.330935        -9.0052 
  99   2.0000      -0.327843        -8.9211 
 100   2.0000      -0.326084        -8.8732 
 101   2.0000      -0.325057        -8.8452 
 102   2.0000      -0.316788        -8.6202 
 103   2.0000      -0.314869        -8.5680 
 104   2.0000      -0.310627        -8.4526 
 105   2.0000      -0.299524        -8.1505 
 106   2.0000      -0.279729        -7.6118 
 107   2.0000      -0.274559        -7.4711 
 108   2.0000      -0.255285        -6.9467 
 109   2.0000      -0.217439        -5.9168 
 110   0.0000      -0.029768        -0.8100 
 111   0.0000       0.021552         0.5865 
 112   0.0000       0.028044         0.7631 
 113   0.0000       0.080905         2.2015 
 114   0.0000       0.091059         2.4779 
 115   0.0000       0.102137         2.7793 
 116   0.0000       0.105684         2.8758 
 117   0.0000       0.107184         2.9166 
 118   0.0000       0.108465         2.9515 
 119   0.0000       0.118621         3.2279 
 120   0.0000       0.119230         3.2444 
 121   0.0000       0.123487         3.3603 
 122   0.0000       0.125484         3.4146 
 123   0.0000       0.130510         3.5514 
 124   0.0000       0.132312         3.6004 
 125   0.0000       0.139069         3.7843 
 126   0.0000       0.139955         3.8084 
 127   0.0000       0.142992         3.8910 
 128   0.0000       0.146270         3.9802 
 129   0.0000       0.154088         4.1929 
 130   0.0000       0.158263         4.3066 
 131   0.0000       0.161326         4.3899 
 132   0.0000       0.162817         4.4305 
 133   0.0000       0.163965         4.4617 
 134   0.0000       0.166246         4.5238 
 135   0.0000       0.166616         4.5339 
 136   0.0000       0.172868         4.7040 
 137   0.0000       0.174459         4.7473 
 138   0.0000       0.175062         4.7637 
 139   0.0000       0.179308         4.8792 
 140   0.0000       0.184023         5.0075 
 141   0.0000       0.185527         5.0484 
 142   0.0000       0.186179         5.0662 
 143   0.0000       0.189315         5.1515 
 144   0.0000       0.190182         5.1751 
 145   0.0000       0.196098         5.3361 
 146   0.0000       0.197975         5.3872 
 147   0.0000       0.201887         5.4936 
 148   0.0000       0.202316         5.5053 
 149   0.0000       0.205184         5.5833 
 150   0.0000       0.208538         5.6746 
 151   0.0000       0.217422         5.9163 
 152   0.0000       0.222464         6.0536 
 153   0.0000       0.225447         6.1347 
 154   0.0000       0.228993         6.2312 
 155   0.0000       0.235635         6.4120 
 156   0.0000       0.243896         6.6368 
 157   0.0000       0.247158         6.7255 
 158   0.0000       0.247651         6.7389 
 159   0.0000       0.254042         6.9128 
 160   0.0000       0.258536         7.0351 
 161   0.0000       0.260047         7.0763 
 162   0.0000       0.264468         7.1965 
 163   0.0000       0.266301         7.2464 
 164   0.0000       0.270182         7.3520 
 165   0.0000       0.273108         7.4316 
 166   0.0000       0.277170         7.5422 
 167   0.0000       0.282873         7.6974 
 168   0.0000       0.285397         7.7661 
 169   0.0000       0.292630         7.9629 
 170   0.0000       0.294976         8.0267 
 171   0.0000       0.297876         8.1056 
 172   0.0000       0.303856         8.2684 
 173   0.0000       0.306291         8.3346 
 174   0.0000       0.315905         8.5962 
 175   0.0000       0.322610         8.7787 
 176   0.0000       0.327775         8.9192 
 177   0.0000       0.332434         9.0460 
 178   0.0000       0.350766         9.5448 
 179   0.0000       0.356307         9.6956 
 180   0.0000       0.366819         9.9816 
 181   0.0000       0.378639        10.3033 
 182   0.0000       0.383639        10.4393 
 183   0.0000       0.410888        11.1808 
 184   0.0000       0.418389        11.3849 
 185   0.0000       0.464028        12.6268 
 186   0.0000       0.485491        13.2109 
 187   0.0000       0.498083        13.5535 
 188   0.0000       0.506636        13.7863 
 189   0.0000       0.521511        14.1910 
 190   0.0000       0.524618        14.2756 
 191   0.0000       0.531133        14.4529 
 192   0.0000       0.542648        14.7662 
 193   0.0000       0.556697        15.1485 
 194   0.0000       0.563584        15.3359 
 195   0.0000       0.572946        15.5907 
 196   0.0000       0.578530        15.7426 
 197   0.0000       0.582335        15.8461 
 198   0.0000       0.590548        16.0696 
 199   0.0000       0.606362        16.5000 
 200   0.0000       0.609503        16.5854 
 201   0.0000       0.623556        16.9678 
 202   0.0000       0.626365        17.0443 
 203   0.0000       0.637560        17.3489 
 204   0.0000       0.640374        17.4255 
 205   0.0000       0.645021        17.5519 
 206   0.0000       0.648652        17.6507 
 207   0.0000       0.654160        17.8006 
 208   0.0000       0.661555        18.0018 
 209   0.0000       0.665484        18.1087 
 210   0.0000       0.673006        18.3134 
 211   0.0000       0.679649        18.4942 
 212   0.0000       0.692329        18.8392 
 213   0.0000       0.694785        18.9061 
 214   0.0000       0.701443        19.0872 
 215   0.0000       0.710577        19.3358 
 216   0.0000       0.711862        19.3708 
 217   0.0000       0.717570        19.5261 
 218   0.0000       0.725464        19.7409 
 219   0.0000       0.727220        19.7887 
 220   0.0000       0.730032        19.8652 
 221   0.0000       0.735394        20.0111 
 222   0.0000       0.738911        20.1068 
 223   0.0000       0.740605        20.1529 
 224   0.0000       0.746100        20.3024 
 225   0.0000       0.748573        20.3697 
 226   0.0000       0.753634        20.5074 
 227   0.0000       0.755690        20.5634 
 228   0.0000       0.760360        20.6905 
 229   0.0000       0.765776        20.8378 
 230   0.0000       0.767041        20.8723 
 231   0.0000       0.777351        21.1528 
 232   0.0000       0.778609        21.1870 
 233   0.0000       0.786003        21.3882 
 234   0.0000       0.788793        21.4641 
 235   0.0000       0.796618        21.6771 
 236   0.0000       0.799995        21.7690 
 237   0.0000       0.805665        21.9233 
 238   0.0000       0.817945        22.2574 
 239   0.0000       0.821068        22.3424 
 240   0.0000       0.823049        22.3963 
 241   0.0000       0.827161        22.5082 
 242   0.0000       0.834814        22.7164 
 243   0.0000       0.840855        22.8808 
 244   0.0000       0.852549        23.1990 
 245   0.0000       0.855866        23.2893 
 246   0.0000       0.861389        23.4396 
 247   0.0000       0.863284        23.4911 
 248   0.0000       0.864339        23.5199 
 249   0.0000       0.868952        23.6454 
 250   0.0000       0.872849        23.7514 
 251   0.0000       0.873519        23.7697 
 252   0.0000       0.878007        23.8918 
 253   0.0000       0.878782        23.9129 
 254   0.0000       0.880907        23.9707 
 255   0.0000       0.886304        24.1176 
 256   0.0000       0.887156        24.1407 
 257   0.0000       0.888388        24.1743 
 258   0.0000       0.894254        24.3339 
 259   0.0000       0.899916        24.4880 
 260   0.0000       0.902107        24.5476 
 261   0.0000       0.906448        24.6657 
 262   0.0000       0.908469        24.7207 
 263   0.0000       0.916726        24.9454 
 264   0.0000       0.920518        25.0486 
 265   0.0000       0.924584        25.1592 
 266   0.0000       0.926086        25.2001 
 267   0.0000       0.929253        25.2863 
 268   0.0000       0.931275        25.3413 
 269   0.0000       0.939603        25.5679 
 270   0.0000       0.943343        25.6697 
 271   0.0000       0.945874        25.7385 
 272   0.0000       0.947679        25.7877 
 273   0.0000       0.951888        25.9022 
 274   0.0000       0.961498        26.1637 
 275   0.0000       0.963636        26.2219 
 276   0.0000       0.970132        26.3986 
 277   0.0000       0.972319        26.4581 
 278   0.0000       0.976576        26.5740 
 279   0.0000       0.980332        26.6762 
 280   0.0000       0.990955        26.9653 
 281   0.0000       0.999169        27.1888 
 282   0.0000       1.005518        27.3615 
 283   0.0000       1.009120        27.4595 
 284   0.0000       1.018896        27.7256 
 285   0.0000       1.021620        27.7997 
 286   0.0000       1.030410        28.0389 
 287   0.0000       1.037773        28.2392 
 288   0.0000       1.038727        28.2652 
 289   0.0000       1.064256        28.9599 
 290   0.0000       1.069050        29.0903 
 291   0.0000       1.077223        29.3127 
 292   0.0000       1.082115        29.4459 
 293   0.0000       1.088727        29.6258 
 294   0.0000       1.092681        29.7334 
 295   0.0000       1.104157        30.0456 
 296   0.0000       1.109624        30.1944 
 297   0.0000       1.139352        31.0034 
 298   0.0000       1.141655        31.0660 
 299   0.0000       1.159677        31.5564 
 300   0.0000       1.161829        31.6150 
 301   0.0000       1.180291        32.1173 
 302   0.0000       1.212542        32.9949 
 303   0.0000       1.213971        33.0338 
 304   0.0000       1.226161        33.3655 
 305   0.0000       1.243857        33.8471 
 306   0.0000       1.254730        34.1429 
 307   0.0000       1.284853        34.9626 
 308   0.0000       1.293420        35.1957 
 309   0.0000       1.308316        35.6011 
 310   0.0000       1.328920        36.1618 
 311   0.0000       1.337811        36.4037 
 312   0.0000       1.355244        36.8781 
 313   0.0000       1.372649        37.3517 
 314   0.0000       1.406635        38.2765 
 315   0.0000       1.491267        40.5794 
 316   0.0000       1.525928        41.5226 
 317   0.0000       1.562180        42.5091 
 318   0.0000       1.606081        43.7037 
 319   0.0000       1.657372        45.0994 
 320   0.0000       6.207947       168.9268 
 321   0.0000       6.239751       169.7923 
 322   0.0000       6.248744       170.0370 
 323   0.0000       6.270702       170.6345 
 324   0.0000       6.286447       171.0629 
 325   0.0000       6.294804       171.2903 
 326   0.0000       6.302762       171.5069 
 327   0.0000       6.311469       171.7438 
 328   0.0000       6.321569       172.0186 
 329   0.0000       6.324348       172.0943 
 330   0.0000       6.341962       172.5736 
 331   0.0000       6.351010       172.8198 
 332   0.0000       6.360213       173.0702 
 333   0.0000       6.377747       173.5473 
 334   0.0000       6.384222       173.7235 
 335   0.0000       6.390646       173.8983 
 336   0.0000       6.392864       173.9587 
 337   0.0000       6.402212       174.2131 
 338   0.0000       6.417814       174.6376 
 339   0.0000       6.422268       174.7588 
 340   0.0000       6.430177       174.9740 
 341   0.0000       6.440192       175.2465 
 342   0.0000       6.453950       175.6209 
 343   0.0000       6.466404       175.9598 
 344   0.0000       6.469565       176.0458 
 345   0.0000       6.475524       176.2080 
 346   0.0000       6.481608       176.3735 
 347   0.0000       6.495278       176.7455 
 348   0.0000       6.508832       177.1143 
 349   0.0000       6.511026       177.1740 
 350   0.0000       6.523991       177.5268 
 351   0.0000       6.534045       177.8004 
 352   0.0000       6.539882       177.9592 
 353   0.0000       6.544722       178.0909 
 354   0.0000       6.547398       178.1637 
 355   0.0000       6.552327       178.2979 
 356   0.0000       6.557546       178.4399 
 357   0.0000       6.561941       178.5595 
 358   0.0000       6.565614       178.6594 
 359   0.0000       6.574574       178.9033 
 360   0.0000       6.585451       179.1992 
 361   0.0000       6.591994       179.3773 
 362   0.0000       6.594413       179.4431 
 363   0.0000       6.600530       179.6096 
 364   0.0000       6.607028       179.7864 
 365   0.0000       6.608417       179.8242 
 366   0.0000       6.612649       179.9393 
 367   0.0000       6.615442       180.0153 
 368   0.0000       6.618941       180.1105 
 369   0.0000       6.620186       180.1444 
 370   0.0000       6.622613       180.2105 
 371   0.0000       6.628469       180.3698 
 372   0.0000       6.631381       180.4491 
 373   0.0000       6.634797       180.5420 
 374   0.0000       6.640710       180.7029 
[...]
     69 H        0.000      0.000      0.000      0.000      0.000      0.000
     70 H        0.000      0.000      0.000      0.000      0.003      0.036
     71 H        0.000      0.000      0.000     -0.000      0.001      0.019
     72 H        0.000      0.000      0.000      0.000      0.001      0.015
                 25 H       27 H       28 H       30 H       31 H       33 H  
      3 H        2.496     -0.104      0.065      0.000      0.000      2.406
      4 H        0.111     -0.004      0.004      0.000      0.000      0.098
      8 H       -0.337      0.011      0.000      0.000      0.000     -0.307
      9 H        0.000      0.000      0.000      0.000      0.000      0.138
     10 H        0.000      0.000      0.000      0.000      0.000      0.000
     11 H        0.000      0.000      0.000      0.000      0.000      0.000
     13 H       -0.101      0.004     -0.004      0.000      0.000     -0.104
     16 H       -0.368      0.012     -0.006     -0.022     -0.001     -0.338
     17 H       -0.359      0.011      0.000      0.000      0.000     -0.312
     19 H        0.933     -0.047      0.022      0.085      0.007      1.140
     21 H       -2.848      0.194      0.639     -0.216     -0.027     -2.596
     24 H      -14.074      4.369      2.260      0.724     -0.501     -0.143
     25 H        0.000     12.983      5.305     -0.635     -0.350     -2.369
     27 H       12.983      0.000    -13.620      3.998     13.006      0.069
     28 H        5.305    -13.620      0.000      2.645      4.127      0.281
     30 H       -0.635      3.998      2.645      0.000    -12.982      0.013
     31 H       -0.350     13.006      4.127    -12.982      0.000     -0.325
     33 H       -2.369      0.069      0.281      0.013     -0.325      0.000
     35 H        0.000      0.000      0.000      0.000      0.000      0.000
     37 H        0.267      0.007     -0.035      0.538     -0.040      6.241
     38 H        0.199      0.002     -0.029     -0.021      0.120     12.264
     40 H       -0.014      0.022      0.139     -0.002     -0.038     -0.239
     41 H        0.012      0.019     -0.029      0.012      0.090     -0.385
     42 H       -0.019      0.007     -0.005     -0.264     -0.390     -0.199
     45 H       -0.016     -0.206      0.029     -0.202     -0.473     -0.156
     46 H        0.013      0.038      0.064     -0.325      0.041      0.922
     47 H       -0.060     -0.118     -0.146     -0.158      1.820     -0.467
     48 H       -0.015      0.031      0.021      0.035      0.018     -0.002
     52 H       -0.002     -0.000      0.010     -0.009      0.002      0.017
     53 H       -0.000      0.000     -0.001      0.000     -0.000     -0.002
     57 H        0.000      0.000      0.000     -0.001     -0.000     -0.000
     58 H        0.000      0.000      0.000      0.000      0.000     -0.000
     61 H        0.000      0.000      0.000      0.000      0.000      0.000
     62 H        0.000      0.000      0.000      0.000      0.000      0.000
     63 H        0.000      0.000      0.000      0.000      0.000      0.000
     64 H        0.000      0.000      0.000      0.000     -0.000     -0.000
     65 H       -0.000      0.000      0.000     -0.000     -0.000      0.000
     66 H        0.000      0.000      0.000     -0.000      0.000      0.000
     67 H        0.000      0.000      0.000      0.000      0.000      0.000
     68 H        0.000      0.000      0.000      0.000      0.000      0.000
     69 H        0.000      0.000      0.000      0.000      0.000      0.000
     70 H        0.000     -0.008     -0.011      0.052     -0.060      0.007
     71 H        0.003     -0.003     -0.007     -0.456     -0.099      0.005
     72 H        0.000     -0.005     -0.005      0.039     -0.000      0.002
                 35 H       37 H       38 H       40 H       41 H       42 H  
      3 H       -0.076     -0.044     -0.040      0.000      0.000      0.000
      4 H       -0.164     -0.002     -0.002      0.000      0.000      0.000
      8 H        0.020      0.006      0.004      0.000      0.001      0.000
      9 H       -0.091     -0.003     -0.001      0.000     -0.000      0.000
     10 H       -0.180      0.000     -0.001      0.000      0.000      0.000
     11 H       -0.103     -0.000     -0.000      0.000      0.000      0.000
     13 H       13.751      0.002      0.001      0.000      0.000      0.000
     16 H        0.005      0.007      0.002     -0.001      0.001     -0.001
     17 H        0.007      0.005      0.005     -0.000      0.002      0.000
     19 H       -0.004     -0.008      0.114      0.005     -0.010      0.007
     21 H       -0.004      0.033     -0.511     -0.010      0.059     -0.026
     24 H       -0.001     -0.050     -0.079     -0.021      0.073     -0.025
     25 H        0.000      0.267      0.199     -0.014      0.012     -0.019
     27 H        0.000      0.007      0.002      0.022      0.019      0.007
     28 H        0.000     -0.035     -0.029      0.139     -0.029     -0.005
     30 H        0.000      0.538     -0.021     -0.002      0.012     -0.264
     31 H        0.000     -0.040      0.120     -0.038      0.090     -0.390
     33 H        0.000      6.241     12.264     -0.239     -0.385     -0.199
     35 H        0.000      0.000      0.000      0.000      0.000      0.000
     37 H        0.000      0.000    -12.055      9.437      2.240     -0.249
     38 H        0.000    -12.055      0.000      7.236     11.245     -0.457
     40 H        0.000      9.437      7.236      0.000    -13.984      9.697
     41 H        0.000      2.240     11.245    -13.984      0.000      8.101
     42 H        0.000     -0.249     -0.457      9.697      8.101      0.000
     45 H        0.000      0.058      0.037     -0.071      0.017      0.966
     46 H        0.000     -0.159      0.007      0.041      0.034     -0.399
     47 H        0.000      0.088     -0.079     -0.109     -0.034     -0.106
     48 H        0.000      0.134      0.005     -0.154     -0.445     10.651
     52 H        0.000     -0.007     -0.000     -0.026      0.070     -0.574
     53 H        0.000      0.009      0.013     -0.235     -0.029     -0.435
     57 H        0.000     -0.003     -0.006      0.004      0.015      0.054
     58 H        0.000      0.000      0.000      0.000     -0.001      0.000
     61 H        0.000     -0.000     -0.000     -0.000     -0.000      0.003
     62 H        0.000     -0.000     -0.000      0.001      0.000     -0.006
     63 H        0.000      0.000      0.000     -0.001     -0.000     -0.001
     64 H        0.000      0.000      0.000     -0.000     -0.000     -0.000
     65 H        0.000      0.000      0.000     -0.001     -0.001     -0.002
     66 H        0.000     -0.000     -0.000     -0.000      0.000     -0.001
     67 H        0.000      0.000      0.000     -0.000     -0.000      0.000
     68 H        0.000      0.000      0.000     -0.000      0.000      0.001
     69 H        0.000      0.000      0.000      0.000      0.001     -0.001
     70 H        0.000      0.062      0.010     -0.041     -0.015     -0.436
     71 H        0.000     -0.016     -0.002      0.034     -0.003     -0.162
     72 H        0.000     -0.024      0.031     -0.003     -0.072     -0.347
                 45 H       46 H       47 H       48 H       52 H       53 H  
      3 H       -0.022      0.000      0.000      0.000      0.000      0.000
      4 H       -0.001     -0.001      0.001      0.000      0.000      0.000
      8 H        0.002      0.002     -0.003      0.000      0.000      0.000
      9 H       -0.001      0.000      0.001      0.000      0.000      0.000
     10 H       -0.001      0.000      0.000      0.000      0.000      0.000
     11 H       -0.000      0.000      0.000      0.000      0.000      0.000
     13 H        0.001      0.001     -0.001      0.000      0.000      0.000
     16 H        0.002      0.002     -0.004      0.000      0.000      0.000
     17 H        0.003      0.000     -0.004      0.000      0.000      0.000
     19 H       -0.010     -0.007      0.011      0.006      0.000      0.000
     21 H        0.035      0.014     -0.017     -0.016      0.003     -0.000
     24 H       -0.022     -0.016     -0.023      0.003      0.000     -0.000
     25 H       -0.016      0.013     -0.060     -0.015     -0.002     -0.000
     27 H       -0.206      0.038     -0.118      0.031     -0.000      0.000
     28 H        0.029      0.064     -0.146      0.021      0.010     -0.001
     30 H       -0.202     -0.325     -0.158      0.035     -0.009      0.000
     31 H       -0.473      0.041      1.820      0.018      0.002     -0.000
     33 H       -0.156      0.922     -0.467     -0.002      0.017     -0.002
     35 H        0.000      0.000      0.000      0.000      0.000      0.000
     37 H        0.058     -0.159      0.088      0.134     -0.007      0.009
     38 H        0.037      0.007     -0.079      0.005     -0.000      0.013
     40 H       -0.071      0.041     -0.109     -0.154     -0.026     -0.235
     41 H        0.017      0.034     -0.034     -0.445      0.070     -0.029
     42 H        0.966     -0.399     -0.106     10.651     -0.574     -0.435
     45 H        0.000    -12.958    -13.620     -0.145      0.013      0.003
     46 H      -12.958      0.000    -12.997     -0.050      0.010     -0.004
     47 H      -13.620    -12.997      0.000     -0.229      0.015      0.000
     48 H       -0.145     -0.050     -0.229      0.000      5.978     -1.950
     52 H        0.013      0.010      0.015      5.978      0.000     17.565
     53 H        0.003     -0.004      0.000     -1.950     17.565      0.000
     57 H        0.000      0.005      0.003      2.205     -2.058      5.709
     58 H        0.000     -0.000     -0.000     -0.090      0.150     -0.191
     61 H        0.001      0.000      0.000     -0.028     -0.142     -0.375
     62 H        0.000      0.000      0.000      0.031     -0.221     -0.541
     63 H        0.000      0.000      0.002      0.120     -0.252      0.626
     64 H        0.000      0.000      0.000     -0.015      0.112      0.152
     65 H        0.001      0.000      0.000      0.009      0.027     -0.075
     66 H        0.000      0.000     -0.000      0.012      0.022     -0.028
     67 H        0.000      0.000      0.000     -0.006      0.018      0.005
     68 H        0.000      0.000      0.000      0.016     -0.011      0.040
     69 H        0.000      0.000      0.000      0.052     -0.087      0.035
     70 H       -0.029     -0.018     -0.011      1.880     -0.207     -0.049
     71 H       -0.075     -0.305     -0.024      5.542     -0.025     -0.407
     72 H       -0.036     -0.056      0.024     12.325     -0.239      0.137
                 57 H       58 H       61 H       62 H       63 H       64 H  
      3 H        0.000      0.000      0.000      0.000      0.000      0.000
      4 H        0.000      0.000      0.000      0.000      0.000      0.000
      8 H        0.000      0.000      0.000      0.000      0.000      0.000
      9 H        0.000      0.000      0.000      0.000      0.000      0.000
     10 H        0.000      0.000      0.000      0.000      0.000      0.000
     11 H        0.000      0.000      0.000      0.000      0.000      0.000
     13 H        0.000      0.000      0.000      0.000      0.000      0.000
     16 H        0.000      0.000      0.000      0.000      0.000      0.000
     17 H        0.000      0.000      0.000      0.000      0.000      0.000
     19 H        0.000      0.000      0.000      0.000      0.000      0.000
     21 H        0.000      0.000      0.000      0.000      0.000      0.000
     24 H        0.000      0.000      0.000      0.000      0.000      0.000
     25 H        0.000      0.000      0.000      0.000      0.000      0.000
     27 H        0.000      0.000      0.000      0.000      0.000      0.000
     28 H        0.000      0.000      0.000      0.000      0.000      0.000
     30 H       -0.001      0.000      0.000      0.000      0.000      0.000
     31 H       -0.000      0.000      0.000      0.000      0.000     -0.000
     33 H       -0.000     -0.000      0.000      0.000      0.000     -0.000
     35 H        0.000      0.000      0.000      0.000      0.000      0.000
     37 H       -0.003      0.000     -0.000     -0.000      0.000      0.000
     38 H       -0.006      0.000     -0.000     -0.000      0.000      0.000
     40 H        0.004      0.000     -0.000      0.001     -0.001     -0.000
     41 H        0.015     -0.001     -0.000      0.000     -0.000     -0.000
     42 H        0.054      0.000      0.003     -0.006     -0.001     -0.000
     45 H        0.000      0.000      0.001      0.000      0.000      0.000
     46 H        0.005     -0.000      0.000      0.000      0.000      0.000
     47 H        0.003     -0.000      0.000      0.000      0.002      0.000
     48 H        2.205     -0.090     -0.028      0.031      0.120     -0.015
     52 H       -2.058      0.150     -0.142     -0.221     -0.252      0.112
     53 H        5.709     -0.191     -0.375     -0.541      0.626      0.152
     57 H        0.000      9.749      1.998     12.779      5.103     -0.427
     58 H        9.749      0.000     -0.418     -0.362     -0.207      2.526
     61 H        1.998     -0.418      0.000    -12.438    -13.404      0.724
     62 H       12.779     -0.362    -12.438      0.000    -12.804     -0.024
     63 H        5.103     -0.207    -13.404    -12.804      0.000      0.008
     64 H       -0.427      2.526      0.724     -0.024      0.008      0.000
     65 H       -0.206      4.140      0.010      0.059      0.029    -13.002
     66 H       -0.377     12.664     -0.058      0.030      0.043    -12.775
     67 H       -0.375     12.797      0.016      0.077     -0.008     -0.227
     68 H       -0.240      4.247      0.018     -0.017     -0.226      0.179
     69 H       -0.469      2.400     -0.077      0.014     -0.002     -0.280
     70 H       -0.003     -0.005     -0.003      0.000     -0.001     -0.001
     71 H        0.249     -0.039     -0.019     -0.006     -0.010     -0.003
     72 H       -0.097      0.005      0.002      0.000     -0.003      0.001
                 65 H       66 H       67 H       68 H       69 H       70 H  
      3 H        0.000      0.000      0.000      0.000      0.000      0.000
      4 H        0.000      0.000      0.000      0.000      0.000      0.000
      8 H        0.000      0.000      0.000      0.000      0.000      0.000
      9 H        0.000      0.000      0.000      0.000      0.000      0.000
     10 H        0.000      0.000      0.000      0.000      0.000      0.000
     11 H        0.000      0.000      0.000      0.000      0.000      0.000
     13 H        0.000      0.000      0.000      0.000      0.000      0.000
     16 H        0.000      0.000      0.000      0.000      0.000      0.000
     17 H        0.000      0.000      0.000      0.000      0.000      0.000
     19 H        0.000      0.000      0.000      0.000      0.000      0.000
     21 H        0.000      0.000      0.000      0.000      0.000      0.003
     24 H        0.000      0.000      0.000      0.000      0.000      0.036
     25 H       -0.000      0.000      0.000      0.000      0.000      0.000
     27 H        0.000      0.000      0.000      0.000      0.000     -0.008
     28 H        0.000      0.000      0.000      0.000      0.000     -0.011
     30 H       -0.000     -0.000      0.000      0.000      0.000      0.052
     31 H       -0.000      0.000      0.000      0.000      0.000     -0.060
     33 H        0.000      0.000      0.000      0.000      0.000      0.007
     35 H        0.000      0.000      0.000      0.000      0.000      0.000
     37 H        0.000     -0.000      0.000      0.000      0.000      0.062
     38 H        0.000     -0.000      0.000      0.000      0.000      0.010
     40 H       -0.001     -0.000     -0.000     -0.000      0.000     -0.041
     41 H       -0.001      0.000     -0.000      0.000      0.001     -0.015
     42 H       -0.002     -0.001      0.000      0.001     -0.001     -0.436
     45 H        0.001      0.000      0.000      0.000      0.000     -0.029
     46 H        0.000      0.000      0.000      0.000      0.000     -0.018
     47 H        0.000     -0.000      0.000      0.000      0.000     -0.011
     48 H        0.009      0.012     -0.006      0.016      0.052      1.880
     52 H        0.027      0.022      0.018     -0.011     -0.087     -0.207
     53 H       -0.075     -0.028      0.005      0.040      0.035     -0.049
     57 H       -0.206     -0.377     -0.375     -0.240     -0.469     -0.003
     58 H        4.140     12.664     12.797      4.247      2.400     -0.005
     61 H        0.010     -0.058      0.016      0.018     -0.077     -0.003
     62 H        0.059      0.030      0.077     -0.017      0.014      0.000
     63 H        0.029      0.043     -0.008     -0.226     -0.002     -0.001
     64 H      -13.002    -12.775     -0.227      0.179     -0.280     -0.001
     65 H        0.000    -12.117     -0.379      2.889      0.143     -0.000
     66 H      -12.117      0.000     -0.289     -0.379     -0.229      0.001
     67 H       -0.379     -0.289      0.000    -12.060    -12.772      0.001
     68 H        2.889     -0.379    -12.060      0.000    -13.100     -0.000
     69 H        0.143     -0.229    -12.772    -13.100      0.000      0.008
     70 H       -0.000      0.001      0.001     -0.000      0.008      0.000
     71 H        0.000      0.008      0.000     -0.002      0.000    -13.390
     72 H       -0.005     -0.003      0.001     -0.000     -0.008    -13.003
                 71 H       72 H  
      3 H        0.000      0.000
      4 H        0.000      0.000
      8 H        0.000      0.000
      9 H        0.000      0.000
     10 H        0.000      0.000
     11 H        0.000      0.000
     13 H        0.000      0.000
     16 H        0.000      0.000
     17 H        0.000      0.000
     19 H       -0.000      0.000
     21 H        0.001      0.001
     24 H        0.019      0.015
     25 H        0.003      0.000
     27 H       -0.003     -0.005
     28 H       -0.007     -0.005
     30 H       -0.456      0.039
     31 H       -0.099     -0.000
     33 H        0.005      0.002
     35 H        0.000      0.000
     37 H       -0.016     -0.024
     38 H       -0.002      0.031
     40 H        0.034     -0.003
     41 H       -0.003     -0.072
     42 H       -0.162     -0.347
     45 H       -0.075     -0.036
     46 H       -0.305     -0.056
     47 H       -0.024      0.024
     48 H        5.542     12.325
     52 H       -0.025     -0.239
     53 H       -0.407      0.137
     57 H        0.249     -0.097
     58 H       -0.039      0.005
     61 H       -0.019      0.002
     62 H       -0.006      0.000
     63 H       -0.010     -0.003
     64 H       -0.003      0.001
     65 H        0.000     -0.005
     66 H        0.008     -0.003
     67 H        0.000      0.001
     68 H       -0.002     -0.000
     69 H        0.000     -0.008
     70 H      -13.390    -13.003
     71 H        0.000    -11.538
     72 H      -11.538      0.000

Maximum memory used throughout the entire EPRNMR-calculation: 970.1 MB

Timings for individual modules:

Sum of individual times         ...      393.308 sec (=   6.555 min)
GTO integral calculation        ...        0.571 sec (=   0.010 min)   0.1 %
SCF iterations                  ...      105.831 sec (=   1.764 min)  26.9 %
EPR/NMR calculation             ...      286.906 sec (=   4.782 min)  72.9 %
                             ****ORCA TERMINATED NORMALLY****
TOTAL RUN TIME: 0 days 0 hours 6 minutes 33 seconds 770 msec
