
                                 *****************
                                 * O   R   C   A *
                                 *****************

                                            #,                                       
                                            ###                                      
                                            ####                                     
                                            #####                                    
                                            ######                                   
                                           ########,                                 
                                     ,,################,,,,,                         
                               ,,#################################,,                 
                          ,,##########################################,,             
                       ,#########################################, ''#####,          
                    ,#############################################,,   '####,        
                  ,##################################################,,,,####,       
                ,###########''''           ''''###############################       
              ,#####''   ,,,,##########,,,,          '''####'''          '####       
            ,##' ,,,,###########################,,,                        '##       
           ' ,,###''''                  '''############,,,                           
         ,,##''                                '''############,,,,        ,,,,,,###''
      ,#''                                            '''#######################'''  
     '                                                          ''''####''''         
             ,#######,   #######,   ,#######,      ##                                
            ,#'     '#,  ##    ##  ,#'     '#,    #''#        ######   ,####,        
            ##       ##  ##   ,#'  ##            #'  '#       #        #'  '#        
            ##       ##  #######   ##           ,######,      #####,   #    #        
            '#,     ,#'  ##    ##  '#,     ,#' ,#      #,         ##   #,  ,#        
             '#######'   ##     ##  '#######'  #'      '#     #####' # '####'        



                  #######################################################
                  #                        -***-                        #
                  #          Department of theory and spectroscopy      #
                  #    Directorship and core code : Frank Neese         #
                  #        Max Planck Institute fuer Kohlenforschung    #
                  #                Kaiser Wilhelm Platz 1               #
                  #                 D-45470 Muelheim/Ruhr               #
                  #                      Germany                        #
                  #                                                     #
                  #                  All rights reserved                #
                  #                        -***-                        #
                  #######################################################


                         Program Version 5.0.2 -  RELEASE  -


 With contributions from (in alphabetic order):
   Daniel Aravena         : Magnetic Suceptibility
   Michael Atanasov       : Ab Initio Ligand Field Theory (pilot matlab implementation)
   Alexander A. Auer      : GIAO ZORA, VPT2 properties, NMR spectrum
   Ute Becker             : Parallelization
   Giovanni Bistoni       : ED, misc. LED, open-shell LED, HFLD
   Martin Brehm           : Molecular dynamics
   Dmytro Bykov           : SCF Hessian
   Vijay G. Chilkuri      : MRCI spin determinant printing, contributions to CSF-ICE
   Dipayan Datta          : RHF DLPNO-CCSD density
   Achintya Kumar Dutta   : EOM-CC, STEOM-CC
   Dmitry Ganyushin       : Spin-Orbit,Spin-Spin,Magnetic field MRCI
   Miquel Garcia          : C-PCM and meta-GGA Hessian, CC/C-PCM, Gaussian charge scheme
   Yang Guo               : DLPNO-NEVPT2, F12-NEVPT2, CIM, IAO-localization
   Andreas Hansen         : Spin unrestricted coupled pair/coupled cluster methods
   Benjamin Helmich-Paris : MC-RPA, TRAH-SCF, COSX integrals
   Lee Huntington         : MR-EOM, pCC
   Robert Izsak           : Overlap fitted RIJCOSX, COSX-SCS-MP3, EOM
   Marcus Kettner         : VPT2
   Christian Kollmar      : KDIIS, OOCD, Brueckner-CCSD(T), CCSD density, CASPT2, CASPT2-K
   Simone Kossmann        : Meta GGA functionals, TD-DFT gradient, OOMP2, MP2 Hessian
   Martin Krupicka        : Initial AUTO-CI
   Lucas Lang             : DCDCAS
   Marvin Lechner         : AUTO-CI (C++ implementation), FIC-MRCC
   Dagmar Lenk            : GEPOL surface, SMD
   Dimitrios Liakos       : Extrapolation schemes; Compound Job, initial MDCI parallelization
   Dimitrios Manganas     : Further ROCIS development; embedding schemes
   Dimitrios Pantazis     : SARC Basis sets
   Anastasios Papadopoulos: AUTO-CI, single reference methods and gradients
   Taras Petrenko         : DFT Hessian,TD-DFT gradient, ASA, ECA, R-Raman, ABS, FL, XAS/XES, NRVS
   Peter Pinski           : DLPNO-MP2, DLPNO-MP2 Gradient
   Christoph Reimann      : Effective Core Potentials
   Marius Retegan         : Local ZFS, SOC
   Christoph Riplinger    : Optimizer, TS searches, QM/MM, DLPNO-CCSD(T), (RO)-DLPNO pert. Triples
   Tobias Risthaus        : Range-separated hybrids, TD-DFT gradient, RPA, STAB
   Michael Roemelt        : Original ROCIS implementation
   Masaaki Saitow         : Open-shell DLPNO-CCSD energy and density
   Barbara Sandhoefer     : DKH picture change effects
   Avijit Sen             : IP-ROCIS
   Kantharuban Sivalingam : CASSCF convergence, NEVPT2, FIC-MRCI
   Bernardo de Souza      : ESD, SOC TD-DFT
   Georgi Stoychev        : AutoAux, RI-MP2 NMR, DLPNO-MP2 response
   Willem Van den Heuvel  : Paramagnetic NMR
   Boris Wezisla          : Elementary symmetry handling
   Frank Wennmohs         : Technical directorship


 We gratefully acknowledge several colleagues who have allowed us to
 interface, adapt or use parts of their codes:
   Stefan Grimme, W. Hujo, H. Kruse, P. Pracht,  : VdW corrections, initial TS optimization,
                  C. Bannwarth, S. Ehlert          DFT functionals, gCP, sTDA/sTD-DF
   Ed Valeev, F. Pavosevic, A. Kumar             : LibInt (2-el integral package), F12 methods
   Garnet Chan, S. Sharma, J. Yang, R. Olivares  : DMRG
   Ulf Ekstrom                                   : XCFun DFT Library
   Mihaly Kallay                                 : mrcc  (arbitrary order and MRCC methods)
   Jiri Pittner, Ondrej Demel                    : Mk-CCSD
   Frank Weinhold                                : gennbo (NPA and NBO analysis)
   Christopher J. Cramer and Donald G. Truhlar   : smd solvation model
   Lars Goerigk                                  : TD-DFT with DH, B97 family of functionals
   V. Asgeirsson, H. Jonsson                     : NEB implementation
   FAccTs GmbH                                   : IRC, NEB, NEB-TS, DLPNO-Multilevel, CI-OPT
                                                   MM, QMMM, 2- and 3-layer-ONIOM, Crystal-QMMM,
                                                   LR-CPCM, SF, NACMEs, symmetry and pop. for TD-DFT,
                                                   nearIR, NL-DFT gradient (VV10), updates on ESD,
                                                   ML-optimized integration grids
   S Lehtola, MJT Oliveira, MAL Marques          : LibXC Library
   Liviu Ungur et al                             : ANISO software


 Your calculation uses the libint2 library for the computation of 2-el integrals
 For citations please refer to: http://libint.valeyev.net

 Your ORCA version has been built with support for libXC version: 5.1.0
 For citations please refer to: https://tddft.org/programs/libxc/

 This ORCA versions uses:
   CBLAS   interface :  Fast vector & matrix operations
   LAPACKE interface :  Fast linear algebra routines
   SCALAPACK package :  Parallel linear algebra routines
   Shared memory     :  Shared parallel matrices
   BLAS/LAPACK       :  OpenBLAS 0.3.15  USE64BITINT DYNAMIC_ARCH NO_AFFINITY Zen SINGLE_THREADED
        Core in use  :  Zen
   Copyright (c) 2011-2014, The OpenBLAS Project


Your calculation utilizes the atom-pairwise dispersion correction
based on tight binding partial charges (D4)
Cite in your paper:
E.Caldeweyher, C.Bannwarth, S.Grimme, J.Chem.Phys., (2017), 147, 034112.
E.Caldeweyher, S.Ehlert, A.Hansen, H.Neugebauer, S.Grimme, J.Chem.Phys., (2018), in progress.
   

================================================================================

----- Orbital basis set information -----
Your calculation utilizes the basis: pcJ-0
   F. Jensen, Theor. Chem. Acc. 126, 371 (2010).

----- AuxJ basis set information -----
Your calculation utilizes the auxiliary basis: def2/J
   F. Weigend, Phys. Chem. Chem. Phys. 8, 1057 (2006).

================================================================================
                                        WARNINGS
                       Please study these warnings very carefully!
================================================================================


INFO   : the flag for use of the SHARK integral package has been found!

================================================================================
                                       INPUT FILE
================================================================================
NAME = inpJ
|  1> ! pbe0
|  2> ! D4
|  3> ! pcJ-0
|  4> ! def2/J RIJCOSX
|  5> ! DEFGRID2
|  6> ! scfconv7
|  7> ! smallprint printgap noloewdin
|  8> ! NOSOSCF
|  9> %MaxCore 4000
| 10> %output
| 11>        print[P_BondOrder_M] 1
| 12>        print[P_Mayer] 1
| 13>        print[P_basis] 2
| 14> end
| 15> %pal
| 16>     nprocs 4
| 17> end
| 18> ! CPCM(chloroform)
| 19> *xyz 0 1
| 20> C   -4.9238646300   0.2798937200   0.4505105800
| 21> C   -6.3479012400  -0.1321753300   0.1602537200
| 22> C   -6.9531465700   0.6821681900  -0.9897526900
| 23> H   -6.9707601900   0.0506000200   1.0524501000
| 24> H   -6.4017619600  -1.2017413600  -0.0707950500
| 25> C   -4.7355309300   1.7367471800   0.6164089500
| 26> C   -5.3812665900   2.5782308900  -0.4611280200
| 27> C   -6.8428832900   2.1742363100  -0.6973374700
| 28> H   -4.8238654000   2.4290024800  -1.3983560500
| 29> H   -5.3107847900   3.6405640800  -0.2047837800
| 30> H   -7.2650289200   2.7465296300  -1.5317679200
| 31> H   -7.4386063000   2.4024154400   0.1994019000
| 32> O   -8.3071079100   0.2878684700  -1.2483766100
| 33> H   -6.4101418700   0.4512059000  -1.9169201500
| 34> C   -3.9313359600  -0.6399467400   0.5009611000
| 35> C   -4.0897840000   2.2817057000   1.6538502400
| 36> H   -3.6541955600   1.6663312200   2.4361386400
| 37> H   -3.9931042600   3.3607511800   1.7476882100
| 38> C   -2.5219382300  -0.3744588200   0.6732504200
| 39> H   -4.2304956800  -1.6771434900   0.3560680800
| 40> C   -1.5439449500  -1.2957929200   0.8090627500
| 41> H   -2.2332479700   0.6741116700   0.6833352100
| 42> C   -1.7444758600  -2.7889058000   0.8680854800
| 43> C   -0.8500269400  -3.5266643600  -0.1453493600
| 44> H   -2.7895069800  -3.0740614400   0.7191743900
| 45> H   -1.4661276900  -3.1253881400   1.8797575000
| 46> C    0.6227939900  -3.1049447400  -0.0517661200
| 47> H   -1.2253376900  -3.3370580900  -1.1589276900
| 48> H   -0.9333836000  -4.6077419900   0.0205652500
| 49> C    0.7896989900  -1.5833125700  -0.1703489400
| 50> H    1.1916106600  -3.6308559100  -0.8252034900
| 51> H    1.0304057900  -3.4241920300   0.9193453300
| 52> C   -0.0968965600  -0.9301542200   0.9373479200
| 53> H    0.2568021500  -1.3898387500   1.8788981500
| 54> C    0.3458931300   0.5291206400   0.9578599900
| 55> H   -8.8242031600   0.4818609200  -0.4550874100
| 56> C    1.8662583400   0.4508143100   0.6741096800
| 57> H    0.1158804200   1.0171387000   1.9107907900
| 58> H   -0.1614984500   1.0995401700   0.1718964000
| 59> C    2.1769407900  -1.0144703100   0.2405276700
| 60> H    2.4567371300   0.7272726900   1.5535374700
| 61> H    2.1451724200   1.1498945500  -0.1235675900
| 62> H    2.4947091000  -1.5809510700   1.1308416900
| 63> C    3.3463563200  -1.0882780100  -0.7717362900
| 64> C    0.3830823100  -1.0891740000  -1.5647767900
| 65> H   -0.6893559600  -1.2212242500  -1.7378833200
| 66> H    0.9212336100  -1.6417613300  -2.3428049800
| 67> H    0.6065101100  -0.0259228000  -1.6979694300
| 68> H    3.0511018500  -0.4883359800  -1.6484976800
| 69> C    3.6505393700  -2.5091910200  -1.2448522500
| 70> C    4.5480859600  -0.4091980700  -0.1592424500
| 71> C    5.6799833900  -0.9920869600   0.2377292400
| 72> H    4.4470792500   0.6654538100   0.0042199000
| 73> H    5.8186748700  -2.0643447000   0.0914950000
| 74> C    6.8186538800  -0.2710733400   0.9038024900
| 75> C    8.1386674200  -0.5624801400   0.1774461700
| 76> C    6.9115963800  -0.5933680700   2.4212273300
| 77> H    6.6219474900   0.8091571400   0.8318636200
| 78> H    7.8039028200  -0.0627558400   2.7882224400
| 79> C    7.0947266400  -2.0843862500   2.7176114700
| 80> C    5.6962339400  -0.0491972400   3.1738111700
| 81> H    8.0993941900  -0.1952877500  -0.8535353600
| 82> H    8.3428883800  -1.6380258900   0.1367081100
| 83> H    8.9803680100  -0.0760785900   0.6840409900
| 84> H    7.2453152100  -2.2412085900   3.7914089700
| 85> H    7.9589392800  -2.5073073200   2.1954334700
| 86> H    6.2058271000  -2.6546277700   2.4225437400
| 87> H    4.7814764700  -0.5603687500   2.8504269600
| 88> H    5.5622226700   1.0233841100   2.9911469100
| 89> H    5.8058093000  -0.2011131000   4.2534499300
| 90> H    4.5654480000  -2.5272311900  -1.8468419100
| 91> H    2.8393178100  -2.8995950900  -1.8626454000
| 92> H    3.7880168200  -3.1911257000  -0.3974130200
| 93> *
| 94> %eprnmr
| 95>  Nuclei = all H { ssfc }
| 96>  SpinSpinRThresh 8.0
| 97> end
| 98> 
| 99>                          ****END OF INPUT****
================================================================================

                       ****************************
                       * Single Point Calculation *
                       ****************************

---------------------------------
CARTESIAN COORDINATES (ANGSTROEM)
---------------------------------
  C     -4.923865    0.279894    0.450511
  C     -6.347901   -0.132175    0.160254
  C     -6.953147    0.682168   -0.989753
  H     -6.970760    0.050600    1.052450
  H     -6.401762   -1.201741   -0.070795
  C     -4.735531    1.736747    0.616409
  C     -5.381267    2.578231   -0.461128
  C     -6.842883    2.174236   -0.697337
  H     -4.823865    2.429002   -1.398356
  H     -5.310785    3.640564   -0.204784
  H     -7.265029    2.746530   -1.531768
  H     -7.438606    2.402415    0.199402
  O     -8.307108    0.287868   -1.248377
  H     -6.410142    0.451206   -1.916920
  C     -3.931336   -0.639947    0.500961
  C     -4.089784    2.281706    1.653850
  H     -3.654196    1.666331    2.436139
  H     -3.993104    3.360751    1.747688
  C     -2.521938   -0.374459    0.673250
  H     -4.230496   -1.677143    0.356068
  C     -1.543945   -1.295793    0.809063
  H     -2.233248    0.674112    0.683335
  C     -1.744476   -2.788906    0.868085
  C     -0.850027   -3.526664   -0.145349
  H     -2.789507   -3.074061    0.719174
  H     -1.466128   -3.125388    1.879757
  C      0.622794   -3.104945   -0.051766
  H     -1.225338   -3.337058   -1.158928
  H     -0.933384   -4.607742    0.020565
  C      0.789699   -1.583313   -0.170349
  H      1.191611   -3.630856   -0.825203
  H      1.030406   -3.424192    0.919345
  C     -0.096897   -0.930154    0.937348
  H      0.256802   -1.389839    1.878898
  C      0.345893    0.529121    0.957860
  H     -8.824203    0.481861   -0.455087
  C      1.866258    0.450814    0.674110
  H      0.115880    1.017139    1.910791
  H     -0.161498    1.099540    0.171896
  C      2.176941   -1.014470    0.240528
  H      2.456737    0.727273    1.553537
  H      2.145172    1.149895   -0.123568
  H      2.494709   -1.580951    1.130842
  C      3.346356   -1.088278   -0.771736
  C      0.383082   -1.089174   -1.564777
  H     -0.689356   -1.221224   -1.737883
  H      0.921234   -1.641761   -2.342805
  H      0.606510   -0.025923   -1.697969
  H      3.051102   -0.488336   -1.648498
  C      3.650539   -2.509191   -1.244852
  C      4.548086   -0.409198   -0.159242
  C      5.679983   -0.992087    0.237729
  H      4.447079    0.665454    0.004220
  H      5.818675   -2.064345    0.091495
  C      6.818654   -0.271073    0.903802
  C      8.138667   -0.562480    0.177446
  C      6.911596   -0.593368    2.421227
  H      6.621947    0.809157    0.831864
  H      7.803903   -0.062756    2.788222
  C      7.094727   -2.084386    2.717611
  C      5.696234   -0.049197    3.173811
  H      8.099394   -0.195288   -0.853535
  H      8.342888   -1.638026    0.136708
  H      8.980368   -0.076079    0.684041
  H      7.245315   -2.241209    3.791409
  H      7.958939   -2.507307    2.195433
  H      6.205827   -2.654628    2.422544
  H      4.781476   -0.560369    2.850427
  H      5.562223    1.023384    2.991147
  H      5.805809   -0.201113    4.253450
  H      4.565448   -2.527231   -1.846842
  H      2.839318   -2.899595   -1.862645
  H      3.788017   -3.191126   -0.397413

----------------------------
CARTESIAN COORDINATES (A.U.)
----------------------------
  NO LB      ZA    FRAG     MASS         X           Y           Z
   0 C     6.0000    0    12.011   -9.304756    0.528922    0.851342
   1 C     6.0000    0    12.011  -11.995795   -0.249775    0.302836
   2 C     6.0000    0    12.011  -13.139543    1.289111   -1.870362
   3 H     1.0000    0     1.008  -13.172828    0.095620    1.988842
   4 H     1.0000    0     1.008  -12.097577   -2.270962   -0.133783
   5 C     6.0000    0    12.011   -8.948857    3.281977    1.164844
   6 C     6.0000    0    12.011  -10.169120    4.872150   -0.871406
   7 C     6.0000    0    12.011  -12.931175    4.108711   -1.317777
   8 H     1.0000    0     1.008   -9.115785    4.590149   -2.642510
   9 H     1.0000    0     1.008  -10.035929    6.879669   -0.386985
  10 H     1.0000    0     1.008  -13.728915    5.190189   -2.894622
  11 H     1.0000    0     1.008  -14.056929    4.539907    0.376815
  12 O     8.0000    0    15.999  -15.698159    0.543993   -2.359090
  13 H     1.0000    0     1.008  -12.113413    0.852656   -3.622454
  14 C     6.0000    0    12.011   -7.429148   -1.209324    0.946679
  15 C     6.0000    0    12.011   -7.728572    4.311799    3.125324
  16 H     1.0000    0     1.008   -6.905429    3.148910    4.603635
  17 H     1.0000    0     1.008   -7.545873    6.350899    3.302652
  18 C     6.0000    0    12.011   -4.765773   -0.707625    1.272259
  19 H     1.0000    0     1.008   -7.994478   -3.169342    0.672871
  20 C     6.0000    0    12.011   -2.917633   -2.448694    1.528907
  21 H     1.0000    0     1.008   -4.220227    1.273886    1.291316
  22 C     6.0000    0    12.011   -3.296582   -5.270268    1.640444
  23 C     6.0000    0    12.011   -1.606318   -6.664430   -0.274670
  24 H     1.0000    0     1.008   -5.271404   -5.809134    1.359043
  25 H     1.0000    0     1.008   -2.770580   -5.906128    3.552227
  26 C     6.0000    0    12.011    1.176910   -5.867495   -0.097824
  27 H     1.0000    0     1.008   -2.315553   -6.306126   -2.190056
  28 H     1.0000    0     1.008   -1.763839   -8.707370    0.038863
  29 C     6.0000    0    12.011    1.492315   -2.992027   -0.321913
  30 H     1.0000    0     1.008    2.251818   -6.861323   -1.559409
  31 H     1.0000    0     1.008    1.947185   -6.470785    1.737311
  32 C     6.0000    0    12.011   -0.183108   -1.757737    1.771331
  33 H     1.0000    0     1.008    0.485286   -2.626415    3.550603
  34 C     6.0000    0    12.011    0.653643    0.999893    1.810093
  35 H     1.0000    0     1.008  -16.675327    0.910585   -0.859991
  36 C     6.0000    0    12.011    3.526717    0.851916    1.273883
  37 H     1.0000    0     1.008    0.218982    1.922114    3.610871
  38 H     1.0000    0     1.008   -0.305188    2.077830    0.324837
  39 C     6.0000    0    12.011    4.113822   -1.917071    0.454531
  40 H     1.0000    0     1.008    4.642560    1.374346    2.935760
  41 H     1.0000    0     1.008    4.053788    2.172986   -0.233509
  42 H     1.0000    0     1.008    4.714317   -2.987565    2.136981
  43 C     6.0000    0    12.011    6.323697   -2.056547   -1.458370
  44 C     6.0000    0    12.011    0.723921   -2.058241   -2.957000
  45 H     1.0000    0     1.008   -1.302694   -2.307779   -3.284124
  46 H     1.0000    0     1.008    1.740879   -3.102479   -4.427260
  47 H     1.0000    0     1.008    1.146138   -0.048987   -3.208697
  48 H     1.0000    0     1.008    5.765747   -0.922821   -3.115209
  49 C     6.0000    0    12.011    6.898520   -4.741684   -2.352430
  50 C     6.0000    0    12.011    8.594637   -0.773272   -0.300925
  51 C     6.0000    0    12.011   10.733613   -1.874773    0.449243
  52 H     1.0000    0     1.008    8.403762    1.257525    0.007974
  53 H     1.0000    0     1.008   10.995702   -3.901046    0.172900
  54 C     6.0000    0    12.011   12.885388   -0.512254    1.707939
  55 C     6.0000    0    12.011   15.379853   -1.062933    0.335325
  56 C     6.0000    0    12.011   13.061024   -1.121303    4.575457
  57 H     1.0000    0     1.008   12.513667    1.529085    1.571994
  58 H     1.0000    0     1.008   14.747239   -0.118591    5.268977
  59 C     6.0000    0    12.011   13.407090   -3.938919    5.135541
  60 C     6.0000    0    12.011   10.764322   -0.092969    5.997634
  61 H     1.0000    0     1.008   15.305637   -0.369040   -1.612948
  62 H     1.0000    0     1.008   15.765774   -3.095420    0.258341
  63 H     1.0000    0     1.008   16.970436   -0.143768    1.292650
  64 H     1.0000    0     1.008   13.691662   -4.235270    7.164725
  65 H     1.0000    0     1.008   15.040216   -4.738124    4.148768
  66 H     1.0000    0     1.008   11.727314   -5.016519    4.577944
  67 H     1.0000    0     1.008    9.035681   -1.058943    5.386526
  68 H     1.0000    0     1.008   10.511078    1.933916    5.652448
  69 H     1.0000    0     1.008   10.971390   -0.380049    8.037855
  70 H     1.0000    0     1.008    8.627446   -4.775775   -3.490025
  71 H     1.0000    0     1.008    5.365533   -5.479441   -3.519890
  72 H     1.0000    0     1.008    7.158314   -6.030354   -0.751002

--------------------------------
INTERNAL COORDINATES (ANGSTROEM)
--------------------------------
 C      0   0   0     0.000000000000     0.00000000     0.00000000
 C      1   0   0     1.510605909351     0.00000000     0.00000000
 C      2   1   0     1.533620559687   111.79404721     0.00000000
 H      2   1   3     1.103346944822   109.36615864   241.44486699
 H      2   1   3     1.095561957996   110.68188927   122.90996298
 C      1   2   3     1.478314532039   114.23520952    50.26317418
 C      6   1   2     1.512003736274   114.46095224   312.21353803
 C      3   2   1     1.524444792875   110.32436922   305.12588402
 H      7   6   1     1.100618728344   108.36758917   289.97726195
 H      7   6   1     1.095094452588   110.21706606   172.77148980
 H      8   3   2     1.096357949272   109.69830531   179.18189266
 H      8   3   2     1.100496759522   108.66817986   296.64914577
 O      3   2   1     1.433725884332   111.21860129   180.41412356
 H      3   2   1     1.099016461436   109.02797640    65.25785034
 C      1   2   3     1.354165753367   120.85096639   232.29846059
 C      6   1   2     1.338003481431   123.35854840   129.97681615
 H     16   6   1     1.086461311079   121.40547852     0.65912879
 H     16   6   1     1.087424335137   120.92873639   181.35714767
 C     15   1   2     1.444496246718   126.49372861   175.30680247
 H     15   1   2     1.089159135997   116.14126908   357.95320343
 C     19  15   1     1.350471165382   126.38413697   175.44400626
 H     19  15   1     1.087632218035   115.93036335   354.82886114
 C     21  19  15     1.507674500993   125.67999582   357.11466357
 C     23  21  19     1.539927510719   111.80447203   128.03267936
 H     23  21  19     1.093425028759   112.33745622     3.91139760
 H     23  21  19     1.101897610908   107.74378589   246.71357775
 C     24  23  21     1.534863756999   112.68097517    50.87369285
 H     24  23  21     1.097337563257   109.05250653   288.81515621
 H     24  23  21     1.096906938926   109.17719030   172.82358028
 C     27  24  23     1.535344790268   111.83354603   306.06768979
 H     27  24  23     1.094687319792   108.87666488   182.52000603
 H     27  24  23     1.100510636020   109.23902255    66.04689122
 C     21  19  15     1.498031303672   122.79491755   177.86703474
 H     33  21  19     1.105861419975   106.28453964   123.80773656
 C     33  21  19     1.525111986581   121.00723109     1.65138199
 H     13   3   2     0.966606602019   107.57542021    62.74283126
 C     35  33  21     1.548598234379   103.54399753   196.32305120
 H     35  33  21     1.095054602856   112.15654727    74.36918731
 H     35  33  21     1.095702249914   110.73404187   314.72190229
 C     30  27  24     1.554619219318   116.05464471   166.11392937
 H     37  35  33     1.094754618687   111.68953984   249.08539548
 H     37  35  33     1.096720234634   110.53116312   130.54534639
 H     40  30  27     1.102059982260   106.42306143   320.47236575
 C     40  30  27     1.548437465027   118.92690315    80.69750389
 C     30  27  24     1.534255219861   111.13581608   294.23037048
 H     45  30  27     1.094315759831   111.38502186    66.56684263
 H     45  30  27     1.095576306518   110.65899515   306.47641228
 H     45  30  27     1.094606493432   111.67491080   186.56817941
 H     44  40  30     1.102640547237   106.95690570    62.15167629
 C     44  40  30     1.528188411650   113.39304089   302.91180877
 C     44  40  30     1.510116683109   108.32527590   177.07346958
 C     51  44  40     1.333618301010   126.84137151   111.52205475
 H     51  44  40     1.091695451360   115.45288781   294.08583907
 H     52  51  44     1.091034573496   119.83775848     2.62604773
 C     52  51  44     1.503357808171   124.41018856   183.13028933
 C     55  52  51     1.534583713088   110.53201422   232.15915776
 C     55  52  51     1.554056094979   112.23755823   106.60166070
 H     55  52  51     1.100348351571   107.84635519   350.03115823
 H     57  55  52     1.101111044471   105.90039494   176.88191222
 C     57  55  52     1.531181068216   113.45979940    58.68366432
 C     57  55  52     1.529578435065   111.04618155   293.83630637
 H     56  55  52     1.095123533246   110.55359938    62.37434089
 H     56  55  52     1.095520173424   111.36951754   302.91880053
 H     56  55  52     1.096213785126   110.94489011   182.53251096
 H     60  57  55     1.095587164375   110.21479407   174.84513854
 H     60  57  55     1.094712556916   112.22744423    54.83888100
 H     60  57  55     1.096532146648   110.93811888   293.79291601
 H     61  57  55     1.096656230928   110.60133890    65.12236658
 H     61  57  55     1.096246324845   111.29896670   305.37223354
 H     61  57  55     1.095766873077   110.85470341   184.91320460
 H     50  44  40     1.095342320797   110.59269058   187.78527381
 H     50  44  40     1.091862689842   111.08445442    68.27343909
 H     50  44  40     1.096397831806   111.34488819   307.92877997

---------------------------
INTERNAL COORDINATES (A.U.)
---------------------------
 C      0   0   0     0.000000000000     0.00000000     0.00000000
 C      1   0   0     2.854631464956     0.00000000     0.00000000
 C      2   1   0     2.898122851159   111.79404721     0.00000000
 H      2   1   3     2.085023556412   109.36615864   241.44486699
 H      2   1   3     2.070312063354   110.68188927   122.90996298
 C      1   2   3     2.793609605350   114.23520952    50.26317418
 C      6   1   2     2.857272975024   114.46095224   312.21353803
 C      3   2   1     2.880783164816   110.32436922   305.12588402
 H      7   6   1     2.079867974435   108.36758917   289.97726195
 H      7   6   1     2.069428606167   110.21706606   172.77148980
 H      8   3   2     2.071816268872   109.69830531   179.18189266
 H      8   3   2     2.079637486765   108.66817986   296.64914577
 O      3   2   1     2.709349272501   111.21860129   180.41412356
 H      3   2   1     2.076840128785   109.02797640    65.25785034
 C      1   2   3     2.559002413800   120.85096639   232.29846059
 C      6   1   2     2.528460146138   123.35854840   129.97681615
 H     16   6   1     2.053114333040   121.40547852     0.65912879
 H     16   6   1     2.054934184771   120.92873639   181.35714767
 C     15   1   2     2.729702307773   126.49372861   175.30680247
 H     15   1   2     2.058212483293   116.14126908   357.95320343
 C     19  15   1     2.552020654329   126.38413697   175.44400626
 H     19  15   1     2.055327026515   115.93036335   354.82886114
 C     21  19  15     2.849091905973   125.67999582   357.11466357
 C     23  21  19     2.910041261349   111.80447203   128.03267936
 H     23  21  19     2.066273852330   112.33745622     3.91139760
 H     23  21  19     2.082284712239   107.74378589   246.71357775
 C     24  23  21     2.900472153609   112.68097517    50.87369285
 H     24  23  21     2.073667471020   109.05250653   288.81515621
 H     24  23  21     2.072853708968   109.17719030   172.82358028
 C     27  24  23     2.901381174749   111.83354603   306.06768979
 H     27  24  23     2.068659236683   108.87666488   182.52000603
 H     27  24  23     2.079663709545   109.23902255    66.04689122
 C     21  19  15     2.830868903981   122.79491755   177.86703474
 H     33  21  19     2.089775225823   106.28453964   123.80773656
 C     33  21  19     2.882043978199   121.00723109     1.65138199
 H     13   3   2     1.826621757056   107.57542021    62.74283126
 C     35  33  21     2.926426554450   103.54399753   196.32305120
 H     35  33  21     2.069353301088   112.15654727    74.36918731
 H     35  33  21     2.070577176658   110.73404187   314.72190229
 C     30  27  24     2.937804567042   116.05464471   166.11392937
 H     37  35  33     2.068786413164   111.68953984   249.08539548
 H     37  35  33     2.072500888988   110.53116312   130.54534639
 H     40  30  27     2.082591549626   106.42306143   320.47236575
 C     40  30  27     2.926122744404   118.92690315    80.69750389
 C     30  27  24     2.899322185077   111.13581608   294.23037048
 H     45  30  27     2.067957090114   111.38502186    66.56684263
 H     45  30  27     2.070339178131   110.65899515   306.47641228
 H     45  30  27     2.068506496999   111.67491080   186.56817941
 H     44  40  30     2.083688658434   106.95690570    62.15167629
 C     44  40  30     2.887857579051   113.39304089   302.91180877
 C     44  40  30     2.853706961341   108.32527590   177.07346958
 C     51  44  40     2.520173356093   126.84137151   111.52205475
 H     51  44  40     2.063005424718   115.45288781   294.08583907
 H     52  51  44     2.061756546546   119.83775848     2.62604773
 C     52  51  44     2.840934538735   124.41018856   183.13028933
 C     55  52  51     2.899942947311   110.53201422   232.15915776
 C     55  52  51     2.936740416261   112.23755823   106.60166070
 H     55  52  51     2.079357036381   107.84635519   350.03115823
 H     57  55  52     2.080798317085   105.90039494   176.88191222
 C     57  55  52     2.893512880372   113.45979940    58.68366432
 C     57  55  52     2.890484342624   111.04618155   293.83630637
 H     56  55  52     2.069483560648   110.55359938    62.37434089
 H     56  55  52     2.070233101957   111.36951754   302.91880053
 H     56  55  52     2.071543838117   110.94489011   182.53251096
 H     60  57  55     2.070359696509   110.21479407   174.84513854
 H     60  57  55     2.068706927936   112.22744423    54.83888100
 H     60  57  55     2.072145454205   110.93811888   293.79291601
 H     61  57  55     2.072379939513   110.60133890    65.12236658
 H     61  57  55     2.071605329275   111.29896670   305.37223354
 H     61  57  55     2.070699296739   110.85470341   184.91320460
 H     50  44  40     2.069897009200   110.59269058   187.78527381
 H     50  44  40     2.063321459647   111.08445442    68.27343909
 H     50  44  40     2.071891635938   111.34488819   307.92877997

---------------------
BASIS SET INFORMATION
---------------------
There are 3 groups of distinct atoms

 Group   1 Type C   : 7s4p contracted to 4s3p pattern {4111/211}
 Group   2 Type H   : 5s contracted to 3s pattern {311}
 Group   3 Type O   : 7s4p contracted to 4s3p pattern {4111/211}

Atom   0C    basis set group =>   1
Atom   1C    basis set group =>   1
Atom   2C    basis set group =>   1
Atom   3H    basis set group =>   2
Atom   4H    basis set group =>   2
Atom   5C    basis set group =>   1
Atom   6C    basis set group =>   1
Atom   7C    basis set group =>   1
Atom   8H    basis set group =>   2
Atom   9H    basis set group =>   2
Atom  10H    basis set group =>   2
Atom  11H    basis set group =>   2
Atom  12O    basis set group =>   3
Atom  13H    basis set group =>   2
Atom  14C    basis set group =>   1
Atom  15C    basis set group =>   1
Atom  16H    basis set group =>   2
Atom  17H    basis set group =>   2
Atom  18C    basis set group =>   1
Atom  19H    basis set group =>   2
Atom  20C    basis set group =>   1
Atom  21H    basis set group =>   2
Atom  22C    basis set group =>   1
Atom  23C    basis set group =>   1
Atom  24H    basis set group =>   2
Atom  25H    basis set group =>   2
Atom  26C    basis set group =>   1
Atom  27H    basis set group =>   2
Atom  28H    basis set group =>   2
Atom  29C    basis set group =>   1
Atom  30H    basis set group =>   2
Atom  31H    basis set group =>   2
Atom  32C    basis set group =>   1
Atom  33H    basis set group =>   2
Atom  34C    basis set group =>   1
Atom  35H    basis set group =>   2
Atom  36C    basis set group =>   1
Atom  37H    basis set group =>   2
Atom  38H    basis set group =>   2
Atom  39C    basis set group =>   1
Atom  40H    basis set group =>   2
Atom  41H    basis set group =>   2
Atom  42H    basis set group =>   2
Atom  43C    basis set group =>   1
Atom  44C    basis set group =>   1
Atom  45H    basis set group =>   2
Atom  46H    basis set group =>   2
Atom  47H    basis set group =>   2
Atom  48H    basis set group =>   2
Atom  49C    basis set group =>   1
Atom  50C    basis set group =>   1
Atom  51C    basis set group =>   1
Atom  52H    basis set group =>   2
Atom  53H    basis set group =>   2
Atom  54C    basis set group =>   1
Atom  55C    basis set group =>   1
Atom  56C    basis set group =>   1
Atom  57H    basis set group =>   2
Atom  58H    basis set group =>   2
Atom  59C    basis set group =>   1
Atom  60C    basis set group =>   1
Atom  61H    basis set group =>   2
Atom  62H    basis set group =>   2
Atom  63H    basis set group =>   2
Atom  64H    basis set group =>   2
Atom  65H    basis set group =>   2
Atom  66H    basis set group =>   2
Atom  67H    basis set group =>   2
Atom  68H    basis set group =>   2
Atom  69H    basis set group =>   2
Atom  70H    basis set group =>   2
Atom  71H    basis set group =>   2
Atom  72H    basis set group =>   2

-------------------------
BASIS SET IN INPUT FORMAT
-------------------------

 # Basis set for element : H 
 NewGTO H 
 S 3 
   1    1357.7500000000      0.0012928364
   2      54.3100000000      0.0588280685
   3       4.3448000000      0.9761499708
 S 1 
   1       0.6604910000      1.0000000000
 S 1 
   1       0.1366870000      1.0000000000
  end;

 # Basis set for element : C 
 NewGTO C 
 S 4 
   1  139534.0000000000      0.0001655246
   2    5581.3600000000      0.0074486101
   3     446.5090000000      0.1285821065
   4      67.4620000000      0.9218029311
 S 1 
   1      15.0674000000      1.0000000000
 S 1 
   1       3.9387600000      1.0000000000
 S 1 
   1       0.2999150000      1.0000000000
 P 2 
   1      28.3900000000      0.0816325586
   2       4.3676900000      0.9660360576
 P 1 
   1       0.8698170000      1.0000000000
 P 1 
   1       0.1889340000      1.0000000000
  end;

 # Basis set for element : O 
 NewGTO O 
 S 4 
   1  253789.0000000000      0.0001641076
   2   10151.6000000000      0.0074010921
   3     812.1250000000      0.1277711901
   4     122.6930000000      0.9223372164
 S 1 
   1      27.5608000000      1.0000000000
 S 1 
   1       7.3172600000      1.0000000000
 S 1 
   1       0.5792400000      1.0000000000
 P 2 
   1      53.4157000000      0.0793786106
   2       8.2177900000      0.9670506337
 P 1 
   1       1.6754400000      1.0000000000
 P 1 
   1       0.3506720000      1.0000000000
  end;

---------------------------------
AUXILIARY/J BASIS SET INFORMATION
---------------------------------
There are 3 groups of distinct atoms

 Group   1 Type C   : 12s5p4d2f1g contracted to 6s4p3d1f1g pattern {711111/2111/211/2/1}
 Group   2 Type H   : 5s2p1d contracted to 3s1p1d pattern {311/2/1}
 Group   3 Type O   : 12s5p4d2f1g contracted to 6s4p3d1f1g pattern {711111/2111/211/2/1}

Atom   0C    basis set group =>   1
Atom   1C    basis set group =>   1
Atom   2C    basis set group =>   1
Atom   3H    basis set group =>   2
Atom   4H    basis set group =>   2
Atom   5C    basis set group =>   1
Atom   6C    basis set group =>   1
Atom   7C    basis set group =>   1
Atom   8H    basis set group =>   2
Atom   9H    basis set group =>   2
Atom  10H    basis set group =>   2
Atom  11H    basis set group =>   2
Atom  12O    basis set group =>   3
Atom  13H    basis set group =>   2
Atom  14C    basis set group =>   1
Atom  15C    basis set group =>   1
Atom  16H    basis set group =>   2
Atom  17H    basis set group =>   2
Atom  18C    basis set group =>   1
Atom  19H    basis set group =>   2
Atom  20C    basis set group =>   1
Atom  21H    basis set group =>   2
Atom  22C    basis set group =>   1
Atom  23C    basis set group =>   1
Atom  24H    basis set group =>   2
Atom  25H    basis set group =>   2
Atom  26C    basis set group =>   1
Atom  27H    basis set group =>   2
Atom  28H    basis set group =>   2
Atom  29C    basis set group =>   1
Atom  30H    basis set group =>   2
Atom  31H    basis set group =>   2
Atom  32C    basis set group =>   1
Atom  33H    basis set group =>   2
Atom  34C    basis set group =>   1
Atom  35H    basis set group =>   2
Atom  36C    basis set group =>   1
Atom  37H    basis set group =>   2
Atom  38H    basis set group =>   2
Atom  39C    basis set group =>   1
Atom  40H    basis set group =>   2
Atom  41H    basis set group =>   2
Atom  42H    basis set group =>   2
Atom  43C    basis set group =>   1
Atom  44C    basis set group =>   1
Atom  45H    basis set group =>   2
Atom  46H    basis set group =>   2
Atom  47H    basis set group =>   2
Atom  48H    basis set group =>   2
Atom  49C    basis set group =>   1
Atom  50C    basis set group =>   1
Atom  51C    basis set group =>   1
Atom  52H    basis set group =>   2
Atom  53H    basis set group =>   2
Atom  54C    basis set group =>   1
Atom  55C    basis set group =>   1
Atom  56C    basis set group =>   1
Atom  57H    basis set group =>   2
Atom  58H    basis set group =>   2
Atom  59C    basis set group =>   1
Atom  60C    basis set group =>   1
Atom  61H    basis set group =>   2
Atom  62H    basis set group =>   2
Atom  63H    basis set group =>   2
Atom  64H    basis set group =>   2
Atom  65H    basis set group =>   2
Atom  66H    basis set group =>   2
Atom  67H    basis set group =>   2
Atom  68H    basis set group =>   2
Atom  69H    basis set group =>   2
Atom  70H    basis set group =>   2
Atom  71H    basis set group =>   2
Atom  72H    basis set group =>   2

-------------------------------------
AUXILIARY/J BASIS SET IN INPUT FORMAT
-------------------------------------

 # Auxiliary/J basis set for element : H 
 NewAuxJGTO H 
 S 3 
   1      15.6752927000      0.1007184237
   2       3.6063578000      0.3404257499
   3       1.2080016000      0.6491996172
 S 1 
   1       0.4726794000      1.0000000000
 S 1 
   1       0.2018100000      1.0000000000
 P 2 
   1       2.0281365000      0.5596620919
   2       0.5358730000      0.5596620919
 D 1 
   1       2.2165124000      1.0000000000
  end;

 # Auxiliary/J basis set for element : C 
 NewAuxJGTO C 
 S 7 
   1    1861.0916331000      0.0134602335
   2     642.9939764000      0.0299160374
   3     235.1105725000      0.1008649584
   4      90.7028894000      0.2370970548
   5      36.7794552000      0.3924037254
   6      15.6046273000      0.3195862154
   7       6.8907294000      0.0530104441
 S 1 
   1       3.1478850000     -1.0000000000
 S 1 
   1       1.4777287000      1.0000000000
 S 1 
   1       0.7076466000      1.0000000000
 S 1 
   1       0.3430122000      1.0000000000
 S 1 
   1       0.1669453000      1.0000000000
 P 2 
   1      13.5472892000     -0.6769313712
   2       5.4669419000     -0.3779500978
 P 1 
   1       2.1751721000      1.0000000000
 P 1 
   1       0.8582194000      1.0000000000
 P 1 
   1       0.3376720000      1.0000000000
 D 2 
   1       5.9287253000     -0.3533329857
   2       1.9809209000     -0.7456525731
 D 1 
   1       0.8055417000     -1.0000000000
 D 1 
   1       0.3531244000     -1.0000000000
 F 2 
   1       1.6755626000      0.6311076882
   2       0.5997536000      0.4968166032
 G 1 
   1       1.0024600000     -1.0000000000
  end;

 # Auxiliary/J basis set for element : O 
 NewAuxJGTO O 
 S 7 
   1    2876.8216605000      0.0168151159
   2    1004.7443032000      0.0340137548
   3     369.7579954000      0.1194951309
   4     142.9442404000      0.2664627624
   5      57.8366425000      0.4202764046
   6      24.3864983000      0.2765077335
   7      10.6622662000      0.0057008815
 S 1 
   1       4.8070437000     -1.0000000000
 S 1 
   1       2.2210770000      1.0000000000
 S 1 
   1       1.0447795000      1.0000000000
 S 1 
   1       0.4968425000      1.0000000000
 S 1 
   1       0.2371384000      1.0000000000
 P 2 
   1      64.2613382000     -0.2731534179
   2      16.3006076000     -0.8168011598
 P 1 
   1       4.3550542000      1.0000000000
 P 1 
   1       1.2019554000      1.0000000000
 P 1 
   1       0.3354196000      1.0000000000
 D 2 
   1       9.2146611000     -0.4661230638
   2       2.8435251000     -0.6600908911
 D 1 
   1       0.9955759000     -1.0000000000
 D 1 
   1       0.3649441000     -1.0000000000
 F 2 
   1       2.6420115000      0.5931563945
   2       0.7345613000      0.5931563945
 G 1 
   1       1.3931000000     -1.0000000000
  end;



           ************************************************************
           *        Program running with 4 parallel MPI-processes     *
           *              working on a common directory               *
           ************************************************************
------------------------------------------------------------------------------
                           ORCA GTO INTEGRAL CALCULATION
                           -- RI-GTO INTEGRALS CHOSEN --
------------------------------------------------------------------------------
------------------------------------------------------------------------------
                   ___                                                        
                  /   \      - P O W E R E D   B Y -                         
                 /     \                                                     
                 |  |  |   _    _      __       _____    __    __             
                 |  |  |  | |  | |    /  \     |  _  \  |  |  /  |          
                  \  \/   | |  | |   /    \    | | | |  |  | /  /          
                 / \  \   | |__| |  /  /\  \   | |_| |  |  |/  /          
                |  |  |   |  __  | /  /__\  \  |    /   |      \           
                |  |  |   | |  | | |   __   |  |    \   |  |\   \          
                \     /   | |  | | |  |  |  |  | |\  \  |  | \   \       
                 \___/    |_|  |_| |__|  |__|  |_| \__\ |__|  \__/        
                                                                              
                      - O R C A' S   B I G   F R I E N D -                    
                                      &                                       
                       - I N T E G R A L  F E E D E R -                       
                                                                              
 v1 FN, 2020, v2 2021                                                         
------------------------------------------------------------------------------


Reading SHARK input file inpJ.SHARKINP.tmp ... ok
----------------------
SHARK INTEGRAL PACKAGE
----------------------

Number of atoms                             ...     73
Number of basis functions                   ...    509
Number of shells                            ...    335
Maximum angular momentum                    ...      1
Integral batch strategy                     ... SHARK/LIBINT Hybrid
RI-J (if used) integral strategy            ... SPLIT-RIJ (Revised 2003 algorithm where possible)
Printlevel                                  ...      1
Contraction scheme used                     ... SEGMENTED contraction
Coulomb Range Separation                    ... NOT USED
Exchange Range Separation                   ... NOT USED
Finite Nucleus Model                        ... NOT USED
Auxiliary Coulomb fitting basis             ... AVAILABLE
   # of basis functions in Aux-J            ...   1905
   # of shells in Aux-J                     ...    655
   Maximum angular momentum in Aux-J        ...      4
Auxiliary J/K fitting basis                 ... NOT available
Auxiliary Correlation fitting basis         ... NOT available
Auxiliary 'external' fitting basis          ... NOT available
Integral threshold                          ...     3.000000e-11
Primitive cut-off                           ...     1.000000e-12
Primitive pair pre-selection threshold      ...     1.000000e-12

Calculating pre-screening integrals         ... done (  0.0 sec) Dimension = 335
Organizing shell pair data                  ... done (  0.1 sec)
Shell pair information
Total number of shell pairs                 ...     56280
Shell pairs after pre-screening             ...     21910
Total number of primitive shell pairs       ...    145865
Primitive shell pairs kept                  ...     37673
          la=0 lb=0:  11042 shell pairs
          la=1 lb=0:   9000 shell pairs
          la=1 lb=1:   1868 shell pairs

Calculating one electron integrals          ... done (  0.0 sec)
Calculating RI/J V-Matrix + Cholesky decomp.... done (  0.2 sec)
Calculating Nuclear repulsion               ... done (  0.0 sec) ENN=   2775.120272116210 Eh

SHARK setup successfully completed in   0.4 seconds

Maximum memory used throughout the entire GTOINT-calculation: 46.3 MB


           ************************************************************
           *        Program running with 4 parallel MPI-processes     *
           *              working on a common directory               *
           ************************************************************
-------------------------------------------------------------------------------
                                 ORCA SCF
-------------------------------------------------------------------------------

------------
SCF SETTINGS
------------
Hamiltonian:
 Density Functional     Method          .... DFT(GTOs)
 Exchange Functional    Exchange        .... PBE
   PBE kappa parameter   XKappa         ....  0.804000
   PBE mue parameter    XMuePBE         ....  0.219520
 Correlation Functional Correlation     .... PBE
   PBE beta parameter  CBetaPBE         ....  0.066725
 LDA part of GGA corr.  LDAOpt          .... PW91-LDA
 Gradients option       PostSCFGGA      .... off
 Hybrid DFT is turned on
   Fraction HF Exchange ScalHFX         ....  0.250000
   Scaling of DF-GGA-X  ScalDFX         ....  0.750000
   Scaling of DF-GGA-C  ScalDFC         ....  1.000000
   Scaling of DF-LDA-C  ScalLDAC        ....  1.000000
   Perturbative correction              ....  0.000000
   Density functional embedding theory  .... OFF
   NL short-range parameter             ....  6.900000
 RI-approximation to the Coulomb term is turned on
   Number of AuxJ basis functions       .... 1905
   RIJ-COSX (HFX calculated with COS-X)).... on


General Settings:
 Integral files         IntName         .... inpJ
 Hartree-Fock type      HFTyp           .... RHF
 Total Charge           Charge          ....    0
 Multiplicity           Mult            ....    1
 Number of Electrons    NEL             ....  220
 Basis Dimension        Dim             ....  509
 Nuclear Repulsion      ENuc            ....   2775.1202721162 Eh

Convergence Acceleration:
 DIIS                   CNVDIIS         .... on
   Start iteration      DIISMaxIt       ....    12
   Startup error        DIISStart       ....  0.200000
   # of expansion vecs  DIISMaxEq       ....     5
   Bias factor          DIISBfac        ....   1.050
   Max. coefficient     DIISMaxC        ....  10.000
 Trust-Rad. Augm. Hess. CNVTRAH         .... auto
   Auto Start mean grad. ratio tolernc. ....  1.125000
   Auto Start start iteration           ....    20
   Auto Start num. interpolation iter.  ....    10
   Max. Number of Micro iterations      ....    16
   Max. Number of Macro iterations      .... Maxiter - #DIIS iter
   Number of Davidson start vectors     ....     2
   Converg. threshold I  (grad. norm)   ....   1.000e-04
   Converg. threshold II (energy diff.) ....   1.000e-07
   Grad. Scal. Fac. for Micro threshold ....   0.100
   Minimum threshold for Micro iter.    ....   0.010
   NR start threshold (gradient norm)   ....   0.001
   Initial trust radius                 ....   0.400
   Minimum AH scaling param. (alpha)    ....   1.000
   Maximum AH scaling param. (alpha)    .... 1000.000
   Orbital update algorithm             .... Taylor
   White noise on init. David. guess    .... on
   Maximum white noise                  ....   0.010
   Quad. conv. algorithm                .... NR
 SOSCF                  CNVSOSCF        .... off
 Level Shifting         CNVShift        .... on
   Level shift para.    LevelShift      ....    0.2500
   Turn off err/grad.   ShiftErr        ....    0.0010
 Zerner damping         CNVZerner       .... off
 Static damping         CNVDamp         .... on
   Fraction old density DampFac         ....    0.7000
   Max. Damping (<1)    DampMax         ....    0.9800
   Min. Damping (>=0)   DampMin         ....    0.0000
   Turn off err/grad.   DampErr         ....    0.1000
 Fernandez-Rico         CNVRico         .... off

SCF Procedure:
 Maximum # iterations   MaxIter         ....   125
 SCF integral mode      SCFMode         .... Direct
   Integral package                     .... SHARK and LIBINT hybrid scheme
 Reset frequency        DirectResetFreq ....    20
 Integral Threshold     Thresh          ....  3.000e-11 Eh
 Primitive CutOff       TCut            ....  1.000e-12 Eh

Convergence Tolerance:
 Convergence Check Mode ConvCheckMode   .... Total+1el-Energy
 Convergence forced     ConvForced      .... 0
 Energy Change          TolE            ....  1.000e-07 Eh
 1-El. energy change                    ....  1.000e-04 Eh
 DIIS Error             TolErr          ....  1.000e-07


Diagonalization of the overlap matrix:
Smallest eigenvalue                        ... 7.559e-03
Time for diagonalization                   ...    0.039 sec
Threshold for overlap eigenvalues          ... 1.000e-08
Number of eigenvalues below threshold      ... 0
Time for construction of square roots      ...    0.033 sec
Total time needed                          ...    0.074 sec

Time for model grid setup =    0.730 sec

------------------------------
INITIAL GUESS: MODEL POTENTIAL
------------------------------
Loading Hartree-Fock densities                     ... done
Calculating cut-offs                               ... done
Initializing the effective Hamiltonian             ... done
Setting up the integral package (SHARK)            ... done
Starting the Coulomb interaction                   ... done (   0.3 sec)
Reading the grid                                   ... done
Mapping shells                                     ... done
Starting the XC term evaluation                    ... done (   0.1 sec)
  promolecular density results
     # of electrons  =    219.985344272
     EX              =   -164.432657371
     EC              =     -7.325350685
     EX+EC           =   -171.758008057
Transforming the Hamiltonian                       ... done (   0.0 sec)
Diagonalizing the Hamiltonian                      ... done (   0.0 sec)
Back transforming the eigenvectors                 ... done (   0.0 sec)
Now organizing SCF variables                       ... done
                      ------------------
                      INITIAL GUESS DONE (   1.3 sec)
                      ------------------
-------------------
DFT GRID GENERATION
-------------------

General Integration Accuracy     IntAcc      ... 4.388
Radial Grid Type                 RadialGrid  ... OptM3 with GC (2021)
Angular Grid (max. ang.)         AngularGrid ... 4 (Lebedev-302)
Angular grid pruning method      GridPruning ... 4 (adaptive)
Weight generation scheme         WeightScheme... Becke
Basis function cutoff            BFCut       ... 1.0000e-11
Integration weight cutoff        WCut        ... 1.0000e-14
Angular grids for H and He will be reduced by one unit
Partially contracted basis set               ... off
Rotationally invariant grid construction     ... off

Total number of grid points                  ...   309765
Total number of batches                      ...     4875
Average number of points per batch           ...       63
Average number of grid points per atom       ...     4243
Time for grid setup =    2.786 sec

--------------------
COSX GRID GENERATION
--------------------

GRIDX 1
-------
General Integration Accuracy     IntAcc      ... 3.816
Radial Grid Type                 RadialGrid  ... OptM3 with GC (2021)
Angular Grid (max. ang.)         AngularGrid ... 1 (Lebedev-50)
Angular grid pruning method      GridPruning ... 4 (adaptive)
Weight generation scheme         WeightScheme... Becke
Basis function cutoff            BFCut       ... 1.0000e-11
Integration weight cutoff        WCut        ... 1.0000e-14
Angular grids for H and He will be reduced by one unit
Partially contracted basis set               ... on
Rotationally invariant grid construction     ... off

Total number of grid points                  ...    39416
Total number of batches                      ...      657
Average number of points per batch           ...       59
Average number of grid points per atom       ...      540
UseSFitting                                  ... on

GRIDX 2
-------
General Integration Accuracy     IntAcc      ... 4.020
Radial Grid Type                 RadialGrid  ... OptM3 with GC (2021)
Angular Grid (max. ang.)         AngularGrid ... 2 (Lebedev-110)
Angular grid pruning method      GridPruning ... 4 (adaptive)
Weight generation scheme         WeightScheme... Becke
Basis function cutoff            BFCut       ... 1.0000e-11
Integration weight cutoff        WCut        ... 1.0000e-14
Angular grids for H and He will be reduced by one unit
Partially contracted basis set               ... on
Rotationally invariant grid construction     ... off

Total number of grid points                  ...    81425
Total number of batches                      ...     1313
Average number of points per batch           ...       62
Average number of grid points per atom       ...     1115
UseSFitting                                  ... on

GRIDX 3
-------
General Integration Accuracy     IntAcc      ... 4.338
Radial Grid Type                 RadialGrid  ... OptM3 with GC (2021)
Angular Grid (max. ang.)         AngularGrid ... 3 (Lebedev-194)
Angular grid pruning method      GridPruning ... 4 (adaptive)
Weight generation scheme         WeightScheme... Becke
Basis function cutoff            BFCut       ... 1.0000e-11
Integration weight cutoff        WCut        ... 1.0000e-14
Angular grids for H and He will be reduced by one unit
Partially contracted basis set               ... on
Rotationally invariant grid construction     ... off

Total number of grid points                  ...   176208
Total number of batches                      ...     2791
Average number of points per batch           ...       63
Average number of grid points per atom       ...     2414
UseSFitting                                  ... on

Time for X-Grid setup             =    2.767 sec


--------------------
CPCM SOLVATION MODEL
--------------------
CPCM parameters:
  Epsilon                                         ...       4.9000
  Refrac                                          ...       1.4500
  Rsolv                                           ...       1.3000
  Surface type                                    ... GAUSSIAN VDW
  Epsilon function type                           ...         CPCM
Radii:
 Radius for C  used is    3.8550 Bohr (=   2.0400 Ang.)
 Radius for H  used is    2.4944 Bohr (=   1.3200 Ang.)
 Radius for O  used is    3.4469 Bohr (=   1.8240 Ang.)
Calculating surface                               ...        done! (  0.0s)
GEPOL surface points                              ...         3621
GEPOL Volume                                      ...    3602.2228
GEPOL Surface-area                                ...    1788.4562
Calculating surface distance matrix               ...        done! (  0.1s)
Performing Cholesky decomposition & store         ...        done! (  0.5s)
Overall time for CPCM initialization              ...                 0.6s
--------------
SCF ITERATIONS
--------------
ITER       Energy         Delta-E        Max-DP      RMS-DP      [F,P]     Damp
               ***  Starting incremental Fock matrix formation  ***

  HOMO= 109 E= -3.889 eV LUMO=  7.783 eV gap=  11.672 eV
  0  -1165.0079445345   0.000000000000 0.09738238  0.00106189  0.1941908 0.7000

  HOMO= 109 E= -4.739 eV LUMO=  7.086 eV gap=  11.825 eV
  1  -1165.2269198440  -0.218975309501 0.06534952  0.00078199  0.0946268 0.7000
                               ***Turning on DIIS***

  HOMO= 109 E= -5.339 eV LUMO=  6.528 eV gap=  11.867 eV
  2  -1165.3279680742  -0.101048230256 0.10348377  0.00138614  0.0376722 0.0000

  HOMO= 109 E= -5.905 eV LUMO=  5.986 eV gap=  11.891 eV
  3  -1165.4724251104  -0.144457036180 0.05146640  0.00057038  0.0453647 0.0000

  HOMO= 109 E= -5.985 eV LUMO=  5.906 eV gap=  11.891 eV
  4  -1165.5080468110  -0.035621700600 0.01231732  0.00013487  0.0061868 0.0000

  HOMO= 109 E= -5.932 eV LUMO=  5.966 eV gap=  11.899 eV
  5  -1165.5089142624  -0.000867451346 0.00301113  0.00003849  0.0043854 0.0000

  HOMO= 109 E= -5.918 eV LUMO=  5.981 eV gap=  11.899 eV
  6  -1165.5089939470  -0.000079684622 0.00117148  0.00001165  0.0010154 0.0000

  HOMO= 109 E= -5.920 eV LUMO= -0.824 eV gap=   5.096 eV
  7  -1165.5089985586  -0.000004611636 0.00050142  0.00000595  0.0002264 0.0000
               *** Restarting incremental Fock matrix formation ***
                                   *** Resetting DIIS ***

  HOMO= 109 E= -5.919 eV LUMO= -0.823 eV gap=   5.097 eV
  8  -1165.5091379319  -0.000139373276 0.00041659  0.00000283  0.0001169 0.0000

  HOMO= 109 E= -5.920 eV LUMO= -0.823 eV gap=   5.097 eV
  9  -1165.5091379840  -0.000000052130 0.00014591  0.00000129  0.0001514 0.0000

  HOMO= 109 E= -5.920 eV LUMO= -0.823 eV gap=   5.097 eV
 10  -1165.5091381018  -0.000000117814 0.00006924  0.00000043  0.0000438 0.0000

  HOMO= 109 E= -5.920 eV LUMO= -0.823 eV gap=   5.097 eV
 11  -1165.5091381431  -0.000000041293 0.00002544  0.00000018  0.0000225 0.0000

  HOMO= 109 E= -5.920 eV LUMO= -0.823 eV gap=   5.097 eV
 12  -1165.5091381296   0.000000013521 0.00000766  0.00000005  0.0000041 0.0000
                 **** Energy Check signals convergence ****

               *****************************************************
               *                     SUCCESS                       *
               *           SCF CONVERGED AFTER  13 CYCLES          *
               *****************************************************

Old exchange energy                            =    -42.067698728 Eh
New exchange energy                            =    -42.067772663 Eh
Exchange energy change after final integration =     -0.000073934 Eh
Total energy after final integration           =  -1165.509212075 Eh
Final COS-X integration done in                =    14.912 sec

----------------
TOTAL SCF ENERGY
----------------

Total Energy       :        -1165.50921207 Eh          -31715.11803 eV

Components:
Nuclear Repulsion  :         2775.12027212 Eh           75514.86171 eV
Electronic Energy  :        -3940.62948419 Eh         -107229.97973 eV
One Electron Energy:        -7092.21018803 Eh         -192988.85058 eV
Two Electron Energy:         3151.58070384 Eh           85758.87085 eV
Max COSX asymmetry :            0.00000294 Eh               0.00008 eV
CPCM Dielectric    :           -0.01520619 Eh              -0.41378 eV

Virial components:
Potential Energy   :        -2322.41299085 Eh          -63196.07031 eV
Kinetic Energy     :         1156.90377878 Eh           31480.95228 eV
Virial Ratio       :            2.00743833


DFT components:
N(Alpha)           :      110.000158493712 electrons
N(Beta)            :      110.000158493712 electrons
N(Total)           :      220.000316987424 electrons
E(X)               :     -125.746215568049 Eh       
E(C)               :       -7.326621720216 Eh       
E(XC)              :     -133.072837288265 Eh       
DFET-embed. en.    :        0.000000000000 Eh       
CPCM Solvation Model Properties:
Surface-charge          :           -0.03435436
Charge-correction       :           -0.00004768 Eh              -0.00130 eV
Free-energy (cav+disp)  :  This term is not implemented in the current solvation scheme

---------------
SCF CONVERGENCE
---------------

  Last Energy change         ...   -1.0863e-08  Tolerance :   1.0000e-07
  Last MAX-Density change    ...    0.0000e+00  Tolerance :   1.0000e-05
  Last RMS-Density change    ...    0.0000e+00  Tolerance :   1.0000e-06
  Last DIIS Error            ...    2.8064e-06  Tolerance :   1.0000e-07

             **** THE GBW FILE WAS UPDATED (inpJ.gbw) ****
             **** DENSITY inpJ.scfp WAS UPDATED ****
             **** ENERGY FILE WAS UPDATED (inpJ.en.tmp) ****
             **** THE GBW FILE WAS UPDATED (inpJ.gbw) ****
             **** DENSITY inpJ.scfp WAS UPDATED ****
----------------
ORBITAL ENERGIES
----------------

  NO   OCC          E(Eh)            E(eV) 
   0   2.0000     -19.215061      -522.8684 
   1   2.0000     -10.301385      -280.3149 
   2   2.0000     -10.269502      -279.4474 
   3   2.0000     -10.266783      -279.3734 
   4   2.0000     -10.261920      -279.2410 
   5   2.0000     -10.256611      -279.0966 
   6   2.0000     -10.253397      -279.0091 
   7   2.0000     -10.251908      -278.9686 
   8   2.0000     -10.249236      -278.8959 
   9   2.0000     -10.248441      -278.8742 
  10   2.0000     -10.247905      -278.8597 
  11   2.0000     -10.246706      -278.8270 
  12   2.0000     -10.246109      -278.8108 
  13   2.0000     -10.245682      -278.7992 
  14   2.0000     -10.243896      -278.7506 
  15   2.0000     -10.243516      -278.7402 
  16   2.0000     -10.243237      -278.7327 
  17   2.0000     -10.241906      -278.6964 
  18   2.0000     -10.241093      -278.6743 
  19   2.0000     -10.240731      -278.6645 
  20   2.0000     -10.239085      -278.6197 
  21   2.0000     -10.235292      -278.5165 
  22   2.0000     -10.234742      -278.5015 
  23   2.0000     -10.233579      -278.4698 
  24   2.0000     -10.225956      -278.2624 
  25   2.0000     -10.224163      -278.2136 
  26   2.0000     -10.223412      -278.1932 
  27   2.0000     -10.221978      -278.1542 
  28   2.0000     -10.220734      -278.1203 
  29   2.0000      -1.045756       -28.4565 
  30   2.0000      -0.901187       -24.5225 
  31   2.0000      -0.883677       -24.0461 
  32   2.0000      -0.859489       -23.3879 
  33   2.0000      -0.845584       -23.0095 
  34   2.0000      -0.821981       -22.3672 
  35   2.0000      -0.814134       -22.1537 
  36   2.0000      -0.794972       -21.6323 
  37   2.0000      -0.794775       -21.6269 
  38   2.0000      -0.775008       -21.0890 
  39   2.0000      -0.758060       -20.6279 
  40   2.0000      -0.741446       -20.1758 
  41   2.0000      -0.733680       -19.9644 
  42   2.0000      -0.714296       -19.4370 
  43   2.0000      -0.701500       -19.0888 
  44   2.0000      -0.699315       -19.0293 
  45   2.0000      -0.694063       -18.8864 
  46   2.0000      -0.669218       -18.2103 
  47   2.0000      -0.658513       -17.9190 
  48   2.0000      -0.634151       -17.2561 
  49   2.0000      -0.622082       -16.9277 
  50   2.0000      -0.619509       -16.8577 
  51   2.0000      -0.609990       -16.5987 
  52   2.0000      -0.597670       -16.2634 
  53   2.0000      -0.579727       -15.7752 
  54   2.0000      -0.558422       -15.1954 
  55   2.0000      -0.546028       -14.8582 
  56   2.0000      -0.541081       -14.7236 
  57   2.0000      -0.529808       -14.4168 
  58   2.0000      -0.515055       -14.0154 
  59   2.0000      -0.508663       -13.8414 
  60   2.0000      -0.496456       -13.5092 
  61   2.0000      -0.487648       -13.2696 
  62   2.0000      -0.483788       -13.1646 
  63   2.0000      -0.480108       -13.0644 
  64   2.0000      -0.475882       -12.9494 
  65   2.0000      -0.467593       -12.7238 
  66   2.0000      -0.461119       -12.5477 
  67   2.0000      -0.459155       -12.4943 
  68   2.0000      -0.458465       -12.4755 
  69   2.0000      -0.456687       -12.4271 
  70   2.0000      -0.448506       -12.2045 
  71   2.0000      -0.441820       -12.0225 
  72   2.0000      -0.433618       -11.7993 
  73   2.0000      -0.431252       -11.7350 
  74   2.0000      -0.430529       -11.7153 
  75   2.0000      -0.425546       -11.5797 
  76   2.0000      -0.415516       -11.3068 
  77   2.0000      -0.413730       -11.2582 
  78   2.0000      -0.408818       -11.1245 
  79   2.0000      -0.402729       -10.9588 
  80   2.0000      -0.400329       -10.8935 
  81   2.0000      -0.398384       -10.8406 
  82   2.0000      -0.394417       -10.7326 
  83   2.0000      -0.389490       -10.5986 
  84   2.0000      -0.385449       -10.4886 
  85   2.0000      -0.379241       -10.3197 
  86   2.0000      -0.378935       -10.3113 
  87   2.0000      -0.371284       -10.1031 
  88   2.0000      -0.367539       -10.0013 
  89   2.0000      -0.366601        -9.9757 
  90   2.0000      -0.362275        -9.8580 
  91   2.0000      -0.358859        -9.7651 
  92   2.0000      -0.352970        -9.6048 
  93   2.0000      -0.344143        -9.3646 
  94   2.0000      -0.340973        -9.2783 
  95   2.0000      -0.339838        -9.2475 
  96   2.0000      -0.336985        -9.1698 
  97   2.0000      -0.333812        -9.0835 
  98   2.0000      -0.329781        -8.9738 
  99   2.0000      -0.327071        -8.9000 
 100   2.0000      -0.326746        -8.8912 
 101   2.0000      -0.322683        -8.7807 
 102   2.0000      -0.319731        -8.7003 
 103   2.0000      -0.316065        -8.6006 
 104   2.0000      -0.311708        -8.4820 
 105   2.0000      -0.300318        -8.1721 
 106   2.0000      -0.280084        -7.6215 
 107   2.0000      -0.274807        -7.4779 
 108   2.0000      -0.255707        -6.9582 
 109   2.0000      -0.217544        -5.9197 
 110   0.0000      -0.030234        -0.8227 
 111   0.0000       0.021211         0.5772 
 112   0.0000       0.028190         0.7671 
 113   0.0000       0.080324         2.1857 
 114   0.0000       0.091170         2.4809 
 115   0.0000       0.096584         2.6282 
 116   0.0000       0.101827         2.7709 
 117   0.0000       0.105878         2.8811 
 118   0.0000       0.108397         2.9496 
 119   0.0000       0.115593         3.1455 
 120   0.0000       0.118582         3.2268 
 121   0.0000       0.120811         3.2874 
 122   0.0000       0.125039         3.4025 
 123   0.0000       0.129782         3.5316 
 124   0.0000       0.137892         3.7522 
 125   0.0000       0.139080         3.7846 
 126   0.0000       0.140873         3.8333 
 127   0.0000       0.142781         3.8853 
 128   0.0000       0.148161         4.0317 
 129   0.0000       0.151361         4.1188 
 130   0.0000       0.152865         4.1597 
 131   0.0000       0.158399         4.3103 
 132   0.0000       0.161561         4.3963 
 133   0.0000       0.164402         4.4736 
 134   0.0000       0.165176         4.4947 
 135   0.0000       0.166734         4.5371 
 136   0.0000       0.170039         4.6270 
 137   0.0000       0.172877         4.7042 
 138   0.0000       0.177476         4.8294 
 139   0.0000       0.179851         4.8940 
 140   0.0000       0.183609         4.9963 
 141   0.0000       0.184285         5.0147 
 142   0.0000       0.187517         5.1026 
 143   0.0000       0.187915         5.1134 
 144   0.0000       0.193056         5.2533 
 145   0.0000       0.196236         5.3399 
 146   0.0000       0.201063         5.4712 
 147   0.0000       0.202598         5.5130 
 148   0.0000       0.205920         5.6034 
 149   0.0000       0.208687         5.6787 
 150   0.0000       0.216362         5.8875 
 151   0.0000       0.220536         6.0011 
 152   0.0000       0.225335         6.1317 
 153   0.0000       0.227881         6.2010 
 154   0.0000       0.235161         6.3991 
 155   0.0000       0.237435         6.4609 
 156   0.0000       0.241268         6.5652 
 157   0.0000       0.246482         6.7071 
 158   0.0000       0.247582         6.7370 
 159   0.0000       0.251970         6.8565 
 160   0.0000       0.253740         6.9046 
 161   0.0000       0.260703         7.0941 
 162   0.0000       0.262888         7.1535 
 163   0.0000       0.263600         7.1729 
 164   0.0000       0.269970         7.3463 
 165   0.0000       0.273327         7.4376 
 166   0.0000       0.279135         7.5956 
 167   0.0000       0.283687         7.7195 
 168   0.0000       0.287011         7.8100 
 169   0.0000       0.291680         7.9370 
 170   0.0000       0.295282         8.0350 
 171   0.0000       0.302721         8.2375 
 172   0.0000       0.305003         8.2996 
 173   0.0000       0.306822         8.3491 
 174   0.0000       0.312515         8.5040 
 175   0.0000       0.320125         8.7110 
 176   0.0000       0.328285         8.9331 
 177   0.0000       0.336246         9.1497 
 178   0.0000       0.353789         9.6271 
 179   0.0000       0.361272         9.8307 
 180   0.0000       0.366596         9.9756 
 181   0.0000       0.379565        10.3285 
 182   0.0000       0.380900        10.3648 
 183   0.0000       0.411103        11.1867 
 184   0.0000       0.420030        11.4296 
 185   0.0000       0.461470        12.5572 
 186   0.0000       0.464477        12.6391 
 187   0.0000       0.491076        13.3628 
 188   0.0000       0.505204        13.7473 
 189   0.0000       0.520227        14.1561 
 190   0.0000       0.523815        14.2537 
 191   0.0000       0.532784        14.4978 
 192   0.0000       0.542623        14.7655 
 193   0.0000       0.548568        14.9273 
 194   0.0000       0.561446        15.2777 
 195   0.0000       0.569062        15.4850 
 196   0.0000       0.578603        15.7446 
 197   0.0000       0.582490        15.8504 
 198   0.0000       0.584759        15.9121 
 199   0.0000       0.598874        16.2962 
 200   0.0000       0.608719        16.5641 
 201   0.0000       0.613638        16.6979 
 202   0.0000       0.625664        17.0252 
 203   0.0000       0.626751        17.0548 
 204   0.0000       0.640788        17.4367 
 205   0.0000       0.645353        17.5610 
 206   0.0000       0.650340        17.6966 
 207   0.0000       0.659069        17.9342 
 208   0.0000       0.663217        18.0470 
 209   0.0000       0.667534        18.1645 
 210   0.0000       0.675975        18.3942 
 211   0.0000       0.688438        18.7334 
 212   0.0000       0.694016        18.8851 
 213   0.0000       0.700229        19.0542 
 214   0.0000       0.707739        19.2585 
 215   0.0000       0.710525        19.3344 
 216   0.0000       0.711945        19.3730 
 217   0.0000       0.717167        19.5151 
 218   0.0000       0.726354        19.7651 
 219   0.0000       0.726659        19.7734 
 220   0.0000       0.729200        19.8425 
 221   0.0000       0.732214        19.9246 
 222   0.0000       0.739605        20.1257 
 223   0.0000       0.743634        20.2353 
 224   0.0000       0.748823        20.3765 
 225   0.0000       0.750800        20.4303 
 226   0.0000       0.758286        20.6340 
 227   0.0000       0.762157        20.7393 
 228   0.0000       0.764989        20.8164 
 229   0.0000       0.767470        20.8839 
 230   0.0000       0.774398        21.0724 
 231   0.0000       0.776458        21.1285 
 232   0.0000       0.778476        21.1834 
 233   0.0000       0.785893        21.3852 
 234   0.0000       0.791079        21.5264 
 235   0.0000       0.794186        21.6109 
 236   0.0000       0.800292        21.7771 
 237   0.0000       0.808271        21.9942 
 238   0.0000       0.818536        22.2735 
 239   0.0000       0.819816        22.3083 
 240   0.0000       0.823217        22.4009 
 241   0.0000       0.825811        22.4715 
 242   0.0000       0.834038        22.6953 
 243   0.0000       0.840127        22.8610 
 244   0.0000       0.854046        23.2398 
 245   0.0000       0.855857        23.2890 
 246   0.0000       0.859951        23.4005 
 247   0.0000       0.863918        23.5084 
 248   0.0000       0.865910        23.5626 
 249   0.0000       0.869455        23.6591 
 250   0.0000       0.871777        23.7223 
 251   0.0000       0.875519        23.8241 
 252   0.0000       0.877183        23.8694 
 253   0.0000       0.878483        23.9047 
 254   0.0000       0.879738        23.9389 
 255   0.0000       0.881643        23.9907 
 256   0.0000       0.884836        24.0776 
 257   0.0000       0.888471        24.1765 
 258   0.0000       0.889456        24.2033 
 259   0.0000       0.898245        24.4425 
 260   0.0000       0.899976        24.4896 
 261   0.0000       0.903807        24.5938 
 262   0.0000       0.906478        24.6665 
 263   0.0000       0.915119        24.9016 
 264   0.0000       0.917903        24.9774 
 265   0.0000       0.924197        25.1487 
 266   0.0000       0.928436        25.2640 
 267   0.0000       0.930633        25.3238 
 268   0.0000       0.934420        25.4269 
 269   0.0000       0.938224        25.5304 
 270   0.0000       0.941398        25.6167 
 271   0.0000       0.945438        25.7267 
 272   0.0000       0.947308        25.7776 
 273   0.0000       0.949287        25.8314 
 274   0.0000       0.958726        26.0883 
 275   0.0000       0.966944        26.3119 
 276   0.0000       0.969700        26.3869 
 277   0.0000       0.975123        26.5345 
 278   0.0000       0.976170        26.5629 
 279   0.0000       0.986452        26.8427 
 280   0.0000       0.991954        26.9924 
 281   0.0000       0.999976        27.2107 
 282   0.0000       1.003044        27.2942 
 283   0.0000       1.016451        27.6590 
 284   0.0000       1.025274        27.8991 
 285   0.0000       1.028705        27.9925 
 286   0.0000       1.029401        28.0114 
 287   0.0000       1.050178        28.5768 
 288   0.0000       1.057291        28.7703 
 289   0.0000       1.066710        29.0267 
 290   0.0000       1.070046        29.1174 
 291   0.0000       1.075485        29.2654 
 292   0.0000       1.084957        29.5232 
 293   0.0000       1.091104        29.6904 
 294   0.0000       1.100325        29.9414 
 295   0.0000       1.109338        30.1866 
 296   0.0000       1.123730        30.5783 
 297   0.0000       1.125668        30.6310 
 298   0.0000       1.141056        31.0497 
 299   0.0000       1.146487        31.1975 
 300   0.0000       1.163642        31.6643 
 301   0.0000       1.166054        31.7299 
 302   0.0000       1.178285        32.0628 
 303   0.0000       1.209871        32.9223 
 304   0.0000       1.240745        33.7624 
 305   0.0000       1.247090        33.9350 
 306   0.0000       1.254696        34.1420 
 307   0.0000       1.263525        34.3823 
 308   0.0000       1.280922        34.8557 
 309   0.0000       1.305501        35.5245 
 310   0.0000       1.330328        36.2001 
 311   0.0000       1.341980        36.5171 
 312   0.0000       1.356499        36.9122 
 313   0.0000       1.372564        37.3494 
 314   0.0000       1.406207        38.2648 
 315   0.0000       1.525267        41.5046 
 316   0.0000       1.526060        41.5262 
 317   0.0000       1.565653        42.6036 
 318   0.0000       1.605898        43.6987 
 319   0.0000       1.657395        45.1000 
 320   0.0000       6.207807       168.9230 
 321   0.0000       6.239976       169.7984 
 322   0.0000       6.259444       170.3281 
 323   0.0000       6.271589       170.6586 
 324   0.0000       6.283549       170.9841 
 325   0.0000       6.289226       171.1386 
 326   0.0000       6.297259       171.3571 
 327   0.0000       6.304941       171.5662 
 328   0.0000       6.314536       171.8273 
 329   0.0000       6.338387       172.4763 
 330   0.0000       6.342121       172.5779 
 331   0.0000       6.351701       172.8386 
 332   0.0000       6.362109       173.1218 
 333   0.0000       6.371190       173.3689 
 334   0.0000       6.385087       173.7470 
 335   0.0000       6.392966       173.9615 
 336   0.0000       6.397669       174.0894 
 337   0.0000       6.414437       174.5457 
 338   0.0000       6.420485       174.7103 
 339   0.0000       6.424155       174.8101 
 340   0.0000       6.430947       174.9950 
 341   0.0000       6.439630       175.2312 
 342   0.0000       6.450810       175.5355 
 343   0.0000       6.454538       175.6369 
 344   0.0000       6.467894       176.0003 
 345   0.0000       6.471030       176.0857 
 346   0.0000       6.481891       176.3812 
 347   0.0000       6.502498       176.9420 
 348   0.0000       6.506273       177.0447 
 349   0.0000       6.513747       177.2481 
 350   0.0000       6.523456       177.5123 
 351   0.0000       6.524208       177.5327 
 352   0.0000       6.536663       177.8717 
 353   0.0000       6.541461       178.0022 
 354   0.0000       6.543699       178.0631 
 355   0.0000       6.548179       178.1850 
 356   0.0000       6.557053       178.4265 
 357   0.0000       6.562954       178.5870 
 358   0.0000       6.568105       178.7272 
 359   0.0000       6.578055       178.9980 
 360   0.0000       6.583856       179.1558 
 361   0.0000       6.586738       179.2342 
 362   0.0000       6.591133       179.3539 
 363   0.0000       6.600856       179.6184 
 364   0.0000       6.606622       179.7753 
 365   0.0000       6.607803       179.8074 
 366   0.0000       6.611799       179.9162 
 367   0.0000       6.614793       179.9977 
 368   0.0000       6.618912       180.1097 
 369   0.0000       6.621698       180.1856 
 370   0.0000       6.624552       180.2632 
 371   0.0000       6.631378       180.4490 
 372   0.0000       6.632191       180.4711 
 373   0.0000       6.638158       180.6335 
 374   0.0000       6.641350       180.7203 
[...]
     69 H        0.000      0.000      0.000      0.000      0.000      0.000
     70 H        0.000      0.000      0.000      0.000      0.003      0.036
     71 H        0.000      0.000      0.000     -0.000      0.001      0.020
     72 H        0.000      0.000      0.000      0.000      0.001      0.012
                 25 H       27 H       28 H       30 H       31 H       33 H  
      3 H        2.512     -0.107      0.068      0.000      0.000      2.434
      4 H        0.115     -0.004      0.004      0.000      0.000      0.102
      8 H       -0.344      0.012      0.000      0.000      0.000     -0.314
      9 H        0.000      0.000      0.000      0.000      0.000      0.135
     10 H        0.000      0.000      0.000      0.000      0.000      0.000
     11 H        0.000      0.000      0.000      0.000      0.000      0.000
     13 H       -0.102      0.004     -0.004      0.000      0.000     -0.105
     16 H       -0.378      0.012     -0.007     -0.022     -0.001     -0.349
     17 H       -0.371      0.012      0.000      0.000      0.000     -0.326
     19 H        0.953     -0.049      0.021      0.087      0.006      1.170
     21 H       -2.845      0.198      0.636     -0.214     -0.026     -2.628
     24 H      -14.123      4.344      2.288      0.716     -0.509     -0.125
     25 H        0.000     13.046      5.243     -0.631     -0.358     -2.381
     27 H       13.046      0.000    -13.582      3.974     13.009      0.070
     28 H        5.243    -13.582      0.000      2.674      4.088      0.283
     30 H       -0.631      3.974      2.674      0.000    -12.961      0.018
     31 H       -0.358     13.009      4.088    -12.961      0.000     -0.320
     33 H       -2.381      0.070      0.283      0.018     -0.320      0.000
     35 H        0.000      0.000      0.000      0.000      0.000      0.000
     37 H        0.271      0.005     -0.036      0.518     -0.037      6.510
     38 H        0.193      0.001     -0.030     -0.016      0.125     12.189
     40 H       -0.013      0.019      0.150     -0.003     -0.033     -0.238
     41 H        0.013      0.022     -0.025      0.013      0.077     -0.422
     42 H       -0.018      0.014     -0.015     -0.257     -0.368     -0.214
     45 H       -0.016     -0.227      0.014     -0.207     -0.479     -0.187
     46 H        0.013      0.047      0.071     -0.340      0.030      0.925
     47 H       -0.057     -0.127     -0.144     -0.158      1.827     -0.469
     48 H       -0.018      0.029      0.024      0.038      0.008     -0.023
     52 H        0.001      0.000      0.003     -0.014     -0.001      0.004
     53 H       -0.001      0.000     -0.000     -0.002     -0.003     -0.007
     57 H        0.000      0.000      0.000      0.001      0.000      0.001
     58 H        0.000      0.000      0.000      0.000      0.002      0.001
     61 H        0.000      0.000      0.000     -0.000     -0.000      0.000
     62 H        0.000      0.000      0.000     -0.000     -0.000      0.000
     63 H        0.000      0.000      0.000      0.000      0.000      0.000
     64 H        0.000      0.000      0.000     -0.000      0.000      0.000
     65 H        0.000      0.000      0.000      0.000      0.000      0.000
     66 H       -0.000      0.000     -0.000     -0.000      0.000     -0.000
     67 H       -0.000     -0.000     -0.000      0.000      0.000     -0.000
     68 H        0.000      0.000      0.000      0.000      0.000     -0.000
     69 H        0.000      0.000      0.000      0.000      0.000     -0.000
     70 H        0.001     -0.010     -0.011      0.076     -0.046      0.005
     71 H        0.003     -0.007     -0.008     -0.471     -0.093      0.005
     72 H        0.000     -0.004     -0.005      0.058      0.008     -0.000
                 35 H       37 H       38 H       40 H       41 H       42 H  
      3 H       -0.077     -0.044     -0.039      0.000      0.000      0.000
      4 H       -0.167     -0.002     -0.002      0.000      0.000      0.000
      8 H        0.020      0.006      0.004      0.000      0.001      0.000
      9 H       -0.092     -0.002     -0.001      0.000     -0.000      0.000
     10 H       -0.180      0.000     -0.001      0.000      0.000      0.000
     11 H       -0.102     -0.000     -0.000      0.000      0.000      0.000
     13 H       13.741      0.002      0.001      0.000      0.000      0.000
     16 H        0.005      0.007      0.002     -0.001      0.001     -0.001
     17 H        0.007      0.005      0.005      0.000      0.002      0.000
     19 H       -0.005     -0.012      0.114      0.004     -0.009      0.006
     21 H       -0.004      0.042     -0.531     -0.009      0.058     -0.025
     24 H       -0.001     -0.052     -0.078     -0.020      0.066     -0.025
     25 H        0.000      0.271      0.193     -0.013      0.013     -0.018
     27 H        0.000      0.005      0.001      0.019      0.022      0.014
     28 H        0.000     -0.036     -0.030      0.150     -0.025     -0.015
     30 H        0.000      0.518     -0.016     -0.003      0.013     -0.257
     31 H        0.000     -0.037      0.125     -0.033      0.077     -0.368
     33 H        0.000      6.510     12.189     -0.238     -0.422     -0.214
     35 H        0.000      0.000      0.000      0.000      0.000      0.000
     37 H        0.000      0.000    -12.192      9.522      2.599     -0.263
     38 H        0.000    -12.192      0.000      6.617     11.545     -0.479
     40 H        0.000      9.522      6.617      0.000    -13.379      9.323
     41 H        0.000      2.599     11.545    -13.379      0.000      8.843
     42 H        0.000     -0.263     -0.479      9.323      8.843      0.000
     45 H        0.000      0.063      0.040     -0.080      0.005      1.122
     46 H        0.000     -0.173      0.010      0.052      0.038     -0.415
     47 H        0.000      0.066     -0.066     -0.112     -0.067     -0.086
     48 H        0.000      0.112     -0.005     -0.194     -0.419     10.463
     52 H        0.000     -0.016     -0.014      0.226     -0.173     -0.171
     53 H        0.000     -0.004     -0.006     -0.023      0.099      0.114
     57 H        0.000     -0.000      0.000      0.004     -0.003     -0.011
     58 H        0.000      0.001      0.000      0.003      0.001      0.005
     61 H        0.000      0.000      0.000     -0.001     -0.000      0.003
     62 H        0.000      0.000      0.000     -0.002      0.000      0.002
     63 H        0.000      0.000      0.000      0.007     -0.001     -0.013
     64 H        0.000      0.000      0.000     -0.000      0.000      0.002
     65 H        0.000      0.000      0.000     -0.001      0.000     -0.002
     66 H        0.000      0.000     -0.000     -0.001      0.000     -0.000
     67 H        0.000      0.002      0.005     -0.036     -0.013     -0.033
     68 H        0.000      0.001      0.002     -0.003     -0.003     -0.004
     69 H        0.000      0.001      0.003     -0.003     -0.005     -0.003
     70 H        0.000      0.067      0.015     -0.050      0.004     -0.446
     71 H        0.000     -0.006      0.000      0.084      0.032     -0.200
     72 H        0.000     -0.021      0.037      0.020     -0.045     -0.353
                 45 H       46 H       47 H       48 H       52 H       53 H  
      3 H       -0.022      0.000      0.000      0.000      0.000      0.000
      4 H       -0.001     -0.001      0.001      0.000      0.000      0.000
      8 H        0.003      0.002     -0.003      0.000      0.000      0.000
      9 H       -0.001      0.000      0.001      0.000      0.000      0.000
     10 H       -0.001      0.000      0.000      0.000      0.000      0.000
     11 H       -0.000      0.000      0.000      0.000      0.000      0.000
     13 H        0.001      0.001     -0.001      0.000      0.000      0.000
     16 H        0.003      0.002     -0.004      0.000      0.000      0.000
     17 H        0.003      0.000     -0.004      0.000      0.000      0.000
     19 H       -0.010     -0.007      0.011      0.007      0.000      0.000
     21 H        0.033      0.015     -0.016     -0.018      0.001      0.000
     24 H       -0.023     -0.017     -0.023      0.005      0.000      0.000
     25 H       -0.016      0.013     -0.057     -0.018      0.001     -0.001
     27 H       -0.227      0.047     -0.127      0.029      0.000      0.000
     28 H        0.014      0.071     -0.144      0.024      0.003     -0.000
     30 H       -0.207     -0.340     -0.158      0.038     -0.014     -0.002
     31 H       -0.479      0.030      1.827      0.008     -0.001     -0.003
     33 H       -0.187      0.925     -0.469     -0.023      0.004     -0.007
     35 H        0.000      0.000      0.000      0.000      0.000      0.000
     37 H        0.063     -0.173      0.066      0.112     -0.016     -0.004
     38 H        0.040      0.010     -0.066     -0.005     -0.014     -0.006
     40 H       -0.080      0.052     -0.112     -0.194      0.226     -0.023
     41 H        0.005      0.038     -0.067     -0.419     -0.173      0.099
     42 H        1.122     -0.415     -0.086     10.463     -0.171      0.114
     45 H        0.000    -12.914    -13.596     -0.173      0.019     -0.036
     46 H      -12.914      0.000    -12.963     -0.100      0.004     -0.009
     47 H      -13.596    -12.963      0.000     -0.204      0.006     -0.015
     48 H       -0.173     -0.100     -0.204      0.000      4.958     -2.271
     52 H        0.019      0.004      0.006      4.958      0.000     16.667
     53 H       -0.036     -0.009     -0.015     -2.271     16.667      0.000
     57 H        0.000      0.001      0.001      0.146     -0.779      9.986
     58 H        0.000      0.000      0.000     -0.059      0.169     -0.316
     61 H        0.000     -0.000     -0.001     -0.073      0.126     -0.169
     62 H        0.000     -0.000      0.000     -0.042      0.048     -0.342
     63 H        0.000      0.000      0.000      0.575     -0.275     -0.043
     64 H        0.000      0.000      0.000     -0.016      0.111      0.044
     65 H        0.000      0.000      0.000      0.015     -0.002     -0.014
     66 H        0.000     -0.000     -0.000     -0.012      0.079      0.027
     67 H        0.000     -0.000      0.000     -0.042      0.092     -0.008
     68 H        0.000      0.000      0.000      0.015      0.020     -0.005
     69 H        0.000      0.000     -0.000     -0.042      0.097     -0.059
     70 H       -0.030     -0.022     -0.011      1.931     -0.365     -0.227
     71 H       -0.060     -0.237     -0.019      5.154      0.842     -0.185
     72 H       -0.030     -0.041      0.029     12.506     -0.529     -0.172
                 57 H       58 H       61 H       62 H       63 H       64 H  
      3 H        0.000      0.000      0.000      0.000      0.000      0.000
      4 H        0.000      0.000      0.000      0.000      0.000      0.000
      8 H        0.000      0.000      0.000      0.000      0.000      0.000
      9 H        0.000      0.000      0.000      0.000      0.000      0.000
     10 H        0.000      0.000      0.000      0.000      0.000      0.000
     11 H        0.000      0.000      0.000      0.000      0.000      0.000
     13 H        0.000      0.000      0.000      0.000      0.000      0.000
     16 H        0.000      0.000      0.000      0.000      0.000      0.000
     17 H        0.000      0.000      0.000      0.000      0.000      0.000
     19 H        0.000      0.000      0.000      0.000      0.000      0.000
     21 H        0.000      0.000      0.000      0.000      0.000      0.000
     24 H        0.000      0.000      0.000      0.000      0.000      0.000
     25 H        0.000      0.000      0.000      0.000      0.000      0.000
     27 H        0.000      0.000      0.000      0.000      0.000      0.000
     28 H        0.000      0.000      0.000      0.000      0.000      0.000
     30 H        0.001      0.000     -0.000     -0.000      0.000     -0.000
     31 H        0.000      0.002     -0.000     -0.000      0.000      0.000
     33 H        0.001      0.001      0.000      0.000      0.000      0.000
     35 H        0.000      0.000      0.000      0.000      0.000      0.000
     37 H       -0.000      0.001      0.000      0.000      0.000      0.000
     38 H        0.000      0.000      0.000      0.000      0.000      0.000
     40 H        0.004      0.003     -0.001     -0.002      0.007     -0.000
     41 H       -0.003      0.001     -0.000      0.000     -0.001      0.000
     42 H       -0.011      0.005      0.003      0.002     -0.013      0.002
     45 H        0.000      0.000      0.000      0.000      0.000      0.000
     46 H        0.001      0.000     -0.000     -0.000      0.000      0.000
     47 H        0.001      0.000     -0.001      0.000      0.000      0.000
     48 H        0.146     -0.059     -0.073     -0.042      0.575     -0.016
     52 H       -0.779      0.169      0.126      0.048     -0.275      0.111
     53 H        9.986     -0.316     -0.169     -0.342     -0.043      0.044
     57 H        0.000      2.686      4.622     12.964      2.428      0.564
     58 H        2.686      0.000     -0.226     -0.275     -0.346      3.982
     61 H        4.622     -0.226      0.000    -13.059    -12.553     -0.068
     62 H       12.964     -0.275    -13.059      0.000    -12.342     -0.094
     63 H        2.428     -0.346    -12.553    -12.342      0.000      0.051
     64 H        0.564      3.982     -0.068     -0.094      0.051      0.000
     65 H       -0.429      2.901     -0.116     -0.293      0.015    -13.101
     66 H       -0.510     13.313      0.059      0.042      0.025    -12.966
     67 H       -0.268     13.001     -0.052      0.026      0.017     -0.224
     68 H       -0.333      3.126      0.011      0.037      0.055     -0.050
     69 H        0.008      3.630      0.583     -0.060      0.036     -0.214
     70 H        0.095     -0.007      0.000      0.002     -0.009     -0.001
     71 H        0.240     -0.006     -0.001     -0.000     -0.011     -0.001
     72 H        0.075     -0.001     -0.001     -0.003     -0.007     -0.001
                 65 H       66 H       67 H       68 H       69 H       70 H  
      3 H        0.000      0.000      0.000      0.000      0.000      0.000
      4 H        0.000      0.000      0.000      0.000      0.000      0.000
      8 H        0.000      0.000      0.000      0.000      0.000      0.000
      9 H        0.000      0.000      0.000      0.000      0.000      0.000
     10 H        0.000      0.000      0.000      0.000      0.000      0.000
     11 H        0.000      0.000      0.000      0.000      0.000      0.000
     13 H        0.000      0.000      0.000      0.000      0.000      0.000
     16 H        0.000      0.000      0.000      0.000      0.000      0.000
     17 H        0.000      0.000      0.000      0.000      0.000      0.000
     19 H        0.000      0.000      0.000      0.000      0.000      0.000
     21 H        0.000      0.000     -0.000      0.000      0.000      0.003
     24 H        0.000      0.000      0.000      0.000      0.000      0.036
     25 H        0.000     -0.000     -0.000      0.000      0.000      0.001
     27 H        0.000      0.000     -0.000      0.000      0.000     -0.010
     28 H        0.000     -0.000     -0.000      0.000      0.000     -0.011
     30 H        0.000     -0.000      0.000      0.000      0.000      0.076
     31 H        0.000      0.000      0.000      0.000      0.000     -0.046
     33 H        0.000     -0.000     -0.000     -0.000     -0.000      0.005
     35 H        0.000      0.000      0.000      0.000      0.000      0.000
     37 H        0.000      0.000      0.002      0.001      0.001      0.067
     38 H        0.000     -0.000      0.005      0.002      0.003      0.015
     40 H       -0.001     -0.001     -0.036     -0.003     -0.003     -0.050
     41 H        0.000      0.000     -0.013     -0.003     -0.005      0.004
     42 H       -0.002     -0.000     -0.033     -0.004     -0.003     -0.446
     45 H        0.000      0.000      0.000      0.000      0.000     -0.030
     46 H        0.000     -0.000     -0.000      0.000      0.000     -0.022
     47 H        0.000     -0.000      0.000      0.000     -0.000     -0.011
     48 H        0.015     -0.012     -0.042      0.015     -0.042      1.931
     52 H       -0.002      0.079      0.092      0.020      0.097     -0.365
     53 H       -0.014      0.027     -0.008     -0.005     -0.059     -0.227
     57 H       -0.429     -0.510     -0.268     -0.333      0.008      0.095
     58 H        2.901     13.313     13.001      3.126      3.630     -0.007
     61 H       -0.116      0.059     -0.052      0.011      0.583      0.000
     62 H       -0.293      0.042      0.026      0.037     -0.060      0.002
     63 H        0.015      0.025      0.017      0.055      0.036     -0.009
     64 H      -13.101    -12.966     -0.224     -0.050     -0.214     -0.001
     65 H        0.000    -12.035     -0.293      2.879     -0.037     -0.001
     66 H      -12.035      0.000     -0.330     -0.219     -0.186     -0.002
     67 H       -0.293     -0.330      0.000    -12.345    -12.611      0.003
     68 H        2.879     -0.219    -12.345      0.000    -12.455      0.000
     69 H       -0.037     -0.186    -12.611    -12.455      0.000      0.003
     70 H       -0.001     -0.002      0.003      0.000      0.003      0.000
     71 H       -0.001     -0.001      0.004      0.000      0.001    -13.642
     72 H       -0.001     -0.001      0.000     -0.000     -0.000    -12.370
                 71 H       72 H  
      3 H        0.000      0.000
      4 H        0.000      0.000
      8 H        0.000      0.000
      9 H        0.000      0.000
     10 H        0.000      0.000
     11 H        0.000      0.000
     13 H        0.000      0.000
     16 H        0.000      0.000
     17 H        0.000      0.000
     19 H       -0.000      0.000
     21 H        0.001      0.001
     24 H        0.020      0.012
     25 H        0.003      0.000
     27 H       -0.007     -0.004
     28 H       -0.008     -0.005
     30 H       -0.471      0.058
     31 H       -0.093      0.008
     33 H        0.005     -0.000
     35 H        0.000      0.000
     37 H       -0.006     -0.021
     38 H        0.000      0.037
     40 H        0.084      0.020
     41 H        0.032     -0.045
     42 H       -0.200     -0.353
     45 H       -0.060     -0.030
     46 H       -0.237     -0.041
     47 H       -0.019      0.029
     48 H        5.154     12.506
     52 H        0.842     -0.529
     53 H       -0.185     -0.172
     57 H        0.240      0.075
     58 H       -0.006     -0.001
     61 H       -0.001     -0.001
     62 H       -0.000     -0.003
     63 H       -0.011     -0.007
     64 H       -0.001     -0.001
     65 H       -0.001     -0.001
     66 H       -0.001     -0.001
     67 H        0.004      0.000
     68 H        0.000     -0.000
     69 H        0.001     -0.000
     70 H      -13.642    -12.370
     71 H        0.000    -12.711
     72 H      -12.711      0.000

Maximum memory used throughout the entire EPRNMR-calculation: 967.9 MB

Timings for individual modules:

Sum of individual times         ...      396.923 sec (=   6.615 min)
GTO integral calculation        ...        0.608 sec (=   0.010 min)   0.2 %
SCF iterations                  ...      105.032 sec (=   1.751 min)  26.5 %
EPR/NMR calculation             ...      291.283 sec (=   4.855 min)  73.4 %
                             ****ORCA TERMINATED NORMALLY****
TOTAL RUN TIME: 0 days 0 hours 6 minutes 37 seconds 386 msec
