
                                 *****************
                                 * O   R   C   A *
                                 *****************

                                            #,                                       
                                            ###                                      
                                            ####                                     
                                            #####                                    
                                            ######                                   
                                           ########,                                 
                                     ,,################,,,,,                         
                               ,,#################################,,                 
                          ,,##########################################,,             
                       ,#########################################, ''#####,          
                    ,#############################################,,   '####,        
                  ,##################################################,,,,####,       
                ,###########''''           ''''###############################       
              ,#####''   ,,,,##########,,,,          '''####'''          '####       
            ,##' ,,,,###########################,,,                        '##       
           ' ,,###''''                  '''############,,,                           
         ,,##''                                '''############,,,,        ,,,,,,###''
      ,#''                                            '''#######################'''  
     '                                                          ''''####''''         
             ,#######,   #######,   ,#######,      ##                                
            ,#'     '#,  ##    ##  ,#'     '#,    #''#        ,####,   ,####,        
            ##       ##  ##   ,#'  ##            #'  '#       #'       #'  '#        
            ##       ##  #######   ##           ,######,      #####,   #    #        
            '#,     ,#'  ##    ##  '#,     ,#' ,#      #,     #,   #   #,  ,#        
             '#######'   ##     ##  '#######'  #'      '#     '####' # '####'        



                #########################################################
                #                        -***-                          #
                #          Department of theory and spectroscopy        #
                #                                                       #
                #                      Frank Neese                      #
                #                                                       #
                #     Directorship, Architecture, Infrastructure        #
                #                    SHARK, DRIVERS                     #
                #        Core code/Algorithms in most modules           #
                #                                                       #
                #        Max Planck Institute fuer Kohlenforschung      #
                #                Kaiser Wilhelm Platz 1                 #
                #                 D-45470 Muelheim/Ruhr                 #
                #                      Germany                          #
                #                                                       #
                #                  All rights reserved                  #
                #                        -***-                          #
                #########################################################


                         Program Version 6.0.0  -   RELEASE  -


 With contributions from (in alphabetic order):
   Daniel Aravena         : Magnetic Suceptibility
   Michael Atanasov       : Ab Initio Ligand Field Theory (pilot matlab implementation)
   Alexander A. Auer      : GIAO ZORA, VPT2 properties, NMR spectrum
   Ute Becker             : All parallelization in ORCA, NUMFREQ, NUMCALC
   Giovanni Bistoni       : ED, misc. LED, open-shell LED, HFLD
   Martin Brehm           : Molecular dynamics
   Dmytro Bykov           : pre 5.0 version of the SCF Hessian
   Marcos Casanova-Páez   : Triplet and SCS-CIS(D). UHF-(DLPNO)-IP/EA/STEOM-CCSD. UHF-CVS-IP/STEOM-CCSD
   Vijay G. Chilkuri      : MRCI spin determinant printing, contributions to CSF-ICE
   Pauline Colinet        : FMM embedding
   Dipayan Datta          : RHF DLPNO-CCSD density
   Achintya Kumar Dutta   : EOM-CC, STEOM-CC
   Nicolas Foglia         : Exact transition moments, OPA infrastructure, MCD improvements
   Dmitry Ganyushin       : Spin-Orbit,Spin-Spin,Magnetic field MRCI
   Miquel Garcia          : C-PCM and meta-GGA Hessian, CCSD/C-PCM, Gaussian charge scheme
   Tiago L. C. Gouveia    : GS-ROHF, GS-ROCIS
   Yang Guo               : DLPNO-NEVPT2, F12-NEVPT2, CIM, IAO-localization
   Andreas Hansen         : Spin unrestricted coupled pair/coupled cluster methods
   Ingolf Harden          : AUTO-CI MPn and infrastructure 
   Benjamin Helmich-Paris : MC-RPA, TRAH-(SCF,CASSCF), AVAS, COSX integrals, SCF dyn. polar.
   Lee Huntington         : MR-EOM, pCC
   Robert Izsak           : Overlap fitted RIJCOSX, COSX-SCS-MP3, EOM
   Riya Kayal             : Wick's Theorem for AUTO-CI, AUTO-CI UHF-CCSDT
   Emily Kempfer          : AUTO-CI, RHF CISDT and CCSDT
   Christian Kollmar      : KDIIS, OOCD, Brueckner-CCSD(T), CCSD density, CASPT2, CASPT2-K, improved NEVPT2
   Axel Koslowski         : Symmetry handling
   Simone Kossmann        : Meta GGA functionals, TD-DFT gradient, OOMP2, (MP2 Hessian; deprecated post 5.0)
   Lucas Lang             : DCDCAS
   Marvin Lechner         : AUTO-CI (C++ implementation), FIC-MRCC
   Spencer Leger          : CASSCF response
   Dagmar Lenk            : GEPOL surface, SMD, ORCA-2-JSON
   Dimitrios Liakos       : Extrapolation schemes; Compound Job, initial MDCI parallelization
   Dimitrios Manganas     : Further ROCIS development; embedding schemes. LFT, Crystal Embedding
   Dimitrios Pantazis     : SARC Basis sets
   Anastasios Papadopoulos: AUTO-CI, single reference methods and gradients
   Taras Petrenko         : pre 6.0 DFT Hessian and TD-DFT gradient, (ASA, deprecated), ECA, 1-Electron XAS/XES, NRVS
   Peter Pinski           : DLPNO-MP2, DLPNO-MP2 Gradient
   Christoph Reimann      : Effective Core Potentials
   Marius Retegan         : Local ZFS, SOC
   Christoph Riplinger    : Optimizer, TS searches, QM/MM, DLPNO-CCSD(T), (RO)-DLPNO pert. Triples
   Michael Roemelt        : Original ROCIS implementation
   Masaaki Saitow         : Open-shell DLPNO-CCSD energy and density
   Barbara Sandhoefer     : DKH picture change effects
   Kantharuban Sivalingam : CASSCF convergence/infrastructure, NEVPT2 and variants, FIC-MRCI
   Bernardo de Souza      : ESD, SOC TD-DFT
   Georgi Stoychev        : AutoAux, RI-MP2 NMR, DLPNO-MP2 response, X2C
   Van Anh Tran           : RI-MP2 g-tensors
   Willem Van den Heuvel  : Paramagnetic NMR
   Zikuan Wang            : NOTCH, Electric field optimization 
   Frank Wennmohs         : Technical directorship and infrastructure
   Hang Xu                : AUTO-CI-Response properties 


 We gratefully acknowledge several colleagues who have allowed us to
 interface, adapt or use parts of their codes:
   Stefan Grimme, W. Hujo, H. Kruse, P. Pracht,  : VdW corrections, initial TS optimization,
                  C. Bannwarth, S. Ehlert,         DFT functionals, gCP, sTDA/sTD-DF
                  L. Wittmann, M. Mueller
   Ed Valeev, F. Pavosevic, A. Kumar             : LibInt (2-el integral package), F12 methods
   Garnet Chan, S. Sharma, J. Yang, R. Olivares  : DMRG
   Ulf Ekstrom                                   : XCFun DFT Library
   Mihaly Kallay                                 : mrcc  (arbitrary order and MRCC methods)
   Frank Weinhold                                : gennbo (NPA and NBO analysis)
   Simon Mueller                                 : openCOSMO-RS
   Christopher J. Cramer and Donald G. Truhlar   : smd solvation model
   Lars Goerigk                                  : TD-DFT with DH, B97 family of functionals
   V. Asgeirsson, H. Jonsson                     : NEB implementation
   FAccTs GmbH                                   : IRC, NEB, NEB-TS, DLPNO-Multilevel, CI-OPT
                                                   MM, QMMM, 2- and 3-layer-ONIOM, Crystal-QMMM,
                                                   LR-CPCM, SF, NACMEs, symmetry and pop. for TD-DFT,
                                                   nearIR, NL-DFT gradient (VV10), updates on ESD,
                                                   ML-optimized integration grids, MBIS, APM,
                                                   GOAT, DOCKER, SOLVATOR, interface openCOSMO-RS
   S Lehtola, MJT Oliveira, MAL Marques          : LibXC Library
   Liviu Ungur et al                             : ANISO software


 Your calculation uses the libint2 library for the computation of 2-el integrals
 For citations please refer to: http://libint.valeyev.net

 Your ORCA version has been built with support for libXC version: 6.2.2
 For citations please refer to: https://libxc.gitlab.io

 This ORCA versions uses:
   CBLAS   interface :  Fast vector & matrix operations
   LAPACKE interface :  Fast linear algebra routines
   SCALAPACK package :  Parallel linear algebra routines
   Shared memory     :  Shared parallel matrices
   BLAS/LAPACK       :  OpenBLAS 0.3.27  USE64BITINT DYNAMIC_ARCH NO_AFFINITY Zen SINGLE_THREADED
        Core in use  :  Zen
   Copyright (c) 2011-2014, The OpenBLAS Project


NOTE: MaxCore=8000 MB was set to SCF,MP2,MDCI,CIPSI,MRCI and CIS
      => If you want to overwrite this, your respective input block should be placed after the MaxCore statement
Your calculation utilizes the atom-pairwise dispersion correction
based on EEQ partial charges (D4)


================================================================================

----- Orbital basis set information -----
Your calculation utilizes the basis: pcJ-0
   F. Jensen, Theor. Chem. Acc. 126, 371 (2010).

----- AuxJ basis set information -----
Your calculation utilizes the auxiliary basis: def2/J
   F. Weigend, Phys. Chem. Chem. Phys. 8, 1057 (2006).

================================================================================
                                        WARNINGS
                       Please study these warnings very carefully!
================================================================================

WARNING: Old DensityContainer found on disk!
         Will remove this file - 
         If you want to keep old densities, please start your calculation with a different basename. 


================================================================================
                                       INPUT FILE
================================================================================
NAME = inpJ
|  1> ! pbe0
|  2> ! D4
|  3> ! pcJ-0
|  4> ! def2/J RIJCOSX
|  5> ! DEFGRID2
|  6> ! scfconv7
|  7> ! smallprint printgap noloewdin
|  8> ! NOSOSCF
|  9> %MaxCore 8000
| 10> %output
| 11>        print[P_BondOrder_M] 1
| 12>        print[P_Mayer] 1
| 13>        print[P_basis] 2
| 14> end
| 15> %pal
| 16>     nprocs 4
| 17> end
| 18> ! CPCM(chloroform)
| 19> *xyz 0 1
| 20> C   -5.0189868000   0.2153575400  -0.4555325000
| 21> C   -6.4713089300  -0.1771372400  -0.5902152600
| 22> C   -7.3568136300   0.7430517200   0.2597138200
| 23> H   -6.6198451600  -1.2211845500  -0.2921013900
| 24> H   -6.7895759400  -0.0750919700  -1.6383337800
| 25> C   -4.7523207700   1.6405540300  -0.7511499700
| 26> C   -5.6624839400   2.6094187500  -0.0292511000
| 27> C   -7.1387248000   2.2027834800  -0.1415341400
| 28> H   -5.5124809200   3.6253343000  -0.4099132700
| 29> H   -5.3802899200   2.6204159700   1.0345772200
| 30> H   -7.4767889100   2.3297647200  -1.1790427500
| 31> H   -7.7568669600   2.8522232800   0.4890236200
| 32> O   -7.1093968800   0.5344082800   1.6601104500
| 33> H   -8.4104465200   0.4762734600   0.1108791000
| 34> C   -4.0883556000  -0.6724272300  -0.0312634500
| 35> C   -3.8142862100   2.0450549100  -1.6144406300
| 36> H   -3.1817854100   1.3324285900  -2.1370943900
| 37> H   -3.6655060700   3.1016479200  -1.8244402200
| 38> C   -2.6977009500  -0.3859854800   0.2366168300
| 39> H   -4.4386651000  -1.6874270700   0.1524641700
| 40> C   -1.7413368400  -1.2832335100   0.5573100600
| 41> H   -2.4117479500   0.6619634600   0.1812110200
| 42> C   -1.9309480300  -2.7754514000   0.6511310400
| 43> C   -0.9375824800  -3.5267959800  -0.2563812900
| 44> H   -2.9529442800  -3.0817588300   0.4124430600
| 45> H   -1.7377360800  -3.0768004600   1.6929594900
| 46> C    0.5152290400  -3.0827389000  -0.0387329100
| 47> H   -1.2218096500  -3.3684226400  -1.3044146400
| 48> H   -1.0237775500  -4.6041999900  -0.0694139800
| 49> C    0.6764686400  -1.5625706700  -0.1762952700
| 50> H    1.1583135800  -3.6181236400  -0.7445462400
| 51> H    0.8352757300  -3.3757661900   0.9725706800
| 52> C   -0.3197172300  -0.8953021800   0.8262759600
| 53> H   -0.0575203100  -1.3328036800   1.8069713400
| 54> C    0.1058757300   0.5691068600   0.8570189700
| 55> H   -6.1523213000   0.4558328000   1.7801931500
| 56> C    1.6466865900   0.5037865000   0.7169337400
| 57> H   -0.2171743400   1.0720715100   1.7743748700
| 58> H   -0.3304693600   1.1195828800   0.0162298500
| 59> C    2.0128352800  -0.9664276300   0.3484929800
| 60> H    2.1512541800   0.8078090000   1.6393130900
| 61> H    1.9894621300   1.1877587700  -0.0688301100
| 62> H    2.2558616800  -1.5088080300   1.2765411200
| 63> C    3.2702960000  -1.0448121700  -0.5512731800
| 64> C    0.3985125500  -1.1029485400  -1.6139589000
| 65> H    0.6181538900  -0.0388017300  -1.7466235700
| 66> H   -0.6498042900  -1.2556057300  -1.8887689300
| 67> H    1.0172482800  -1.6605137200  -2.3255264200
| 68> H    3.0442256400  -0.4704064900  -1.4651521300
| 69> C    3.6362724300  -2.4698454100  -0.9625123100
| 70> C    4.4045571400  -0.3236127800   0.1404010400
| 71> C    5.5177595700  -0.8803469300   0.6208710700
| 72> H    4.2581520700   0.7484257900   0.2638747600
| 73> H    5.6592222400  -1.9544891800   0.5044326400
| 74> C    6.6365009800  -0.1701112400   1.3379798400
| 75> C    6.3669549100   1.3115794800   1.5968649800
| 76> C    8.0075739300  -0.3918179100   0.6365778900
| 77> H    6.7344812500  -0.6602290200   2.3220080100
| 78> H    8.7471117700   0.1460676500   1.2492964100
| 79> C    8.0491598200   0.1898794700  -0.7776480500
| 80> C    8.4120161900  -1.8682625500   0.6160520700
| 81> H    6.2154916800   1.8710551700   0.6677394600
| 82> H    7.2138325000   1.7620536700   2.1257451700
| 83> H    5.4714334900   1.4460431900   2.2130503400
| 84> H    7.8413829400   1.2644380400  -0.7872787600
| 85> H    7.3085189400  -0.3032466300  -1.4186439000
| 86> H    9.0375149700   0.0373604900  -1.2254647100
| 87> H    8.3271551000  -2.3212668500   1.6108266100
| 88> H    9.4500689800  -1.9762957700   0.2825857500
| 89> H    7.7858198400  -2.4449455600  -0.0743049700
| 90> H    2.8877430000  -2.8896929100  -1.6373393800
| 91> H    3.7129917000  -3.1312668300  -0.0913560400
| 92> H    4.5994577200  -2.4840746300  -1.4842795600
| 93> *
| 94> %eprnmr
| 95>  Nuclei = all C { ssfc }
| 96>  SpinSpinRThresh 8.0
| 97> end
| 98> 
| 99>                          ****END OF INPUT****
================================================================================

                       ****************************
                       * Single Point Calculation *
                       ****************************

---------------------------------
CARTESIAN COORDINATES (ANGSTROEM)
---------------------------------
  C     -5.018987    0.215358   -0.455532
  C     -6.471309   -0.177137   -0.590215
  C     -7.356814    0.743052    0.259714
  H     -6.619845   -1.221185   -0.292101
  H     -6.789576   -0.075092   -1.638334
  C     -4.752321    1.640554   -0.751150
  C     -5.662484    2.609419   -0.029251
  C     -7.138725    2.202783   -0.141534
  H     -5.512481    3.625334   -0.409913
  H     -5.380290    2.620416    1.034577
  H     -7.476789    2.329765   -1.179043
  H     -7.756867    2.852223    0.489024
  O     -7.109397    0.534408    1.660110
  H     -8.410447    0.476273    0.110879
  C     -4.088356   -0.672427   -0.031263
  C     -3.814286    2.045055   -1.614441
  H     -3.181785    1.332429   -2.137094
  H     -3.665506    3.101648   -1.824440
  C     -2.697701   -0.385985    0.236617
  H     -4.438665   -1.687427    0.152464
  C     -1.741337   -1.283234    0.557310
  H     -2.411748    0.661963    0.181211
  C     -1.930948   -2.775451    0.651131
  C     -0.937582   -3.526796   -0.256381
  H     -2.952944   -3.081759    0.412443
  H     -1.737736   -3.076800    1.692959
  C      0.515229   -3.082739   -0.038733
  H     -1.221810   -3.368423   -1.304415
  H     -1.023778   -4.604200   -0.069414
  C      0.676469   -1.562571   -0.176295
  H      1.158314   -3.618124   -0.744546
  H      0.835276   -3.375766    0.972571
  C     -0.319717   -0.895302    0.826276
  H     -0.057520   -1.332804    1.806971
  C      0.105876    0.569107    0.857019
  H     -6.152321    0.455833    1.780193
  C      1.646687    0.503787    0.716934
  H     -0.217174    1.072072    1.774375
  H     -0.330469    1.119583    0.016230
  C      2.012835   -0.966428    0.348493
  H      2.151254    0.807809    1.639313
  H      1.989462    1.187759   -0.068830
  H      2.255862   -1.508808    1.276541
  C      3.270296   -1.044812   -0.551273
  C      0.398513   -1.102949   -1.613959
  H      0.618154   -0.038802   -1.746624
  H     -0.649804   -1.255606   -1.888769
  H      1.017248   -1.660514   -2.325526
  H      3.044226   -0.470406   -1.465152
  C      3.636272   -2.469845   -0.962512
  C      4.404557   -0.323613    0.140401
  C      5.517760   -0.880347    0.620871
  H      4.258152    0.748426    0.263875
  H      5.659222   -1.954489    0.504433
  C      6.636501   -0.170111    1.337980
  C      6.366955    1.311579    1.596865
  C      8.007574   -0.391818    0.636578
  H      6.734481   -0.660229    2.322008
  H      8.747112    0.146068    1.249296
  C      8.049160    0.189879   -0.777648
  C      8.412016   -1.868263    0.616052
  H      6.215492    1.871055    0.667739
  H      7.213832    1.762054    2.125745
  H      5.471433    1.446043    2.213050
  H      7.841383    1.264438   -0.787279
  H      7.308519   -0.303247   -1.418644
  H      9.037515    0.037360   -1.225465
  H      8.327155   -2.321267    1.610827
  H      9.450069   -1.976296    0.282586
  H      7.785820   -2.444946   -0.074305
  H      2.887743   -2.889693   -1.637339
  H      3.712992   -3.131267   -0.091356
  H      4.599458   -2.484075   -1.484280

----------------------------
CARTESIAN COORDINATES (A.U.)
----------------------------
  NO LB      ZA    FRAG     MASS         X           Y           Z
   0 C     6.0000    0    12.011   -9.484511    0.406967   -0.860832
   1 C     6.0000    0    12.011  -12.229002   -0.334741   -1.115345
   2 C     6.0000    0    12.011  -13.902363    1.404164    0.490788
   3 H     1.0000    0     1.008  -12.509694   -2.307704   -0.551992
   4 H     1.0000    0     1.008  -12.830439   -0.141903   -3.096002
   5 C     6.0000    0    12.011   -8.980585    3.100198   -1.419468
   6 C     6.0000    0    12.011  -10.700544    4.931087   -0.055277
   7 C     6.0000    0    12.011  -13.490235    4.162658   -0.267461
   8 H     1.0000    0     1.008  -10.417079    6.850889   -0.774624
   9 H     1.0000    0     1.008  -10.167274    4.951869    1.955068
  10 H     1.0000    0     1.008  -14.129083    4.402617   -2.228068
  11 H     1.0000    0     1.008  -14.658354    5.389921    0.924121
  12 O     8.0000    0    15.999  -13.434813    1.009885    3.137154
  13 H     1.0000    0     1.008  -15.893441    0.900026    0.209531
  14 C     6.0000    0    12.011   -7.725872   -1.270703   -0.059079
  15 C     6.0000    0    12.011   -7.207956    3.864594   -3.050851
  16 H     1.0000    0     1.008   -6.012703    2.517925   -4.038523
  17 H     1.0000    0     1.008   -6.926803    5.861265   -3.447692
  18 C     6.0000    0    12.011   -5.097916   -0.729407    0.447141
  19 H     1.0000    0     1.008   -8.387861   -3.188775    0.288116
  20 C     6.0000    0    12.011   -3.290650   -2.424960    1.053163
  21 H     1.0000    0     1.008   -4.557543    1.250930    0.342439
  22 C     6.0000    0    12.011   -3.648963   -5.244843    1.230459
  23 C     6.0000    0    12.011   -1.771774   -6.664679   -0.484490
  24 H     1.0000    0     1.008   -5.580256   -5.823680    0.779404
  25 H     1.0000    0     1.008   -3.283845   -5.814310    3.199230
  26 C     6.0000    0    12.011    0.973642   -5.825532   -0.073195
  27 H     1.0000    0     1.008   -2.308886   -6.365396   -2.464986
  28 H     1.0000    0     1.008   -1.934659   -8.700677   -0.131173
  29 C     6.0000    0    12.011    1.278340   -2.952831   -0.333150
  30 H     1.0000    0     1.008    2.188895   -6.837263   -1.406988
  31 H     1.0000    0     1.008    1.578442   -6.379274    1.837892
  32 C     6.0000    0    12.011   -0.604178   -1.691876    1.561435
  33 H     1.0000    0     1.008   -0.108698   -2.518634    3.414681
  34 C     6.0000    0    12.011    0.200076    1.075456    1.619531
  35 H     1.0000    0     1.008  -11.626202    0.861399    3.364078
  36 C     6.0000    0    12.011    3.111787    0.952019    1.354808
  37 H     1.0000    0     1.008   -0.410400    2.025922    3.353083
  38 H     1.0000    0     1.008   -0.624497    2.115705    0.030670
  39 C     6.0000    0    12.011    3.803707   -1.826284    0.658556
  40 H     1.0000    0     1.008    4.065281    1.526538    3.097853
  41 H     1.0000    0     1.008    3.759539    2.244539   -0.130070
  42 H     1.0000    0     1.008    4.262961   -2.851234    2.412313
  43 C     6.0000    0    12.011    6.179964   -1.974409   -1.041755
  44 C     6.0000    0    12.011    0.753080   -2.084271   -3.049940
  45 H     1.0000    0     1.008    1.168142   -0.073325   -3.300640
  46 H     1.0000    0     1.008   -1.227952   -2.372751   -3.569256
  47 H     1.0000    0     1.008    1.922321   -3.137916   -4.394608
  48 H     1.0000    0     1.008    5.752753   -0.888939   -2.768736
  49 C     6.0000    0    12.011    6.871559   -4.667331   -1.818885
  50 C     6.0000    0    12.011    8.323407   -0.611540    0.265320
  51 C     6.0000    0    12.011   10.427054   -1.663615    1.173276
  52 H     1.0000    0     1.008    8.046741    1.414320    0.498651
  53 H     1.0000    0     1.008   10.694380   -3.693449    0.953240
  54 C     6.0000    0    12.011   12.541169   -0.321464    2.528415
  55 C     6.0000    0    12.011   12.031801    2.478526    3.017637
  56 C     6.0000    0    12.011   15.132122   -0.740429    1.202958
  57 H     1.0000    0     1.008   12.726325   -1.247652    4.387959
  58 H     1.0000    0     1.008   16.529646    0.276028    2.360828
  59 C     6.0000    0    12.011   15.210708    0.358820   -1.469542
  60 C     6.0000    0    12.011   15.896407   -3.530505    1.164170
  61 H     1.0000    0     1.008   11.745577    3.535782    1.261845
  62 H     1.0000    0     1.008   13.632168    3.329799    4.017076
  63 H     1.0000    0     1.008   10.339511    2.732626    4.182059
  64 H     1.0000    0     1.008   14.818066    2.389442   -1.487741
  65 H     1.0000    0     1.008   13.811099   -0.573053   -2.680848
  66 H     1.0000    0     1.008   17.078428    0.070601   -2.315793
  67 H     1.0000    0     1.008   15.736043   -4.386559    3.044021
  68 H     1.0000    0     1.008   17.858042   -3.734658    0.534010
  69 H     1.0000    0     1.008   14.713067   -4.620278   -0.140416
  70 H     1.0000    0     1.008    5.457043   -5.460728   -3.094123
  71 H     1.0000    0     1.008    7.016537   -5.917237   -0.172638
  72 H     1.0000    0     1.008    8.691715   -4.694221   -2.804882

--------------------------------
INTERNAL COORDINATES (ANGSTROEM)
--------------------------------
 C      0   0   0     0.000000000000     0.00000000     0.00000000
 C      1   0   0     1.510440719610     0.00000000     0.00000000
 C      2   1   0     1.534029249023   110.47218563     0.00000000
 H      2   1   3     1.095887620437   110.70952143   237.85889500
 H      2   1   3     1.100117974924   109.81719660   118.74046596
 C      1   2   3     1.479758593566   113.93717462   306.13500359
 C      6   1   2     1.512690920245   114.40019513    49.80834959
 C      3   2   1     1.529503015469   110.17148666    56.73775129
 H      7   6   1     1.095211850927   110.23304057   188.70555502
 H      7   6   1     1.100674837636   108.26365898    72.03587022
 H      8   3   2     1.098560737331   108.31229505    64.42944452
 H      8   3   2     1.096118092401   109.52013987   181.43116844
 O      3   2   1     1.437309241100   110.69416909   292.70429365
 H      3   2   1     1.097025378365   109.47321296   177.18101007
 C      1   2   3     1.354341336239   121.21846913   122.88568970
 C      6   1   2     1.337460489629   123.13589302   231.76985575
 H     16   6   1     1.086766068112   121.35201799   359.00672301
 H     16   6   1     1.087485239734   120.96038045   178.40279465
 C     15   1   2     1.444897600566   126.12000706   185.22586648
 H     15   1   2     1.089356350944   116.27196419     3.15246875
 C     19  15   1     1.350011291065   126.44857834   185.61500856
 H     19  15   1     1.087674539023   115.75936351     6.34465066
 C     21  19  15     1.507139346875   125.71161236     2.31130987
 C     23  21  19     1.541062108717   111.40561146   124.46102361
 H     23  21  19     1.093285199975   112.42118087     0.83431514
 H     23  21  19     1.101611834003   107.91776537   242.96744723
 C     24  23  21     1.534672219159   112.68258854    51.26533990
 H     24  23  21     1.097379196860   108.97100867   289.12105720
 H     24  23  21     1.096898247726   109.13867187   173.18354199
 C     27  24  23     1.534872326612   111.92017710   306.26758372
 H     27  24  23     1.094699503159   108.85448691   182.69172904
 H     27  24  23     1.100468003902   109.18370222    66.27597839
 C     21  19  15     1.497943819939   122.87777217   180.30843407
 H     33  21  19     1.105404096117   106.37428356   127.34538453
 C     33  21  19     1.525309259363   121.13516935     4.80944505
 H     13   3   2     0.967774574335   107.63285801    42.44706872
 C     35  33  21     1.548544066983   103.60968833   197.02157408
 H     35  33  21     1.094932250937   112.06017970    75.03819691
 H     35  33  21     1.095603591849   110.84170064   315.40355449
 C     30  27  24     1.554562648459   116.09472397   166.00682743
 H     37  35  33     1.094441318066   111.76293557   248.89148520
 H     37  35  33     1.096694107269   110.45674693   130.32555871
 H     40  30  27     1.102048855341   106.56588602   320.59976836
 C     40  30  27     1.548202422532   118.85541964    80.85513769
 C     30  27  24     1.534727599080   111.19496618   294.05866091
 H     45  30  27     1.094646365790   111.61242036   186.28423167
 H     45  30  27     1.094437283390   111.52593095    66.27789407
 H     45  30  27     1.095463905862   110.71706908   306.15100543
 H     44  40  30     1.102825656276   106.78198708    61.85298779
 C     44  40  30     1.527670155650   113.46889059   302.76982001
 C     44  40  30     1.511651454689   108.62425395   176.38477159
 C     51  44  40     1.334175405883   126.28229343   113.16747037
 H     51  44  40     1.089011891404   114.87635443   294.70176575
 H     52  51  44     1.089656445041   118.76281505     1.06361653
 C     52  51  44     1.506738884415   126.45667042   181.46297953
 C     55  52  51     1.528098160885   113.99883872     4.55237131
 C     55  52  51     1.555943307839   111.87360802   236.59118808
 H     55  52  51     1.103687913740   106.31545420   122.39252827
 H     57  55  52     1.100754776142   105.75160666   181.20660389
 C     57  55  52     1.529750384054   112.73800946    63.29989328
 C     57  55  52     1.530974730668   112.10121442   298.10051369
 H     56  55  52     1.095092868052   112.08825829   299.63842537
 H     56  55  52     1.095373408329   110.13205890   179.56898932
 H     56  55  52     1.095318903728   111.01169980    59.93233417
 H     60  57  55     1.094504501041   112.10472786    58.32808538
 H     60  57  55     1.096630267385   110.54977996   297.83552263
 H     60  57  55     1.095740709641   110.45164159   178.45991114
 H     61  57  55     1.096353358113   111.46065408   310.15118756
 H     61  57  55     1.095638881213   110.45427324   190.10491064
 H     61  57  55     1.096028286794   111.40330924    70.92986962
 H     50  44  40     1.091769117184   111.15312169    67.89776007
 H     50  44  40     1.096484102933   111.44330933   307.51789831
 H     50  44  40     1.095522449221   110.54552324   187.39941487

---------------------------
INTERNAL COORDINATES (A.U.)
---------------------------
 C      0   0   0     0.000000000000     0.00000000     0.00000000
 C      1   0   0     2.854319301586     0.00000000     0.00000000
 C      2   1   0     2.898895162078   110.47218563     0.00000000
 H      2   1   3     2.070927476181   110.70952143   237.85889500
 H      2   1   3     2.078921687610   109.81719660   118.74046596
 C      1   2   3     2.796338486157   113.93717462   306.13500359
 C      6   1   2     2.858571564533   114.40019513    49.80834959
 C      3   2   1     2.890341820242   110.17148666    56.73775129
 H      7   6   1     2.069650456876   110.23304057   188.70555502
 H      7   6   1     2.079974005631   108.26365898    72.03587022
 H      8   3   2     2.075978935035   108.31229505    64.42944452
 H      8   3   2     2.071363005075   109.52013987   181.43116844
 O      3   2   1     2.716120835433   110.69416909   292.70429365
 H      3   2   1     2.073077527070   109.47321296   177.18101007
 C      1   2   3     2.559334217340   121.21846913   122.88568970
 C      6   1   2     2.527434040339   123.13589302   231.76985575
 H     16   6   1     2.053690240370   121.35201799   359.00672301
 H     16   6   1     2.055049277779   120.96038045   178.40279465
 C     15   1   2     2.730460756630   126.12000706   185.22586648
 H     15   1   2     2.058585165531   116.27196419     3.15246875
 C     19  15   1     2.551151617814   126.44857834   185.61500856
 H     19  15   1     2.055407001592   115.75936351     6.34465066
 C     21  19  15     2.848080611250   125.71161236     2.31130987
 C     23  21  19     2.912185340839   111.40561146   124.46102361
 H     23  21  19     2.066009614222   112.42118087     0.83431514
 H     23  21  19     2.081744672152   107.91776537   242.96744723
 C     24  23  21     2.900110199548   112.68258854    51.26533990
 H     24  23  21     2.073746147128   108.97100867   289.12105720
 H     24  23  21     2.072837284981   109.13867187   173.18354199
 C     27  24  23     2.900488347831   111.92017710   306.26758372
 H     27  24  23     2.068682259911   108.85448691   182.69172904
 H     27  24  23     2.079583146517   109.18370222    66.27597839
 C     21  19  15     2.830703583685   122.87777217   180.30843407
 H     33  21  19     2.088911008977   106.37428356   127.34538453
 C     33  21  19     2.882416769731   121.13516935     4.80944505
 H     13   3   2     1.828828904865   107.63285801    42.44706872
 C     35  33  21     2.926324192907   103.60968833   197.02157408
 H     35  33  21     2.069122089468   112.06017970    75.03819691
 H     35  33  21     2.070390739935   110.84170064   315.40355449
 C     30  27  24     2.937697663611   116.09472397   166.00682743
 H     37  35  33     2.068194360793   111.76293557   248.89148520
 H     37  35  33     2.072451515423   110.45674693   130.32555871
 H     40  30  27     2.082570522796   106.56588602   320.59976836
 C     40  30  27     2.925678578460   118.85541964    80.85513769
 C     30  27  24     2.900214852432   111.19496618   294.05866091
 H     45  30  27     2.068581844835   111.61242036   186.28423167
 H     45  30  27     2.068186736361   111.52593095    66.27789407
 H     45  30  27     2.070126771675   110.71706908   306.15100543
 H     44  40  30     2.084038463823   106.78198708    61.85298779
 C     44  40  30     2.886878217143   113.46889059   302.76982001
 C     44  40  30     2.856607259306   108.62425395   176.38477159
 C     51  44  40     2.521226131732   126.28229343   113.16747037
 H     51  44  40     2.057934231338   114.87635443   294.70176575
 H     52  51  44     2.059152261190   118.76281505     1.06361653
 C     52  51  44     2.847323846875   126.45667042   181.46297953
 C     55  52  51     2.887687029821   113.99883872     4.55237131
 C     55  52  51     2.940306731723   111.87360802   236.59118808
 H     55  52  51     2.085667894287   106.31545420   122.39252827
 H     57  55  52     2.080125067514   105.75160666   181.20660389
 C     57  55  52     2.890809279124   112.73800946    63.29989328
 C     57  55  52     2.893122958917   112.10121442   298.10051369
 H     56  55  52     2.069425611829   112.08825829   299.63842537
 H     56  55  52     2.069955756122   110.13205890   179.56898932
 H     56  55  52     2.069852757353   111.01169980    59.93233417
 H     60  57  55     2.068313759311   112.10472786    58.32808538
 H     60  57  55     2.072330875527   110.54977996   297.83552263
 H     60  57  55     2.070649855011   110.45164159   178.45991114
 H     61  57  55     2.071807592839   111.46065408   310.15118756
 H     61  57  55     2.070457427168   110.45427324   190.10491064
 H     61  57  55     2.071193297072   111.40330924    70.92986962
 H     50  44  40     2.063144632951   111.15312169    67.89776007
 H     50  44  40     2.072054664741   111.44330933   307.51789831
 H     50  44  40     2.070237402590   110.54552324   187.39941487

---------------------
BASIS SET INFORMATION
---------------------
There are 3 groups of distinct atoms

 Group   1 Type C   : 7s4p contracted to 4s3p pattern {4111/211}
 Group   2 Type H   : 5s contracted to 3s pattern {311}
 Group   3 Type O   : 7s4p contracted to 4s3p pattern {4111/211}

Atom   0C    basis set group =>   1
Atom   1C    basis set group =>   1
Atom   2C    basis set group =>   1
Atom   3H    basis set group =>   2
Atom   4H    basis set group =>   2
Atom   5C    basis set group =>   1
Atom   6C    basis set group =>   1
Atom   7C    basis set group =>   1
Atom   8H    basis set group =>   2
Atom   9H    basis set group =>   2
Atom  10H    basis set group =>   2
Atom  11H    basis set group =>   2
Atom  12O    basis set group =>   3
Atom  13H    basis set group =>   2
Atom  14C    basis set group =>   1
Atom  15C    basis set group =>   1
Atom  16H    basis set group =>   2
Atom  17H    basis set group =>   2
Atom  18C    basis set group =>   1
Atom  19H    basis set group =>   2
Atom  20C    basis set group =>   1
Atom  21H    basis set group =>   2
Atom  22C    basis set group =>   1
Atom  23C    basis set group =>   1
Atom  24H    basis set group =>   2
Atom  25H    basis set group =>   2
Atom  26C    basis set group =>   1
Atom  27H    basis set group =>   2
Atom  28H    basis set group =>   2
Atom  29C    basis set group =>   1
Atom  30H    basis set group =>   2
Atom  31H    basis set group =>   2
Atom  32C    basis set group =>   1
Atom  33H    basis set group =>   2
Atom  34C    basis set group =>   1
Atom  35H    basis set group =>   2
Atom  36C    basis set group =>   1
Atom  37H    basis set group =>   2
Atom  38H    basis set group =>   2
Atom  39C    basis set group =>   1
Atom  40H    basis set group =>   2
Atom  41H    basis set group =>   2
Atom  42H    basis set group =>   2
Atom  43C    basis set group =>   1
Atom  44C    basis set group =>   1
Atom  45H    basis set group =>   2
Atom  46H    basis set group =>   2
Atom  47H    basis set group =>   2
Atom  48H    basis set group =>   2
Atom  49C    basis set group =>   1
Atom  50C    basis set group =>   1
Atom  51C    basis set group =>   1
Atom  52H    basis set group =>   2
Atom  53H    basis set group =>   2
Atom  54C    basis set group =>   1
Atom  55C    basis set group =>   1
Atom  56C    basis set group =>   1
Atom  57H    basis set group =>   2
Atom  58H    basis set group =>   2
Atom  59C    basis set group =>   1
Atom  60C    basis set group =>   1
Atom  61H    basis set group =>   2
Atom  62H    basis set group =>   2
Atom  63H    basis set group =>   2
Atom  64H    basis set group =>   2
Atom  65H    basis set group =>   2
Atom  66H    basis set group =>   2
Atom  67H    basis set group =>   2
Atom  68H    basis set group =>   2
Atom  69H    basis set group =>   2
Atom  70H    basis set group =>   2
Atom  71H    basis set group =>   2
Atom  72H    basis set group =>   2

-------------------------
BASIS SET IN INPUT FORMAT
-------------------------

 # Basis set for element : H 
 NewGTO H 
 S 3 
   1    1357.7500000000      0.0012928364
   2      54.3100000000      0.0588280685
   3       4.3448000000      0.9761499708
 S 1 
   1       0.6604910000      1.0000000000
 S 1 
   1       0.1366870000      1.0000000000
  end;

 # Basis set for element : C 
 NewGTO C 
 S 4 
   1  139534.0000000000      0.0001655246
   2    5581.3600000000      0.0074486101
   3     446.5090000000      0.1285821065
   4      67.4620000000      0.9218029311
 S 1 
   1      15.0674000000      1.0000000000
 S 1 
   1       3.9387600000      1.0000000000
 S 1 
   1       0.2999150000      1.0000000000
 P 2 
   1      28.3900000000      0.0816325586
   2       4.3676900000      0.9660360576
 P 1 
   1       0.8698170000      1.0000000000
 P 1 
   1       0.1889340000      1.0000000000
  end;

 # Basis set for element : O 
 NewGTO O 
 S 4 
   1  253789.0000000000      0.0001641076
   2   10151.6000000000      0.0074010921
   3     812.1250000000      0.1277711901
   4     122.6930000000      0.9223372164
 S 1 
   1      27.5608000000      1.0000000000
 S 1 
   1       7.3172600000      1.0000000000
 S 1 
   1       0.5792400000      1.0000000000
 P 2 
   1      53.4157000000      0.0793786106
   2       8.2177900000      0.9670506337
 P 1 
   1       1.6754400000      1.0000000000
 P 1 
   1       0.3506720000      1.0000000000
  end;

---------------------------------
AUXILIARY/J BASIS SET INFORMATION
---------------------------------
There are 3 groups of distinct atoms

 Group   1 Type C   : 12s5p4d2f1g contracted to 6s4p3d1f1g pattern {711111/2111/211/2/1}
 Group   2 Type H   : 5s2p1d contracted to 3s1p1d pattern {311/2/1}
 Group   3 Type O   : 12s5p4d2f1g contracted to 6s4p3d1f1g pattern {711111/2111/211/2/1}

Atom   0C    basis set group =>   1
Atom   1C    basis set group =>   1
Atom   2C    basis set group =>   1
Atom   3H    basis set group =>   2
Atom   4H    basis set group =>   2
Atom   5C    basis set group =>   1
Atom   6C    basis set group =>   1
Atom   7C    basis set group =>   1
Atom   8H    basis set group =>   2
Atom   9H    basis set group =>   2
Atom  10H    basis set group =>   2
Atom  11H    basis set group =>   2
Atom  12O    basis set group =>   3
Atom  13H    basis set group =>   2
Atom  14C    basis set group =>   1
Atom  15C    basis set group =>   1
Atom  16H    basis set group =>   2
Atom  17H    basis set group =>   2
Atom  18C    basis set group =>   1
Atom  19H    basis set group =>   2
Atom  20C    basis set group =>   1
Atom  21H    basis set group =>   2
Atom  22C    basis set group =>   1
Atom  23C    basis set group =>   1
Atom  24H    basis set group =>   2
Atom  25H    basis set group =>   2
Atom  26C    basis set group =>   1
Atom  27H    basis set group =>   2
Atom  28H    basis set group =>   2
Atom  29C    basis set group =>   1
Atom  30H    basis set group =>   2
Atom  31H    basis set group =>   2
Atom  32C    basis set group =>   1
Atom  33H    basis set group =>   2
Atom  34C    basis set group =>   1
Atom  35H    basis set group =>   2
Atom  36C    basis set group =>   1
Atom  37H    basis set group =>   2
Atom  38H    basis set group =>   2
Atom  39C    basis set group =>   1
Atom  40H    basis set group =>   2
Atom  41H    basis set group =>   2
Atom  42H    basis set group =>   2
Atom  43C    basis set group =>   1
Atom  44C    basis set group =>   1
Atom  45H    basis set group =>   2
Atom  46H    basis set group =>   2
Atom  47H    basis set group =>   2
Atom  48H    basis set group =>   2
Atom  49C    basis set group =>   1
Atom  50C    basis set group =>   1
Atom  51C    basis set group =>   1
Atom  52H    basis set group =>   2
Atom  53H    basis set group =>   2
Atom  54C    basis set group =>   1
Atom  55C    basis set group =>   1
Atom  56C    basis set group =>   1
Atom  57H    basis set group =>   2
Atom  58H    basis set group =>   2
Atom  59C    basis set group =>   1
Atom  60C    basis set group =>   1
Atom  61H    basis set group =>   2
Atom  62H    basis set group =>   2
Atom  63H    basis set group =>   2
Atom  64H    basis set group =>   2
Atom  65H    basis set group =>   2
Atom  66H    basis set group =>   2
Atom  67H    basis set group =>   2
Atom  68H    basis set group =>   2
Atom  69H    basis set group =>   2
Atom  70H    basis set group =>   2
Atom  71H    basis set group =>   2
Atom  72H    basis set group =>   2

-------------------------------------
AUXILIARY/J BASIS SET IN INPUT FORMAT
-------------------------------------

 # Auxiliary/J basis set for element : H 
 NewAuxJGTO H 
 S 3 
   1      15.6752927000      0.1007184237
   2       3.6063578000      0.3404257499
   3       1.2080016000      0.6491996172
 S 1 
   1       0.4726794000      1.0000000000
 S 1 
   1       0.2018100000      1.0000000000
 P 2 
   1       2.0281365000      0.5596620919
   2       0.5358730000      0.5596620919
 D 1 
   1       2.2165124000      1.0000000000
  end;

 # Auxiliary/J basis set for element : C 
 NewAuxJGTO C 
 S 7 
   1    1861.0916331000      0.0134602335
   2     642.9939764000      0.0299160374
   3     235.1105725000      0.1008649584
   4      90.7028894000      0.2370970548
   5      36.7794552000      0.3924037254
   6      15.6046273000      0.3195862154
   7       6.8907294000      0.0530104441
 S 1 
   1       3.1478850000     -1.0000000000
 S 1 
   1       1.4777287000      1.0000000000
 S 1 
   1       0.7076466000      1.0000000000
 S 1 
   1       0.3430122000      1.0000000000
 S 1 
   1       0.1669453000      1.0000000000
 P 2 
   1      13.5472892000     -0.6769313712
   2       5.4669419000     -0.3779500978
 P 1 
   1       2.1751721000      1.0000000000
 P 1 
   1       0.8582194000      1.0000000000
 P 1 
   1       0.3376720000      1.0000000000
 D 2 
   1       5.9287253000     -0.3533329857
   2       1.9809209000     -0.7456525731
 D 1 
   1       0.8055417000     -1.0000000000
 D 1 
   1       0.3531244000     -1.0000000000
 F 2 
   1       1.6755626000      0.6311076882
   2       0.5997536000      0.4968166032
 G 1 
   1       1.0024600000     -1.0000000000
  end;

 # Auxiliary/J basis set for element : O 
 NewAuxJGTO O 
 S 7 
   1    2876.8216605000      0.0168151159
   2    1004.7443032000      0.0340137548
   3     369.7579954000      0.1194951309
   4     142.9442404000      0.2664627624
   5      57.8366425000      0.4202764046
   6      24.3864983000      0.2765077335
   7      10.6622662000      0.0057008815
 S 1 
   1       4.8070437000     -1.0000000000
 S 1 
   1       2.2210770000      1.0000000000
 S 1 
   1       1.0447795000      1.0000000000
 S 1 
   1       0.4968425000      1.0000000000
 S 1 
   1       0.2371384000      1.0000000000
 P 2 
   1      64.2613382000     -0.2731534179
   2      16.3006076000     -0.8168011598
 P 1 
   1       4.3550542000      1.0000000000
 P 1 
   1       1.2019554000      1.0000000000
 P 1 
   1       0.3354196000      1.0000000000
 D 2 
   1       9.2146611000     -0.4661230638
   2       2.8435251000     -0.6600908911
 D 1 
   1       0.9955759000     -1.0000000000
 D 1 
   1       0.3649441000     -1.0000000000
 F 2 
   1       2.6420115000      0.5931563945
   2       0.7345613000      0.5931563945
 G 1 
   1       1.3931000000     -1.0000000000
  end;


Checking for AutoStart:
The File: inpJ.gbw exists
Trying to determine its content:
     ... Fine, the file contains calculation information
     ... Fine, the calculation information was read
     ... Fine, the file contains a basis set
     ... Fine, the basis set was read
     ... Fine, the file contains a geometry
     ... Fine, the geometry was read
     ... Fine, the file contains a set of orbitals
     ... Fine, the orbitals can be read
     => possible old guess file was deleted
     => GBW file was renamed to GES file
     => GES file is set as startup file
     => Guess is set to MORead
     ... now leaving AutoStart



           ************************************************************
           *        Program running with 4 parallel MPI-processes     *
           *              working on a common directory               *
           ************************************************************
------------------------------------------------------------------------------
                             ORCA STARTUP CALCULATIONS
                           -- RI-GTO INTEGRALS CHOSEN --
------------------------------------------------------------------------------
------------------------------------------------------------------------------
                   ___                                                        
                  /   \      - P O W E R E D   B Y -                         
                 /     \                                                     
                 |  |  |   _    _      __       _____    __    __             
                 |  |  |  | |  | |    /  \     |  _  \  |  |  /  |          
                  \  \/   | |  | |   /    \    | | | |  |  | /  /          
                 / \  \   | |__| |  /  /\  \   | |_| |  |  |/  /          
                |  |  |   |  __  | /  /__\  \  |    /   |      \           
                |  |  |   | |  | | |   __   |  |    \   |  |\   \          
                \     /   | |  | | |  |  |  |  | |\  \  |  | \   \       
                 \___/    |_|  |_| |__|  |__|  |_| \__\ |__|  \__/        
                                                                              
                      - O R C A' S   B I G   F R I E N D -                    
                                      &                                       
                       - I N T E G R A L  F E E D E R -                       
                                                                              
 v1 FN, 2020, v2 2021, v3 2022-2024                                           
------------------------------------------------------------------------------


----------------------
SHARK INTEGRAL PACKAGE
----------------------

Number of atoms                             ...     73
Number of basis functions                   ...    509
Number of shells                            ...    335
Maximum angular momentum                    ...      1
Integral batch strategy                     ... SHARK/LIBINT Hybrid
RI-J (if used) integral strategy            ... SPLIT-RIJ (Revised 2003 algorithm where possible)
Printlevel                                  ...      1
Contraction scheme used                     ... SEGMENTED contraction
Prescreening option                         ... SCHWARTZ
   Thresh                                   ... 3.000e-11
   Tcut                                     ... 1.000e-12
   Tpresel                                  ... 1.000e-12 
Coulomb Range Separation                    ... NOT USED
Exchange Range Separation                   ... NOT USED
Multipole approximations                    ... NOT USED
Finite Nucleus Model                        ... NOT USED
CABS basis                                  ... NOT available
Auxiliary Coulomb fitting basis             ... AVAILABLE
   # of basis functions in Aux-J            ...   1905
   # of shells in Aux-J                     ...    655
   Maximum angular momentum in Aux-J        ...      4
Auxiliary J/K fitting basis                 ... NOT available
Auxiliary Correlation fitting basis         ... NOT available
Auxiliary 'external' fitting basis          ... NOT available

Checking pre-screening integrals            ... done (  0.0 sec) Dimension = 335
Check shell pair data                       ... done (  0.0 sec)
Shell pair information
Shell pair cut-off parameter TPreSel        ...   1.0e-12
Total number of shell pairs                 ...     56280
Shell pairs after pre-screening             ...     21758
Total number of primitive shell pairs       ...    145865
Primitive shell pairs kept                  ...     37420
          la=0 lb=0:  10941 shell pairs
          la=1 lb=0:   8957 shell pairs
          la=1 lb=1:   1860 shell pairs

Calculating one electron integrals          ... done (  0.0 sec)
Calculating RI/J V-Matrix + Cholesky decomp.... done (  0.2 sec)
Calculating Nuclear repulsion               ... done (  0.0 sec) ENN=   2777.068677506958 Eh

Diagonalization of the overlap matrix:
Smallest eigenvalue                        ... 7.571e-03
Time for diagonalization                   ...    0.028 sec
Threshold for overlap eigenvalues          ... 1.000e-07
Number of eigenvalues below threshold      ... 0
Time for construction of square roots      ...    0.015 sec
Total time needed                          ...    0.045 sec

-------------------
DFT GRID GENERATION
-------------------

General Integration Accuracy     IntAcc      ... 4.388
Radial Grid Type                 RadialGrid  ... OptM3 with GC (2021)
Angular Grid (max. ang.)         AngularGrid ... 4 (Lebedev-302)
Angular grid pruning method      GridPruning ... 4 (adaptive)
Weight generation scheme         WeightScheme... mBecke (2022)
Basis function cutoff            BFCut       ... 1.0000e-11
Integration weight cutoff        WCut        ... 1.0000e-14
Partially contracted basis set               ... off
Rotationally invariant grid construction     ... off
Angular grids for H and He will be reduced by one unit

Total number of grid points                  ...   309857
Total number of batches                      ...     4879
Average number of points per batch           ...       63
Average number of grid points per atom       ...     4245

--------------------
COSX GRID GENERATION
--------------------

GRIDX 1
-------
General Integration Accuracy     IntAcc      ... 3.816
Radial Grid Type                 RadialGrid  ... OptM3 with GC (2021)
Angular Grid (max. ang.)         AngularGrid ... 1 (Lebedev-50)
Angular grid pruning method      GridPruning ... 4 (adaptive)
Weight generation scheme         WeightScheme... mBecke (2022)
Basis function cutoff            BFCut       ... 1.0000e-11
Integration weight cutoff        WCut        ... 1.0000e-14
Partially contracted basis set               ... on
Rotationally invariant grid construction     ... off
Angular grids for H and He will be reduced by one unit

Total number of grid points                  ...    39420
Total number of batches                      ...      354
Average number of points per batch           ...      111
Average number of grid points per atom       ...      540
UseSFitting                                  ... on

GRIDX 2
-------
General Integration Accuracy     IntAcc      ... 4.020
Radial Grid Type                 RadialGrid  ... OptM3 with GC (2021)
Angular Grid (max. ang.)         AngularGrid ... 2 (Lebedev-110)
Angular grid pruning method      GridPruning ... 4 (adaptive)
Weight generation scheme         WeightScheme... mBecke (2022)
Basis function cutoff            BFCut       ... 1.0000e-11
Integration weight cutoff        WCut        ... 1.0000e-14
Partially contracted basis set               ... on
Rotationally invariant grid construction     ... off
Angular grids for H and He will be reduced by one unit

Total number of grid points                  ...    81381
Total number of batches                      ...      677
Average number of points per batch           ...      120
Average number of grid points per atom       ...     1115
UseSFitting                                  ... on

GRIDX 3
-------
General Integration Accuracy     IntAcc      ... 4.338
Radial Grid Type                 RadialGrid  ... OptM3 with GC (2021)
Angular Grid (max. ang.)         AngularGrid ... 3 (Lebedev-194)
Angular grid pruning method      GridPruning ... 4 (adaptive)
Weight generation scheme         WeightScheme... mBecke (2022)
Basis function cutoff            BFCut       ... 1.0000e-11
Integration weight cutoff        WCut        ... 1.0000e-14
Partially contracted basis set               ... on
Rotationally invariant grid construction     ... off
Angular grids for H and He will be reduced by one unit

Total number of grid points                  ...   176190
Total number of batches                      ...     1418
Average number of points per batch           ...      124
Average number of grid points per atom       ...     2414
UseSFitting                                  ... on
Initializing property integral containers    ... done (  0.0 sec)

SHARK setup successfully completed in   3.6 seconds

Maximum memory used throughout the entire STARTUP-calculation: 85.6 MB


           ************************************************************
           *        Program running with 4 parallel MPI-processes     *
           *              working on a common directory               *
           ************************************************************
-------------------------------------------------------------------------------
                                 ORCA GUESS
                   Start orbitals & Density for SCF / CASSCF
-------------------------------------------------------------------------------

------------
SCF SETTINGS
------------
Hamiltonian:
 Density Functional     Method          .... DFT(GTOs)
 Exchange Functional    Exchange        .... PBE
   PBE kappa parameter   XKappa         ....  0.804000
   PBE mue parameter    XMuePBE         ....  0.219520
 Correlation Functional Correlation     .... PBE
   PBE beta parameter  CBetaPBE         ....  0.066725
 LDA part of GGA corr.  LDAOpt          .... PW91-LDA
 Gradients option       PostSCFGGA      .... off
 Hybrid DFT is turned on
   Fraction HF Exchange ScalHFX         ....  0.250000
   Scaling of DF-GGA-X  ScalDFX         ....  0.750000
   Scaling of DF-GGA-C  ScalDFC         ....  1.000000
   Scaling of DF-LDA-C  ScalLDAC        ....  1.000000
   Perturbative correction              ....  0.000000
   NL short-range parameter             ....  6.900000
 RI-approximation to the Coulomb term is turned on
   Number of AuxJ basis functions       .... 1905
   RIJ-COSX (HFX calculated with COS-X)).... on


General Settings:
 Integral files         IntName         .... inpJ
 Hartree-Fock type      HFTyp           .... RHF
 Total Charge           Charge          ....    0
 Multiplicity           Mult            ....    1
 Number of Electrons    NEL             ....  220
 Basis Dimension        Dim             ....  509
 Nuclear Repulsion      ENuc            ....   2777.0686775070 Eh

Convergence Acceleration:
 AO-DIIS                CNVDIIS         .... on
   Start iteration      DIISMaxIt       ....    12
   Startup error        DIISStart       ....  0.200000
   # of expansion vecs  DIISMaxEq       ....     5
   Bias factor          DIISBfac        ....   1.050
   Max. coefficient     DIISMaxC        ....  10.000
 MO-DIIS                CNVKDIIS        .... off
 Trust-Rad. Augm. Hess. CNVTRAH         .... auto
   Auto Start mean grad. ratio tolernc. ....  1.125000
   Auto Start start iteration           ....     1
   Auto Start num. interpolation iter.  ....    10
   Max. Number of Micro iterations      ....    24
   Max. Number of Macro iterations      .... Maxiter - #DIIS iter
   Number of Davidson start vectors     ....     2
   Converg. threshold    (grad. norm)   ....   1.000e-04
   Grad. Scal. Fac. for Micro threshold ....   0.100
   Minimum threshold for Micro iter.    ....   1.000e-02
   NR start threshold (gradient norm)   ....   1.000e-04
   Initial trust radius                 ....   0.400
   Minimum AH scaling param. (alpha)    ....   1.000
   Maximum AH scaling param. (alpha)    .... 1000.000
   Quad. conv. algorithm                .... NR
   White noise on init. David. guess    .... on
   Maximum white noise                  ....   0.010
   Pseudo random numbers                .... off
   Inactive MOs                         .... canonical
   Orbital update algorithm             .... Taylor
   Preconditioner                       .... Diag
   Full preconditioner red. dimension   ....   250
 SOSCF                  CNVSOSCF        .... off
 Level Shifting         CNVShift        .... on
   Level shift para.    LevelShift      ....    0.2500
   Turn off err/grad.   ShiftErr        ....    0.0010
 Zerner damping         CNVZerner       .... off
 Static damping         CNVDamp         .... on
   Fraction old density DampFac         ....    0.7000
   Max. Damping (<1)    DampMax         ....    0.9800
   Min. Damping (>=0)   DampMin         ....    0.0000
   Turn off err/grad.   DampErr         ....    0.1000

SCF Procedure:
 Maximum # iterations   MaxIter         ....   125
 SCF integral mode      SCFMode         .... Direct
   Integral package                     .... SHARK and LIBINT hybrid scheme
 Reset frequency        DirectResetFreq ....    20
 Integral Threshold     Thresh          ....  3.000e-11 Eh
 Primitive CutOff       TCut            ....  1.000e-12 Eh

Convergence Tolerance:
 Convergence Check Mode ConvCheckMode   .... Total+1el-Energy
 Convergence forced     ConvForced      .... 0
 Energy Change          TolE            ....  1.000e-07 Eh
 1-El. energy change                    ....  1.000e-04 Eh
 DIIS Error             TolErr          ....  1.000e-07

---------------------
INITIAL GUESS: MOREAD
---------------------
Guess MOs are being read from file: inpJ.ges
Input Geometry matches current geometry (good)
Input basis set matches current basis set (good)
Occupation numbers will be reassigned to an Aufbau configuration
MOs were renormalized
MOs were reorthogonalized (Cholesky)
                      ------------------
                      INITIAL GUESS DONE (   0.1 sec)
                      ------------------
             **** ENERGY FILE WAS UPDATED (inpJ.en.tmp) ****
Finished Guess after   0.2 sec
Maximum memory used throughout the entire GUESS-calculation: 36.6 MB


           ************************************************************
           *        Program running with 4 parallel MPI-processes     *
           *              working on a common directory               *
           ************************************************************

-------------------------------------------------------------------------------------------
                                      ORCA LEAN-SCF
                              memory conserving SCF solver
-------------------------------------------------------------------------------------------

--------------------
CPCM SOLVATION MODEL
--------------------
CPCM parameters:
  Epsilon                                         ...       4.8030
  Refrac                                          ...       1.4459
  Rsolv                                           ...       1.3000
  Surface type                                    ... GAUSSIAN VDW
  Discretization scheme                           ... Constant charge density
    Threshold for H atoms                         ...       5.0000 (charges/Ang^2)
    Threshold for non-H atoms                     ...       5.0000 (charges/Ang^2)
  Epsilon function type                           ...         CPCM
Solvent:                                          ... CHLOROFORM
Radii:
  Scheme                                          ... Element-dependent radii
  Radius for C  used is    3.8550 Bohr (=   2.0400 Ang.)
  Radius for H  used is    2.4944 Bohr (=   1.3200 Ang.)
  Radius for O  used is    3.4469 Bohr (=   1.8240 Ang.)
Calculating surface                               ...        done! (  0.0s)
Cavity surface points                             ...         5344
Cavity Volume                                     ...    3612.5651
Cavity Surface-area                               ...    1787.4994
Calculating surface distance matrix               ...        done! (  0.2s)
Performing Cholesky decomposition & store         ...        done! (  1.2s)
Overall time for CPCM initialization              ...                 1.4s

----------------------------------------D-I-I-S--------------------------------------------
Iteration    Energy (Eh)           Delta-E    RMSDP     MaxDP     DIISErr   Damp  Time(sec)
-------------------------------------------------------------------------------------------
               ***  Starting incremental Fock matrix formation  ***
    1    -1165.5115346920065349     0.00e+00  3.57e-08  4.93e-06  5.58e-06  0.700   6.2

  HOMO= 109 E= -6.016 eV LUMO=  5.934 eV gap=  11.950 eV
    2    -1165.5115347223618301    -3.04e-08  2.43e-08  3.00e-06  2.83e-06  0.700   2.0
                 **** Energy Check signals convergence ****

  HOMO= 109 E= -6.016 eV LUMO=  5.934 eV gap=  11.950 eV

               *****************************************************
               *                     SUCCESS                       *
               *           SCF CONVERGED AFTER   2 CYCLES          *
               *****************************************************

Recomputing exchange energy using gridx3       ... done (    8.185 sec)
Old exchange energy                            :    -42.068520470 Eh
New exchange energy                            :    -42.068486707 Eh
Exchange energy change after final integration :      0.000033763 Eh
Total energy after final integration           :  -1165.511500960 Eh
             **** ENERGY FILE WAS UPDATED (inpJ.en.tmp) ****

----------------
TOTAL SCF ENERGY
----------------

Total Energy       :      -1165.51150095952562 Eh          -31715.18031 eV

Components:
Nuclear Repulsion  :       2777.06867750695847 Eh           75567.88051 eV
Electronic Energy  :      -3942.56663988852551 Eh         -107282.69242 eV
One Electron Energy:      -7095.87599091807897 Eh         -193088.60215 eV
Two Electron Energy:       3153.30935102955345 Eh           85805.90973 eV
CPCM Dielectric    :         -0.01357234079470 Eh              -0.36932 eV

Virial components:
Potential Energy   :      -2322.41040872189024 Eh          -63196.00004 eV
Kinetic Energy     :       1156.89890776236484 Eh           31480.81973 eV
Virial Ratio       :          2.00744455123898

DFT components:
N(Alpha)           :      110.000061732176 electrons
N(Beta)            :      110.000061732176 electrons
N(Total)           :      220.000123464351 electrons
E(X)               :     -125.747616025543 Eh       
E(C)               :       -7.329249987592 Eh       
E(XC)              :     -133.076866013136 Eh       

CPCM Solvation Model Properties:
Surface-charge          :         -0.03338112361365
Corrected charge        :         -0.00000000000000
Outlying charge corr.   :          0.00003900647460 Eh               0.00106 eV
Free-energy (cav+disp)  :  This term is not implemented in the current solvation scheme

---------------
SCF CONVERGENCE
---------------

  Last Energy change         ...    3.0355e-08  Tolerance :   1.0000e-07
  Last MAX-Density change    ...    2.9996e-06  Tolerance :   1.0000e-05
  Last RMS-Density change    ...    2.4348e-08  Tolerance :   1.0000e-06
  Last DIIS Error            ...    2.8295e-06  Tolerance :   1.0000e-07


----------------
ORBITAL ENERGIES
----------------

  NO   OCC          E(Eh)            E(eV) 
   0   2.0000     -19.212577      -522.8008 
   1   2.0000     -10.300582      -280.2931 
   2   2.0000     -10.270651      -279.4786 
   3   2.0000     -10.268501      -279.4201 
   4   2.0000     -10.264045      -279.2989 
   5   2.0000     -10.257696      -279.1261 
   6   2.0000     -10.257607      -279.1237 
   7   2.0000     -10.252083      -278.9733 
   8   2.0000     -10.250968      -278.9430 
   9   2.0000     -10.249252      -278.8963 
  10   2.0000     -10.248314      -278.8708 
  11   2.0000     -10.247749      -278.8554 
  12   2.0000     -10.247036      -278.8360 
  13   2.0000     -10.246788      -278.8293 
  14   2.0000     -10.244920      -278.7784 
  15   2.0000     -10.243062      -278.7279 
  16   2.0000     -10.242118      -278.7022 
  17   2.0000     -10.241904      -278.6964 
  18   2.0000     -10.241652      -278.6895 
  19   2.0000     -10.241322      -278.6805 
  20   2.0000     -10.240342      -278.6539 
  21   2.0000     -10.235886      -278.5326 
  22   2.0000     -10.235520      -278.5227 
  23   2.0000     -10.234361      -278.4911 
  24   2.0000     -10.225223      -278.2425 
  25   2.0000     -10.225114      -278.2395 
  26   2.0000     -10.224459      -278.2217 
  27   2.0000     -10.222232      -278.1611 
  28   2.0000     -10.221454      -278.1399 
  29   2.0000      -1.043341       -28.3907 
  30   2.0000      -0.902172       -24.5494 
  31   2.0000      -0.882405       -24.0115 
  32   2.0000      -0.860093       -23.4043 
  33   2.0000      -0.846540       -23.0355 
  34   2.0000      -0.822630       -22.3849 
  35   2.0000      -0.814907       -22.1747 
  36   2.0000      -0.796144       -21.6642 
  37   2.0000      -0.795268       -21.6404 
  38   2.0000      -0.776372       -21.1262 
  39   2.0000      -0.759057       -20.6550 
  40   2.0000      -0.741905       -20.1883 
  41   2.0000      -0.731171       -19.8962 
  42   2.0000      -0.715668       -19.4743 
  43   2.0000      -0.703242       -19.1362 
  44   2.0000      -0.703045       -19.1308 
  45   2.0000      -0.696548       -18.9540 
  46   2.0000      -0.671408       -18.2699 
  47   2.0000      -0.665704       -18.1147 
  48   2.0000      -0.636675       -17.3248 
  49   2.0000      -0.622640       -16.9429 
  50   2.0000      -0.613909       -16.7053 
  51   2.0000      -0.607522       -16.5315 
  52   2.0000      -0.597926       -16.2704 
  53   2.0000      -0.582477       -15.8500 
  54   2.0000      -0.556978       -15.1561 
  55   2.0000      -0.541435       -14.7332 
  56   2.0000      -0.531561       -14.4645 
  57   2.0000      -0.529441       -14.4068 
  58   2.0000      -0.515481       -14.0269 
  59   2.0000      -0.509929       -13.8759 
  60   2.0000      -0.502930       -13.6854 
  61   2.0000      -0.493587       -13.4312 
  62   2.0000      -0.482852       -13.1391 
  63   2.0000      -0.481356       -13.0984 
  64   2.0000      -0.475411       -12.9366 
  65   2.0000      -0.467832       -12.7304 
  66   2.0000      -0.465321       -12.6620 
  67   2.0000      -0.462210       -12.5774 
  68   2.0000      -0.459576       -12.5057 
  69   2.0000      -0.453593       -12.3429 
  70   2.0000      -0.450858       -12.2685 
  71   2.0000      -0.444331       -12.0909 
  72   2.0000      -0.437191       -11.8966 
  73   2.0000      -0.434761       -11.8305 
  74   2.0000      -0.430416       -11.7122 
  75   2.0000      -0.428139       -11.6503 
  76   2.0000      -0.420044       -11.4300 
  77   2.0000      -0.414893       -11.2898 
  78   2.0000      -0.413256       -11.2453 
  79   2.0000      -0.404046       -10.9946 
  80   2.0000      -0.400105       -10.8874 
  81   2.0000      -0.397578       -10.8186 
  82   2.0000      -0.395586       -10.7645 
  83   2.0000      -0.388735       -10.5780 
  84   2.0000      -0.381955       -10.3935 
  85   2.0000      -0.377138       -10.2624 
  86   2.0000      -0.374696       -10.1960 
  87   2.0000      -0.371100       -10.0981 
  88   2.0000      -0.368441       -10.0258 
  89   2.0000      -0.364559        -9.9201 
  90   2.0000      -0.361135        -9.8270 
  91   2.0000      -0.358877        -9.7655 
  92   2.0000      -0.353128        -9.6091 
  93   2.0000      -0.346075        -9.4172 
  94   2.0000      -0.342538        -9.3209 
  95   2.0000      -0.339646        -9.2422 
  96   2.0000      -0.338330        -9.2064 
  97   2.0000      -0.334674        -9.1070 
  98   2.0000      -0.332934        -9.0596 
  99   2.0000      -0.330683        -8.9983 
 100   2.0000      -0.324985        -8.8433 
 101   2.0000      -0.324389        -8.8271 
 102   2.0000      -0.320011        -8.7079 
 103   2.0000      -0.319372        -8.6906 
 104   2.0000      -0.311500        -8.4764 
 105   2.0000      -0.301830        -8.2132 
 106   2.0000      -0.276816        -7.5325 
 107   2.0000      -0.275354        -7.4928 
 108   2.0000      -0.255036        -6.9399 
 109   2.0000      -0.221077        -6.0158 
 110   0.0000      -0.031916        -0.8685 
 111   0.0000       0.019130         0.5205 
 112   0.0000       0.029889         0.8133 
 113   0.0000       0.081827         2.2266 
 114   0.0000       0.092112         2.5065 
 115   0.0000       0.099033         2.6948 
 116   0.0000       0.103612         2.8194 
 117   0.0000       0.106139         2.8882 
 118   0.0000       0.108718         2.9584 
 119   0.0000       0.112871         3.0714 
 120   0.0000       0.117285         3.1915 
*Only the first 10 virtual orbitals were printed.

                    ********************************
                    * MULLIKEN POPULATION ANALYSIS *
                    ********************************

-----------------------
MULLIKEN ATOMIC CHARGES
-----------------------
   0 C :    0.078333
   1 C :   -0.500518
   2 C :   -0.074201
   3 H :    0.222999
   4 H :    0.219859
   5 C :    0.138745
   6 C :   -0.480045
   7 C :   -0.439813
   8 H :    0.225408
   9 H :    0.207302
  10 H :    0.208856
  11 H :    0.227939
  12 O :   -0.488119
  13 H :    0.247379
  14 C :   -0.280309
  15 C :   -0.513999
  16 H :    0.200966
  17 H :    0.196936
  18 C :   -0.260500
  19 H :    0.220122
  20 C :    0.154255
  21 H :    0.219591
  22 C :   -0.479387
  23 C :   -0.427651
  24 H :    0.211895
  25 H :    0.207222
  26 C :   -0.397141
  27 H :    0.208591
  28 H :    0.217480
  29 C :    0.000654
  30 H :    0.222806
  31 H :    0.194743
  32 C :   -0.229715
  33 H :    0.228613
  34 C :   -0.430309
  35 H :    0.341063
  36 C :   -0.427246
  37 H :    0.208732
  38 H :    0.198803
  39 C :   -0.184821
  40 H :    0.211100
  41 H :    0.205754
  42 H :    0.212760
  43 C :   -0.237941
  44 C :   -0.627853
  45 H :    0.205655
  46 H :    0.209656
  47 H :    0.201617
  48 H :    0.218613
  49 C :   -0.640985
  50 C :   -0.189357
  51 C :   -0.186636
  52 H :    0.224861
  53 H :    0.222073
  54 C :   -0.227086
  55 C :   -0.633284
  56 C :   -0.200437
  57 H :    0.223372
  58 H :    0.220218
  59 C :   -0.614669
  60 C :   -0.612409
  61 H :    0.197570
  62 H :    0.206346
  63 H :    0.202914
  64 H :    0.205772
  65 H :    0.193997
  66 H :    0.200381
  67 H :    0.200922
  68 H :    0.205327
  69 H :    0.199016
  70 H :    0.215220
  71 H :    0.191770
  72 H :    0.200225
Sum of atomic charges:    0.0000000

--------------------------------
MULLIKEN REDUCED ORBITAL CHARGES
--------------------------------
  0 C s       :     3.354255  s :     3.354255
      pz      :     1.002443  p :     2.567411
      px      :     0.806904
      py      :     0.758065

  1 C s       :     3.377982  s :     3.377982
      pz      :     1.132062  p :     3.122536
      px      :     0.874667
      py      :     1.115807

  2 C s       :     3.312701  s :     3.312701
      pz      :     0.707041  p :     2.761500
      px      :     1.144191
      py      :     0.910268

  3 H s       :     0.777001  s :     0.777001

  4 H s       :     0.780141  s :     0.780141

  5 C s       :     3.341416  s :     3.341416
      pz      :     0.884224  p :     2.519838
      px      :     0.867438
      py      :     0.768177

  6 C s       :     3.367276  s :     3.367276
      pz      :     1.131633  p :     3.112769
      px      :     0.891485
      py      :     1.089651

  7 C s       :     3.338591  s :     3.338591
      pz      :     1.182159  p :     3.101223
      px      :     0.963210
      py      :     0.955854

  8 H s       :     0.774592  s :     0.774592

  9 H s       :     0.792698  s :     0.792698

 10 H s       :     0.791144  s :     0.791144

 11 H s       :     0.772061  s :     0.772061

 12 O s       :     3.685001  s :     3.685001
      pz      :     1.445111  p :     4.803118
      px      :     1.454772
      py      :     1.903235

 13 H s       :     0.752621  s :     0.752621

 14 C s       :     3.394149  s :     3.394149
      pz      :     0.982736  p :     2.886159
      px      :     0.827673
      py      :     1.075750

 15 C s       :     3.385200  s :     3.385200
      pz      :     0.990138  p :     3.128799
      px      :     0.990618
      py      :     1.148043

 16 H s       :     0.799034  s :     0.799034

 17 H s       :     0.803064  s :     0.803064

 18 C s       :     3.397322  s :     3.397322
      pz      :     1.017986  p :     2.863178
      px      :     0.767048
      py      :     1.078144

 19 H s       :     0.779878  s :     0.779878

 20 C s       :     3.350774  s :     3.350774
      pz      :     0.944554  p :     2.494970
      px      :     0.757889
      py      :     0.792527

 21 H s       :     0.780409  s :     0.780409

 22 C s       :     3.372582  s :     3.372582
      pz      :     1.107538  p :     3.106806
      px      :     1.115112
      py      :     0.884155

 23 C s       :     3.327525  s :     3.327525
      pz      :     1.093995  p :     3.100125
      px      :     0.891676
      py      :     1.114454

 24 H s       :     0.788105  s :     0.788105

 25 H s       :     0.792778  s :     0.792778

 26 C s       :     3.350128  s :     3.350128
      pz      :     1.175505  p :     3.047014
      px      :     0.960482
      py      :     0.911027

 27 H s       :     0.791409  s :     0.791409

 28 H s       :     0.782520  s :     0.782520

 29 C s       :     3.318209  s :     3.318209
      pz      :     0.868787  p :     2.681137
      px      :     0.906390
      py      :     0.905959

 30 H s       :     0.777194  s :     0.777194

 31 H s       :     0.805257  s :     0.805257

 32 C s       :     3.362601  s :     3.362601
      pz      :     1.077251  p :     2.867115
      px      :     0.863197
      py      :     0.926667

 33 H s       :     0.771387  s :     0.771387

 34 C s       :     3.344722  s :     3.344722
      pz      :     1.190779  p :     3.085587
      px      :     0.928509
      py      :     0.966299

 35 H s       :     0.658937  s :     0.658937

 36 C s       :     3.335999  s :     3.335999
      pz      :     1.167846  p :     3.091247
      px      :     0.947672
      py      :     0.975730

 37 H s       :     0.791268  s :     0.791268

 38 H s       :     0.801197  s :     0.801197

 39 C s       :     3.338652  s :     3.338652
      pz      :     1.059216  p :     2.846169
      px      :     0.858436
      py      :     0.928518

 40 H s       :     0.788900  s :     0.788900

 41 H s       :     0.794246  s :     0.794246

 42 H s       :     0.787240  s :     0.787240

 43 C s       :     3.348240  s :     3.348240
      pz      :     1.050091  p :     2.889701
      px      :     0.874938
      py      :     0.964671

 44 C s       :     3.365637  s :     3.365637
      pz      :     0.958023  p :     3.262217
      px      :     1.162249
      py      :     1.141945

 45 H s       :     0.794345  s :     0.794345

 46 H s       :     0.790344  s :     0.790344

 47 H s       :     0.798383  s :     0.798383

 48 H s       :     0.781387  s :     0.781387

 49 C s       :     3.352175  s :     3.352175
      pz      :     1.148847  p :     3.288811
      px      :     1.163368
      py      :     0.976596

 50 C s       :     3.349176  s :     3.349176
      pz      :     0.949477  p :     2.840182
      px      :     0.816137
      py      :     1.074568

 51 C s       :     3.353500  s :     3.353500
      pz      :     0.943242  p :     2.833136
      px      :     0.817144
      py      :     1.072750

 52 H s       :     0.775139  s :     0.775139

 53 H s       :     0.777927  s :     0.777927

 54 C s       :     3.339969  s :     3.339969
      pz      :     1.076671  p :     2.887117
      px      :     0.868593
      py      :     0.941853

 55 C s       :     3.347374  s :     3.347374
      pz      :     1.158968  p :     3.285910
      px      :     1.170521
      py      :     0.956420

 56 C s       :     3.312379  s :     3.312379
      pz      :     0.953769  p :     2.888058
      px      :     0.993667
      py      :     0.940622

 57 H s       :     0.776628  s :     0.776628

 58 H s       :     0.779782  s :     0.779782

 59 C s       :     3.344787  s :     3.344787
      pz      :     0.976155  p :     3.269882
      px      :     1.158046
      py      :     1.135681

 60 C s       :     3.341130  s :     3.341130
      pz      :     1.164658  p :     3.271280
      px      :     1.151244
      py      :     0.955378

 61 H s       :     0.802430  s :     0.802430

 62 H s       :     0.793654  s :     0.793654

 63 H s       :     0.797086  s :     0.797086

 64 H s       :     0.794228  s :     0.794228

 65 H s       :     0.806003  s :     0.806003

 66 H s       :     0.799619  s :     0.799619

 67 H s       :     0.799078  s :     0.799078

 68 H s       :     0.794673  s :     0.794673

 69 H s       :     0.800984  s :     0.800984

 70 H s       :     0.784780  s :     0.784780

 71 H s       :     0.808230  s :     0.808230

 72 H s       :     0.799775  s :     0.799775


------------------------
MULLIKEN OVERLAP CHARGES
------------------------
B(  0-C ,  1-C ) :   0.5245 B(  0-C ,  2-C ) :  -0.1800 B(  0-C ,  3-H ) :  -0.0796 
B(  0-C ,  4-H ) :  -0.0863 B(  0-C ,  5-C ) :   0.4158 B(  0-C ,  6-C ) :  -0.1416 
B(  0-C , 14-C ) :   0.9504 B(  0-C , 15-C ) :  -0.2023 B(  0-C , 18-C ) :  -0.1864 
B(  0-C , 19-H ) :  -0.0751 B(  1-C ,  2-C ) :   0.5264 B(  1-C ,  3-H ) :   0.8090 
B(  1-C ,  4-H ) :   0.7737 B(  1-C ,  5-C ) :  -0.1407 B(  1-C ,  7-C ) :  -0.1580 
B(  1-C , 12-O ) :  -0.1100 B(  1-C , 13-H ) :  -0.0574 B(  1-C , 14-C ) :  -0.1136 
B(  2-C ,  3-H ) :  -0.0591 B(  2-C ,  4-H ) :  -0.0536 B(  2-C ,  6-C ) :  -0.1581 
B(  2-C ,  7-C ) :   0.5149 B(  2-C , 10-H ) :  -0.0624 B(  2-C , 11-H ) :  -0.0697 
B(  2-C , 12-O ) :   0.6966 B(  2-C , 13-H ) :   0.8216 B(  2-C , 35-H ) :  -0.1152 
B(  5-C ,  6-C ) :   0.5299 B(  5-C ,  7-C ) :  -0.1576 B(  5-C ,  8-H ) :  -0.0730 
B(  5-C ,  9-H ) :  -0.0939 B(  5-C , 14-C ) :  -0.1993 B(  5-C , 15-C ) :   1.0621 
B(  5-C , 16-H ) :  -0.0996 B(  5-C , 17-H ) :  -0.0951 B(  6-C ,  7-C ) :   0.5527 
B(  6-C ,  8-H ) :   0.8228 B(  6-C ,  9-H ) :   0.7936 B(  6-C , 10-H ) :  -0.0741 
B(  6-C , 11-H ) :  -0.0561 B(  6-C , 15-C ) :  -0.1298 B(  7-C ,  9-H ) :  -0.0777 
B(  7-C , 10-H ) :   0.7763 B(  7-C , 11-H ) :   0.8044 B(  7-C , 12-O ) :  -0.1080 
B(  7-C , 13-H ) :  -0.0826 B( 12-O , 35-H ) :   0.6664 B( 14-C , 18-C ) :   0.6123 
B( 14-C , 19-H ) :   0.8212 B( 14-C , 20-C ) :  -0.1940 B( 14-C , 21-H ) :  -0.0738 
B( 15-C , 16-H ) :   0.8137 B( 15-C , 17-H ) :   0.8065 B( 18-C , 19-H ) :  -0.0601 
B( 18-C , 20-C ) :   0.9186 B( 18-C , 21-H ) :   0.8334 B( 18-C , 22-C ) :  -0.1509 
B( 18-C , 32-C ) :  -0.1500 B( 20-C , 21-H ) :  -0.0830 B( 20-C , 22-C ) :   0.5336 
B( 20-C , 23-C ) :  -0.1731 B( 20-C , 24-H ) :  -0.0673 B( 20-C , 25-H ) :  -0.0917 
B( 20-C , 29-C ) :  -0.1243 B( 20-C , 32-C ) :   0.5192 B( 20-C , 33-H ) :  -0.0911 
[...]
        0.0000         2.9759        0.0000
        0.0000         0.0000        2.9759

 Diagonalized JT*J matrix:
 
 J[55,60](FC)             2.976            2.976            2.976  iso=      2.976
                ---------------  ---------------  ---------------  ---------------
 J[55,60](Total)          2.976            2.976            2.976  iso=      2.976



-----------------------------------------------------------
 NUCLEUS A = C   56 NUCLEUS B = C   59 
 ( 13C  gnA =  1.405  13C  gnB =  1.405) r(AB) =     1.5298
-----------------------------------------------------------

Fermi-contact contribution to J (Hz):
       26.8471         0.0000        0.0000
        0.0000        26.8471        0.0000
        0.0000         0.0000       26.8471

Total spin-spin coupling tensor J (Hz):
       26.8471         0.0000        0.0000
        0.0000        26.8471        0.0000
        0.0000         0.0000       26.8471

 Diagonalized JT*J matrix:
 
 J[56,59](FC)            26.847           26.847           26.847  iso=     26.847
                ---------------  ---------------  ---------------  ---------------
 J[56,59](Total)         26.847           26.847           26.847  iso=     26.847



-----------------------------------------------------------
 NUCLEUS A = C   56 NUCLEUS B = C   60 
 ( 13C  gnA =  1.405  13C  gnB =  1.405) r(AB) =     1.5310
-----------------------------------------------------------

Fermi-contact contribution to J (Hz):
       27.0130         0.0000        0.0000
        0.0000        27.0130        0.0000
        0.0000         0.0000       27.0130

Total spin-spin coupling tensor J (Hz):
       27.0130         0.0000        0.0000
        0.0000        27.0130        0.0000
        0.0000         0.0000       27.0130

 Diagonalized JT*J matrix:
 
 J[56,60](FC)            27.013           27.013           27.013  iso=     27.013
                ---------------  ---------------  ---------------  ---------------
 J[56,60](Total)         27.013           27.013           27.013  iso=     27.013



-----------------------------------------------------------
 NUCLEUS A = C   59 NUCLEUS B = C   60 
 ( 13C  gnA =  1.405  13C  gnB =  1.405) r(AB) =     2.5120
-----------------------------------------------------------

Fermi-contact contribution to J (Hz):
       -0.9199         0.0000        0.0000
        0.0000        -0.9199        0.0000
        0.0000         0.0000       -0.9199

Total spin-spin coupling tensor J (Hz):
       -0.9199         0.0000        0.0000
        0.0000        -0.9199        0.0000
        0.0000         0.0000       -0.9199

 Diagonalized JT*J matrix:
 
 J[59,60](FC)            -0.920           -0.920           -0.920  iso=     -0.920
                ---------------  ---------------  ---------------  ---------------
 J[59,60](Total)         -0.920           -0.920           -0.920  iso=     -0.920



-----------------------------------------------------------------------------
                SUMMARY OF ISOTROPIC COUPLING CONSTANTS J (Hz)                
-----------------------------------------------------------------------------
                  0 C        1 C        2 C        5 C        6 C        7 C  
      0 C        0.000     33.110     -3.754     41.274     -0.890      2.284
      1 C       33.110      0.000     23.405     -1.198      1.440     -0.666
      2 C       -3.754     23.405      0.000      2.290     -2.766     25.883
      5 C       41.274     -1.198      2.290      0.000     30.352     -2.775
      6 C       -0.890      1.440     -2.766     30.352      0.000     24.817
      7 C        2.284     -0.666     25.883     -2.775     24.817      0.000
     14 C       69.378     -0.365      2.837     -3.013      2.177     -0.621
     15 C       -3.410      2.413     -0.863     64.588     -1.077      2.599
     18 C       -2.395      4.171     -1.097      3.183     -0.814      0.190
     20 C        6.808     -1.098      1.085     -1.384      0.605     -0.102
     22 C       -0.921      0.326     -0.329      0.423     -0.181      0.037
     23 C        0.828     -0.288      0.282     -0.344      0.153      0.000
     26 C       -0.095      0.040      0.000      0.049      0.000      0.000
     29 C        1.158     -0.363      0.000     -0.446      0.206      0.000
     32 C       -1.121      0.544     -0.375      0.472     -0.214      0.044
     34 C        0.022     -0.015      0.014     -0.015      0.005     -0.001
     36 C       -0.017      0.000      0.000      0.016     -0.008      0.000
     39 C       -0.072      0.000      0.000      0.031      0.000      0.000
     43 C        0.000      0.000      0.000      0.000      0.000      0.000
     44 C        0.009     -0.003      0.000     -0.002     -0.003      0.000
     49 C        0.000      0.000      0.000      0.000      0.000      0.000
     50 C        0.000      0.000      0.000      0.000      0.000      0.000
     51 C        0.000      0.000      0.000      0.000      0.000      0.000
     54 C        0.000      0.000      0.000      0.000      0.000      0.000
     55 C        0.000      0.000      0.000      0.000      0.000      0.000
     56 C        0.000      0.000      0.000      0.000      0.000      0.000
     59 C        0.000      0.000      0.000      0.000      0.000      0.000
     60 C        0.000      0.000      0.000      0.000      0.000      0.000
                 14 C       15 C       18 C       20 C       22 C       23 C  
      0 C       69.378     -3.410     -2.395      6.808     -0.921      0.828
      1 C       -0.365      2.413      4.171     -1.098      0.326     -0.288
      2 C        2.837     -0.863     -1.097      1.085     -0.329      0.282
      5 C       -3.013     64.588      3.183     -1.384      0.423     -0.344
      6 C        2.177     -1.077     -0.814      0.605     -0.181      0.153
      7 C       -0.621      2.599      0.190     -0.102      0.037      0.000
     14 C        0.000      3.105     54.115     -2.623      3.792     -0.928
     15 C        3.105      0.000     -1.144      1.006     -0.271      0.254
     18 C       54.115     -1.144      0.000     69.973     -2.147      2.362
     20 C       -2.623      1.006     69.973      0.000     32.164     -2.981
     22 C        3.792     -0.271     -2.147     32.164      0.000     24.189
     23 C       -0.928      0.254      2.362     -2.981     24.189      0.000
     26 C        0.137     -0.034     -0.352      1.025     -1.924     25.428
     29 C       -1.127      0.323      2.264     -2.428      1.050     -2.223
     32 C        4.383     -0.315     -1.299     36.879     -0.198      1.544
     34 C        0.068      0.003      2.464     -1.346      1.616     -0.267
     36 C        0.016     -0.014     -0.152      3.490      0.075      0.156
     39 C        0.258     -0.024     -0.054      2.930     -0.336      2.545
     43 C        0.008      0.017      0.275      0.206     -0.004     -0.111
     44 C        0.007      0.028     -0.053      0.696     -0.134      0.584
     49 C       -0.002      0.000     -0.009     -0.031      0.144      0.054
     50 C        0.000      0.000      0.003      0.215     -0.006      0.117
     51 C        0.000      0.000      0.000      0.064     -0.003      0.002
     54 C        0.000      0.000      0.000      0.000      0.000      0.000
     55 C        0.000      0.000      0.000      0.000      0.000      0.000
     56 C        0.000      0.000      0.000      0.000      0.000      0.000
     59 C        0.000      0.000      0.000      0.000      0.000      0.000
     60 C        0.000      0.000      0.000      0.000      0.000      0.000
                 26 C       29 C       32 C       34 C       36 C       39 C  
      0 C       -0.095      1.158     -1.121      0.022     -0.017     -0.072
      1 C        0.040     -0.363      0.544     -0.015      0.000      0.000
      2 C        0.000      0.000     -0.375      0.014      0.000      0.000
      5 C        0.049     -0.446      0.472     -0.015      0.016      0.031
      6 C        0.000      0.206     -0.214      0.005     -0.008      0.000
      7 C        0.000      0.000      0.044     -0.001      0.000      0.000
     14 C        0.137     -1.127      4.383      0.068      0.016      0.258
     15 C       -0.034      0.323     -0.315      0.003     -0.014     -0.024
     18 C       -0.352      2.264     -1.299      2.464     -0.152     -0.054
     20 C        1.025     -2.428     36.879     -1.346      3.490      2.930
     22 C       -1.924      1.050     -0.198      1.616      0.075     -0.336
     23 C       25.428     -2.223      1.544     -0.267      0.156      2.545
     26 C        0.000     27.899     -0.920      2.275      3.025     -0.548
     29 C       27.899      0.000     23.053      0.926      0.713     28.065
     32 C       -0.920     23.053      0.000     28.062      1.225      3.420
     34 C        2.275      0.926     28.062      0.000     26.093      0.011
     36 C        3.025      0.713      1.225     26.093      0.000     26.450
     39 C       -0.548     28.065      3.420      0.011     26.450      0.000
     43 C       -0.019     -0.692      2.840      1.545     -0.040     27.726
     44 C       -0.597     27.217     -0.995      0.818      0.295     -1.254
     49 C        0.442      0.102     -0.000      0.061      3.264     -0.992
     50 C       -0.073      3.016      0.010      0.105      1.439     -2.805
     51 C       -0.016      0.159      0.148     -0.035      0.076      2.775
     54 C       -0.002      0.087     -0.037      0.013     -0.004     -0.848
     55 C        0.000     -0.001      0.004     -0.002      0.001      0.032
     56 C       -0.003      0.030      0.000     -0.006      0.024      0.889
     59 C        0.000     -0.002      0.000      0.000     -0.001     -0.005
     60 C        0.000      0.003      0.000      0.000     -0.002      0.006
                 43 C       44 C       49 C       50 C       51 C       54 C  
      0 C        0.000      0.009      0.000      0.000      0.000      0.000
      1 C        0.000     -0.003      0.000      0.000      0.000      0.000
      2 C        0.000      0.000      0.000      0.000      0.000      0.000
      5 C        0.000     -0.002      0.000      0.000      0.000      0.000
      6 C        0.000     -0.003      0.000      0.000      0.000      0.000
      7 C        0.000      0.000      0.000      0.000      0.000      0.000
     14 C        0.008      0.007     -0.002      0.000      0.000      0.000
     15 C        0.017      0.028      0.000      0.000      0.000      0.000
     18 C        0.275     -0.053     -0.009      0.003      0.000      0.000
     20 C        0.206      0.696     -0.031      0.215      0.064      0.000
     22 C       -0.004     -0.134      0.144     -0.006     -0.003      0.000
     23 C       -0.111      0.584      0.054      0.117      0.002      0.000
     26 C       -0.019     -0.597      0.442     -0.073     -0.016     -0.002
     29 C       -0.692     27.217      0.102      3.016      0.159      0.087
     32 C        2.840     -0.995     -0.000      0.010      0.148     -0.037
     34 C        1.545      0.818      0.061      0.105     -0.035      0.013
     36 C       -0.040      0.295      3.264      1.439      0.076     -0.004
     39 C       27.726     -1.254     -0.992     -2.805      2.775     -0.848
     43 C        0.000      1.424     27.382     35.902     -1.257      3.360
     44 C        1.424      0.000     -0.046     -0.103      0.083      0.007
     49 C       27.382     -0.046      0.000     -1.979      3.179     -0.008
     50 C       35.902     -0.103     -1.979      0.000     69.129     -1.451
     51 C       -1.257      0.083      3.179     69.129      0.000     36.127
     54 C        3.360      0.007     -0.008     -1.451     36.127      0.000
     55 C       -0.026     -0.001      0.095      2.918     -1.696     28.282
     56 C       -0.701      0.003      0.041      2.715     -2.777     25.373
     59 C        0.024      0.000     -0.003     -0.116      1.054     -1.386
     60 C        0.008      0.000     -0.004      0.005      1.267     -0.746
                 55 C       56 C       59 C       60 C  
      0 C        0.000      0.000      0.000      0.000
      1 C        0.000      0.000      0.000      0.000
      2 C        0.000      0.000      0.000      0.000
      5 C        0.000      0.000      0.000      0.000
      6 C        0.000      0.000      0.000      0.000
      7 C        0.000      0.000      0.000      0.000
     14 C        0.000      0.000      0.000      0.000
     15 C        0.000      0.000      0.000      0.000
     18 C        0.000      0.000      0.000      0.000
     20 C        0.000      0.000      0.000      0.000
     22 C        0.000      0.000      0.000      0.000
     23 C        0.000      0.000      0.000      0.000
     26 C        0.000     -0.003      0.000      0.000
     29 C       -0.001      0.030     -0.002      0.003
     32 C        0.004      0.000      0.000      0.000
     34 C       -0.002     -0.006      0.000      0.000
     36 C        0.001      0.024     -0.001     -0.002
     39 C        0.032      0.889     -0.005      0.006
     43 C       -0.026     -0.701      0.024      0.008
     44 C       -0.001      0.003      0.000      0.000
     49 C        0.095      0.041     -0.003     -0.004
     50 C        2.918      2.715     -0.116      0.005
     51 C       -1.696     -2.777      1.054      1.267
     54 C       28.282     25.373     -1.386     -0.746
     55 C        0.000     -0.670      0.981      2.976
     56 C       -0.670      0.000     26.847     27.013
     59 C        0.981     26.847      0.000     -0.920
     60 C        2.976     27.013     -0.920      0.000

NMR spin-spin coupling calculation done in   0.3 sec 

Maximum memory used throughout the entire PROP-calculation: 34.1 MB

--------------------------------
SUGGESTED CITATIONS FOR THIS RUN
--------------------------------

Below you find a list of papers that are relevant to this ORCA run
We neither can nor want to force you to cite these papers, but we appreciate if you do
You receive ORCA, which is the product of decades of hard work by many enthusiastic individuals, for free
The only thing we kindly ask in return is that you cite our papers,
We deeply appreciate it, if you show your appreciation for ORCA by not just citing the generic ORCA reference.

Please note that relegating all ORCA citations to the supporting information does *not* help us.
SI sections are not indexed - citations you put there will not count into any citation statistics
But we need these citations in order to attract the funding resources that allow us to do what we are doing

Therefore, if you are a happy ORCA user, please consider citing a few of the papers listed below in the main body of your paper

In addition to the list printed below, the program has created the file inpJ.bibtex that contains the list in bibtex format
You can import this file easily into all common literature databanks and citation aid programs


List of essential papers. We consider these as the minimum necessary citations

  1. Neese,F.
     Software update: the ORCA program system, version 5.0
     WIRES Comput. Molec. Sci., 2022 12(1)e1606
     doi.org/10.1002/wcms.1606

List of papers to cite with high priority. The work reported in these papers was absolutely
necessary for this run to complete.
Our perspective: the developers of density functionals and basis sets usually get cited in chemistry papers
Good! But without the algorithms to do something with them, the functionals or basis sets would not do anything.
Hence, in our opinion, the algorithm design and method developments papers are equally worthy of getting cited

  1. Neese,F.
     An improvement of the resolution of the identity approximation for the formation of the Coulomb matrix
     J. Comp. Chem., 2003 24(14)1740-1747
     doi.org/10.1002/jcc.10318
  2. Neese,F.; Wennmohs,F.; Hansen,A.; Becker,U.
     Efficient, approximate and parallel Hartree-Fock and hybrid DFT calculations. A 'chain-of-spheres' algorithm for the Hartree-Fock exchange
     Chem. Phys., 2009 356(1-3)98-109
     doi.org/10.1016/j.chemphys.2008.10.036
  3. Stoychev,G.L.; Auer,A.A.; Izsak,R.; Neese,F.
     Self-Consistent Field Calculation of Nuclear Magnetic Resonance Chemical Shielding Constants Using Gauge-Including Atomic Orbitals and Approximate Two-Electron Integrals
     J. Chem. Theory Comput., 2018 14(2)619-637
     doi.org/10.1021/acs.jctc.7b01006
  4. Garcia-Rates,M.; Neese,F.
     Effect of the Solute Cavity on the Solvation Energy and its Derivatives within the Framework of the Gaussian Charge Scheme
     J. Comput. Chem., 2020 41 922-939
     doi.org/10.1002/jcc.26139
  5. Helmich-Paris,B.; de Souza,B.; Neese,F.; Izsák,R.
     An improved chain of spheres for exchange algorithm
     J. Chem. Phys., 2021 155 104109
     doi.org/doi: 10.1063/5.0058766.
  6. Neese,F.
     The SHARK Integral Generation and Digestion System
     J. Comp. Chem., 2022  1-16
     doi.org/10.1002/jcc.26942
  7. Grimme,S.; Bannwarth,C.; Dohm,S.; Hansen,A.; Pisarek,J.; Pracht,P.; Seibert,J.; Neese,F.
     Fully Automated Quantum-Chemistry-Based Computation of Spin-Spin-Coupled Nuclear Magnetic Resonance Spectra
     Angew. Chem., Int. Ed., 2017 56 14763-14769
     doi.org/10.1002/anie.201708266
  8. Caldeweyher,E.; Bannwarth,C.; Grimme,S.
     Extension of the D3 dispersion coefficient model
     J. Chem. Phys., 2017 147 034112-XXXX
     doi.org/10.1063/1.4993215
  9. Caldeweyher,E.; Ehlert,S.; Hansen,A.; Neugebauer,H.; Spicher,S.; Bannwarth,C.; Grimme,S.
     A generally applicable atomic-charge dependent London dispersion correction
     J. Chem. Phys., 2019 150 154122-XXXX
     doi.org/10.1063/1.5090222
 10. Caldeweyher,E.; Mewes,J.; Ehlert,S.; Grimme,S.
     Extension and evaluation of the D4 London-dispersion model for periodic systems
     Phys. Chem. Chem. Phys., 2020 22(16)8499-8512
     doi.org/10.1039/D0CP00502A

List of suggested additional citations. These are papers that are important in the 'surrounding' of 
of this run, or papers that preceded the highly important papers. If you like your results we are grateful for a citation.

  1. Izsak,R.; Neese,F.
     An overlap fitted chain of spheres exchange method
     J. Chem. Phys., 2011 135 144105
     doi.org/10.1063/1.3646921
  2. Izsak,R.; Hansen,A.; Neese,F.
     The resolution of identity and chain of spheres approximations for the LPNO-CCSD singles Fock term
     Molec. Phys., 2012 110 2413-2417
     doi.org/10.1080/00268976.2012.687466
  3. Neese,F.
     The ORCA program system
     WIRES Comput. Molec. Sci., 2012 2(1)73-78
     doi.org/10.1002/wcms.81
  4. Izsak,R.; Neese,F.; Klopper,W.
     Robust fitting techniques in the chain of spheres approximation to the Fock exchange: The role of the complementary space
     J. Chem. Phys., 2013 139 
     doi.org/10.1063/1.4819264
  5. Neese,F.
     Software update: the ORCA program system, version 4.0
     WIRES Comput. Molec. Sci., 2018 8(1)1-6
     doi.org/10.1002/wcms.1327
  6. Neese,F.; Wennmohs,F.; Becker,U.; Riplinger,C.
     The ORCA quantum chemistry program package
     J. Chem. Phys., 2020 152 Art. No. L224108
     doi.org/10.1063/5.0004608

Timings for individual modules:

Sum of individual times          ...      133.038 sec (=   2.217 min)
Startup calculation              ...        3.736 sec (=   0.062 min)   2.8 %
SCF iterations                   ...       19.053 sec (=   0.318 min)  14.3 %
Property integrals               ...        0.711 sec (=   0.012 min)   0.5 %
SCF Response                     ...      108.940 sec (=   1.816 min)  81.9 %
Property calculations            ...        0.598 sec (=   0.010 min)   0.4 %
                             ****ORCA TERMINATED NORMALLY****
TOTAL RUN TIME: 0 days 0 hours 2 minutes 13 seconds 346 msec
