
                                 *****************
                                 * O   R   C   A *
                                 *****************

                                            #,                                       
                                            ###                                      
                                            ####                                     
                                            #####                                    
                                            ######                                   
                                           ########,                                 
                                     ,,################,,,,,                         
                               ,,#################################,,                 
                          ,,##########################################,,             
                       ,#########################################, ''#####,          
                    ,#############################################,,   '####,        
                  ,##################################################,,,,####,       
                ,###########''''           ''''###############################       
              ,#####''   ,,,,##########,,,,          '''####'''          '####       
            ,##' ,,,,###########################,,,                        '##       
           ' ,,###''''                  '''############,,,                           
         ,,##''                                '''############,,,,        ,,,,,,###''
      ,#''                                            '''#######################'''  
     '                                                          ''''####''''         
             ,#######,   #######,   ,#######,      ##                                
            ,#'     '#,  ##    ##  ,#'     '#,    #''#        ,####,   ,####,        
            ##       ##  ##   ,#'  ##            #'  '#       #'       #'  '#        
            ##       ##  #######   ##           ,######,      #####,   #    #        
            '#,     ,#'  ##    ##  '#,     ,#' ,#      #,     #,   #   #,  ,#        
             '#######'   ##     ##  '#######'  #'      '#     '####' # '####'        



                #########################################################
                #                        -***-                          #
                #          Department of theory and spectroscopy        #
                #                                                       #
                #                      Frank Neese                      #
                #                                                       #
                #     Directorship, Architecture, Infrastructure        #
                #                    SHARK, DRIVERS                     #
                #        Core code/Algorithms in most modules           #
                #                                                       #
                #        Max Planck Institute fuer Kohlenforschung      #
                #                Kaiser Wilhelm Platz 1                 #
                #                 D-45470 Muelheim/Ruhr                 #
                #                      Germany                          #
                #                                                       #
                #                  All rights reserved                  #
                #                        -***-                          #
                #########################################################


                         Program Version 6.0.0  -   RELEASE  -


 With contributions from (in alphabetic order):
   Daniel Aravena         : Magnetic Suceptibility
   Michael Atanasov       : Ab Initio Ligand Field Theory (pilot matlab implementation)
   Alexander A. Auer      : GIAO ZORA, VPT2 properties, NMR spectrum
   Ute Becker             : All parallelization in ORCA, NUMFREQ, NUMCALC
   Giovanni Bistoni       : ED, misc. LED, open-shell LED, HFLD
   Martin Brehm           : Molecular dynamics
   Dmytro Bykov           : pre 5.0 version of the SCF Hessian
   Marcos Casanova-Páez   : Triplet and SCS-CIS(D). UHF-(DLPNO)-IP/EA/STEOM-CCSD. UHF-CVS-IP/STEOM-CCSD
   Vijay G. Chilkuri      : MRCI spin determinant printing, contributions to CSF-ICE
   Pauline Colinet        : FMM embedding
   Dipayan Datta          : RHF DLPNO-CCSD density
   Achintya Kumar Dutta   : EOM-CC, STEOM-CC
   Nicolas Foglia         : Exact transition moments, OPA infrastructure, MCD improvements
   Dmitry Ganyushin       : Spin-Orbit,Spin-Spin,Magnetic field MRCI
   Miquel Garcia          : C-PCM and meta-GGA Hessian, CCSD/C-PCM, Gaussian charge scheme
   Tiago L. C. Gouveia    : GS-ROHF, GS-ROCIS
   Yang Guo               : DLPNO-NEVPT2, F12-NEVPT2, CIM, IAO-localization
   Andreas Hansen         : Spin unrestricted coupled pair/coupled cluster methods
   Ingolf Harden          : AUTO-CI MPn and infrastructure 
   Benjamin Helmich-Paris : MC-RPA, TRAH-(SCF,CASSCF), AVAS, COSX integrals, SCF dyn. polar.
   Lee Huntington         : MR-EOM, pCC
   Robert Izsak           : Overlap fitted RIJCOSX, COSX-SCS-MP3, EOM
   Riya Kayal             : Wick's Theorem for AUTO-CI, AUTO-CI UHF-CCSDT
   Emily Kempfer          : AUTO-CI, RHF CISDT and CCSDT
   Christian Kollmar      : KDIIS, OOCD, Brueckner-CCSD(T), CCSD density, CASPT2, CASPT2-K, improved NEVPT2
   Axel Koslowski         : Symmetry handling
   Simone Kossmann        : Meta GGA functionals, TD-DFT gradient, OOMP2, (MP2 Hessian; deprecated post 5.0)
   Lucas Lang             : DCDCAS
   Marvin Lechner         : AUTO-CI (C++ implementation), FIC-MRCC
   Spencer Leger          : CASSCF response
   Dagmar Lenk            : GEPOL surface, SMD, ORCA-2-JSON
   Dimitrios Liakos       : Extrapolation schemes; Compound Job, initial MDCI parallelization
   Dimitrios Manganas     : Further ROCIS development; embedding schemes. LFT, Crystal Embedding
   Dimitrios Pantazis     : SARC Basis sets
   Anastasios Papadopoulos: AUTO-CI, single reference methods and gradients
   Taras Petrenko         : pre 6.0 DFT Hessian and TD-DFT gradient, (ASA, deprecated), ECA, 1-Electron XAS/XES, NRVS
   Peter Pinski           : DLPNO-MP2, DLPNO-MP2 Gradient
   Christoph Reimann      : Effective Core Potentials
   Marius Retegan         : Local ZFS, SOC
   Christoph Riplinger    : Optimizer, TS searches, QM/MM, DLPNO-CCSD(T), (RO)-DLPNO pert. Triples
   Michael Roemelt        : Original ROCIS implementation
   Masaaki Saitow         : Open-shell DLPNO-CCSD energy and density
   Barbara Sandhoefer     : DKH picture change effects
   Kantharuban Sivalingam : CASSCF convergence/infrastructure, NEVPT2 and variants, FIC-MRCI
   Bernardo de Souza      : ESD, SOC TD-DFT
   Georgi Stoychev        : AutoAux, RI-MP2 NMR, DLPNO-MP2 response, X2C
   Van Anh Tran           : RI-MP2 g-tensors
   Willem Van den Heuvel  : Paramagnetic NMR
   Zikuan Wang            : NOTCH, Electric field optimization 
   Frank Wennmohs         : Technical directorship and infrastructure
   Hang Xu                : AUTO-CI-Response properties 


 We gratefully acknowledge several colleagues who have allowed us to
 interface, adapt or use parts of their codes:
   Stefan Grimme, W. Hujo, H. Kruse, P. Pracht,  : VdW corrections, initial TS optimization,
                  C. Bannwarth, S. Ehlert,         DFT functionals, gCP, sTDA/sTD-DF
                  L. Wittmann, M. Mueller
   Ed Valeev, F. Pavosevic, A. Kumar             : LibInt (2-el integral package), F12 methods
   Garnet Chan, S. Sharma, J. Yang, R. Olivares  : DMRG
   Ulf Ekstrom                                   : XCFun DFT Library
   Mihaly Kallay                                 : mrcc  (arbitrary order and MRCC methods)
   Frank Weinhold                                : gennbo (NPA and NBO analysis)
   Simon Mueller                                 : openCOSMO-RS
   Christopher J. Cramer and Donald G. Truhlar   : smd solvation model
   Lars Goerigk                                  : TD-DFT with DH, B97 family of functionals
   V. Asgeirsson, H. Jonsson                     : NEB implementation
   FAccTs GmbH                                   : IRC, NEB, NEB-TS, DLPNO-Multilevel, CI-OPT
                                                   MM, QMMM, 2- and 3-layer-ONIOM, Crystal-QMMM,
                                                   LR-CPCM, SF, NACMEs, symmetry and pop. for TD-DFT,
                                                   nearIR, NL-DFT gradient (VV10), updates on ESD,
                                                   ML-optimized integration grids, MBIS, APM,
                                                   GOAT, DOCKER, SOLVATOR, interface openCOSMO-RS
   S Lehtola, MJT Oliveira, MAL Marques          : LibXC Library
   Liviu Ungur et al                             : ANISO software


 Your calculation uses the libint2 library for the computation of 2-el integrals
 For citations please refer to: http://libint.valeyev.net

 Your ORCA version has been built with support for libXC version: 6.2.2
 For citations please refer to: https://libxc.gitlab.io

 This ORCA versions uses:
   CBLAS   interface :  Fast vector & matrix operations
   LAPACKE interface :  Fast linear algebra routines
   SCALAPACK package :  Parallel linear algebra routines
   Shared memory     :  Shared parallel matrices
   BLAS/LAPACK       :  OpenBLAS 0.3.27  USE64BITINT DYNAMIC_ARCH NO_AFFINITY Zen SINGLE_THREADED
        Core in use  :  Zen
   Copyright (c) 2011-2014, The OpenBLAS Project


NOTE: MaxCore=8000 MB was set to SCF,MP2,MDCI,CIPSI,MRCI and CIS
      => If you want to overwrite this, your respective input block should be placed after the MaxCore statement
Your calculation utilizes the atom-pairwise dispersion correction
based on EEQ partial charges (D4)


================================================================================

----- Orbital basis set information -----
Your calculation utilizes the basis: def2-SVP
   F. Weigend and R. Ahlrichs, Phys. Chem. Chem. Phys. 7, 3297 (2005).

----- AuxJ basis set information -----
Your calculation utilizes the auxiliary basis: def2/J
   F. Weigend, Phys. Chem. Chem. Phys. 8, 1057 (2006).

================================================================================
                                        WARNINGS
                       Please study these warnings very carefully!
================================================================================

WARNING: Old DensityContainer found on disk!
         Will remove this file - 
         If you want to keep old densities, please start your calculation with a different basename. 


================================================================================
                                       INPUT FILE
================================================================================
NAME = inpS
|  1> ! wb97x-d4
|  2> ! def2-svp
|  3> ! def2/J RIJCOSX
|  4> ! DEFGRID2
|  5> ! scfconv7
|  6> ! smallprint printgap noloewdin
|  7> ! NOSOSCF
|  8> %MaxCore 8000
|  9> %output
| 10>        print[P_BondOrder_M] 1
| 11>        print[P_Mayer] 1
| 12>        print[P_basis] 2
| 13> end
| 14> %pal
| 15>     nprocs 4
| 16> end
| 17> ! CPCM(chloroform)
| 18> *xyz 0 1
| 19> C   -5.0189868000   0.2153575400  -0.4555325000
| 20> C   -6.4713089300  -0.1771372400  -0.5902152600
| 21> C   -7.3568136300   0.7430517200   0.2597138200
| 22> H   -6.6198451600  -1.2211845500  -0.2921013900
| 23> H   -6.7895759400  -0.0750919700  -1.6383337800
| 24> C   -4.7523207700   1.6405540300  -0.7511499700
| 25> C   -5.6624839400   2.6094187500  -0.0292511000
| 26> C   -7.1387248000   2.2027834800  -0.1415341400
| 27> H   -5.5124809200   3.6253343000  -0.4099132700
| 28> H   -5.3802899200   2.6204159700   1.0345772200
| 29> H   -7.4767889100   2.3297647200  -1.1790427500
| 30> H   -7.7568669600   2.8522232800   0.4890236200
| 31> O   -7.1093968800   0.5344082800   1.6601104500
| 32> H   -8.4104465200   0.4762734600   0.1108791000
| 33> C   -4.0883556000  -0.6724272300  -0.0312634500
| 34> C   -3.8142862100   2.0450549100  -1.6144406300
| 35> H   -3.1817854100   1.3324285900  -2.1370943900
| 36> H   -3.6655060700   3.1016479200  -1.8244402200
| 37> C   -2.6977009500  -0.3859854800   0.2366168300
| 38> H   -4.4386651000  -1.6874270700   0.1524641700
| 39> C   -1.7413368400  -1.2832335100   0.5573100600
| 40> H   -2.4117479500   0.6619634600   0.1812110200
| 41> C   -1.9309480300  -2.7754514000   0.6511310400
| 42> C   -0.9375824800  -3.5267959800  -0.2563812900
| 43> H   -2.9529442800  -3.0817588300   0.4124430600
| 44> H   -1.7377360800  -3.0768004600   1.6929594900
| 45> C    0.5152290400  -3.0827389000  -0.0387329100
| 46> H   -1.2218096500  -3.3684226400  -1.3044146400
| 47> H   -1.0237775500  -4.6041999900  -0.0694139800
| 48> C    0.6764686400  -1.5625706700  -0.1762952700
| 49> H    1.1583135800  -3.6181236400  -0.7445462400
| 50> H    0.8352757300  -3.3757661900   0.9725706800
| 51> C   -0.3197172300  -0.8953021800   0.8262759600
| 52> H   -0.0575203100  -1.3328036800   1.8069713400
| 53> C    0.1058757300   0.5691068600   0.8570189700
| 54> H   -6.1523213000   0.4558328000   1.7801931500
| 55> C    1.6466865900   0.5037865000   0.7169337400
| 56> H   -0.2171743400   1.0720715100   1.7743748700
| 57> H   -0.3304693600   1.1195828800   0.0162298500
| 58> C    2.0128352800  -0.9664276300   0.3484929800
| 59> H    2.1512541800   0.8078090000   1.6393130900
| 60> H    1.9894621300   1.1877587700  -0.0688301100
| 61> H    2.2558616800  -1.5088080300   1.2765411200
| 62> C    3.2702960000  -1.0448121700  -0.5512731800
| 63> C    0.3985125500  -1.1029485400  -1.6139589000
| 64> H    0.6181538900  -0.0388017300  -1.7466235700
| 65> H   -0.6498042900  -1.2556057300  -1.8887689300
| 66> H    1.0172482800  -1.6605137200  -2.3255264200
| 67> H    3.0442256400  -0.4704064900  -1.4651521300
| 68> C    3.6362724300  -2.4698454100  -0.9625123100
| 69> C    4.4045571400  -0.3236127800   0.1404010400
| 70> C    5.5177595700  -0.8803469300   0.6208710700
| 71> H    4.2581520700   0.7484257900   0.2638747600
| 72> H    5.6592222400  -1.9544891800   0.5044326400
| 73> C    6.6365009800  -0.1701112400   1.3379798400
| 74> C    6.3669549100   1.3115794800   1.5968649800
| 75> C    8.0075739300  -0.3918179100   0.6365778900
| 76> H    6.7344812500  -0.6602290200   2.3220080100
| 77> H    8.7471117700   0.1460676500   1.2492964100
| 78> C    8.0491598200   0.1898794700  -0.7776480500
| 79> C    8.4120161900  -1.8682625500   0.6160520700
| 80> H    6.2154916800   1.8710551700   0.6677394600
| 81> H    7.2138325000   1.7620536700   2.1257451700
| 82> H    5.4714334900   1.4460431900   2.2130503400
| 83> H    7.8413829400   1.2644380400  -0.7872787600
| 84> H    7.3085189400  -0.3032466300  -1.4186439000
| 85> H    9.0375149700   0.0373604900  -1.2254647100
| 86> H    8.3271551000  -2.3212668500   1.6108266100
| 87> H    9.4500689800  -1.9762957700   0.2825857500
| 88> H    7.7858198400  -2.4449455600  -0.0743049700
| 89> H    2.8877430000  -2.8896929100  -1.6373393800
| 90> H    3.7129917000  -3.1312668300  -0.0913560400
| 91> H    4.5994577200  -2.4840746300  -1.4842795600
| 92> *
| 93> %eprnmr
| 94>  Nuclei = all C { shift }
| 95>  origin giao
| 96>  giao_2el giao_2el_same_as_scf
| 97>  giao_1el giao_1el_analytic
| 98> end
| 99> 
|100>                          ****END OF INPUT****
================================================================================

                       ****************************
                       * Single Point Calculation *
                       ****************************

---------------------------------
CARTESIAN COORDINATES (ANGSTROEM)
---------------------------------
  C     -5.018987    0.215358   -0.455532
  C     -6.471309   -0.177137   -0.590215
  C     -7.356814    0.743052    0.259714
  H     -6.619845   -1.221185   -0.292101
  H     -6.789576   -0.075092   -1.638334
  C     -4.752321    1.640554   -0.751150
  C     -5.662484    2.609419   -0.029251
  C     -7.138725    2.202783   -0.141534
  H     -5.512481    3.625334   -0.409913
  H     -5.380290    2.620416    1.034577
  H     -7.476789    2.329765   -1.179043
  H     -7.756867    2.852223    0.489024
  O     -7.109397    0.534408    1.660110
  H     -8.410447    0.476273    0.110879
  C     -4.088356   -0.672427   -0.031263
  C     -3.814286    2.045055   -1.614441
  H     -3.181785    1.332429   -2.137094
  H     -3.665506    3.101648   -1.824440
  C     -2.697701   -0.385985    0.236617
  H     -4.438665   -1.687427    0.152464
  C     -1.741337   -1.283234    0.557310
  H     -2.411748    0.661963    0.181211
  C     -1.930948   -2.775451    0.651131
  C     -0.937582   -3.526796   -0.256381
  H     -2.952944   -3.081759    0.412443
  H     -1.737736   -3.076800    1.692959
  C      0.515229   -3.082739   -0.038733
  H     -1.221810   -3.368423   -1.304415
  H     -1.023778   -4.604200   -0.069414
  C      0.676469   -1.562571   -0.176295
  H      1.158314   -3.618124   -0.744546
  H      0.835276   -3.375766    0.972571
  C     -0.319717   -0.895302    0.826276
  H     -0.057520   -1.332804    1.806971
  C      0.105876    0.569107    0.857019
  H     -6.152321    0.455833    1.780193
  C      1.646687    0.503787    0.716934
  H     -0.217174    1.072072    1.774375
  H     -0.330469    1.119583    0.016230
  C      2.012835   -0.966428    0.348493
  H      2.151254    0.807809    1.639313
  H      1.989462    1.187759   -0.068830
  H      2.255862   -1.508808    1.276541
  C      3.270296   -1.044812   -0.551273
  C      0.398513   -1.102949   -1.613959
  H      0.618154   -0.038802   -1.746624
  H     -0.649804   -1.255606   -1.888769
  H      1.017248   -1.660514   -2.325526
  H      3.044226   -0.470406   -1.465152
  C      3.636272   -2.469845   -0.962512
  C      4.404557   -0.323613    0.140401
  C      5.517760   -0.880347    0.620871
  H      4.258152    0.748426    0.263875
  H      5.659222   -1.954489    0.504433
  C      6.636501   -0.170111    1.337980
  C      6.366955    1.311579    1.596865
  C      8.007574   -0.391818    0.636578
  H      6.734481   -0.660229    2.322008
  H      8.747112    0.146068    1.249296
  C      8.049160    0.189879   -0.777648
  C      8.412016   -1.868263    0.616052
  H      6.215492    1.871055    0.667739
  H      7.213832    1.762054    2.125745
  H      5.471433    1.446043    2.213050
  H      7.841383    1.264438   -0.787279
  H      7.308519   -0.303247   -1.418644
  H      9.037515    0.037360   -1.225465
  H      8.327155   -2.321267    1.610827
  H      9.450069   -1.976296    0.282586
  H      7.785820   -2.444946   -0.074305
  H      2.887743   -2.889693   -1.637339
  H      3.712992   -3.131267   -0.091356
  H      4.599458   -2.484075   -1.484280

----------------------------
CARTESIAN COORDINATES (A.U.)
----------------------------
  NO LB      ZA    FRAG     MASS         X           Y           Z
   0 C     6.0000    0    12.011   -9.484511    0.406967   -0.860832
   1 C     6.0000    0    12.011  -12.229002   -0.334741   -1.115345
   2 C     6.0000    0    12.011  -13.902363    1.404164    0.490788
   3 H     1.0000    0     1.008  -12.509694   -2.307704   -0.551992
   4 H     1.0000    0     1.008  -12.830439   -0.141903   -3.096002
   5 C     6.0000    0    12.011   -8.980585    3.100198   -1.419468
   6 C     6.0000    0    12.011  -10.700544    4.931087   -0.055277
   7 C     6.0000    0    12.011  -13.490235    4.162658   -0.267461
   8 H     1.0000    0     1.008  -10.417079    6.850889   -0.774624
   9 H     1.0000    0     1.008  -10.167274    4.951869    1.955068
  10 H     1.0000    0     1.008  -14.129083    4.402617   -2.228068
  11 H     1.0000    0     1.008  -14.658354    5.389921    0.924121
  12 O     8.0000    0    15.999  -13.434813    1.009885    3.137154
  13 H     1.0000    0     1.008  -15.893441    0.900026    0.209531
  14 C     6.0000    0    12.011   -7.725872   -1.270703   -0.059079
  15 C     6.0000    0    12.011   -7.207956    3.864594   -3.050851
  16 H     1.0000    0     1.008   -6.012703    2.517925   -4.038523
  17 H     1.0000    0     1.008   -6.926803    5.861265   -3.447692
  18 C     6.0000    0    12.011   -5.097916   -0.729407    0.447141
  19 H     1.0000    0     1.008   -8.387861   -3.188775    0.288116
  20 C     6.0000    0    12.011   -3.290650   -2.424960    1.053163
  21 H     1.0000    0     1.008   -4.557543    1.250930    0.342439
  22 C     6.0000    0    12.011   -3.648963   -5.244843    1.230459
  23 C     6.0000    0    12.011   -1.771774   -6.664679   -0.484490
  24 H     1.0000    0     1.008   -5.580256   -5.823680    0.779404
  25 H     1.0000    0     1.008   -3.283845   -5.814310    3.199230
  26 C     6.0000    0    12.011    0.973642   -5.825532   -0.073195
  27 H     1.0000    0     1.008   -2.308886   -6.365396   -2.464986
  28 H     1.0000    0     1.008   -1.934659   -8.700677   -0.131173
  29 C     6.0000    0    12.011    1.278340   -2.952831   -0.333150
  30 H     1.0000    0     1.008    2.188895   -6.837263   -1.406988
  31 H     1.0000    0     1.008    1.578442   -6.379274    1.837892
  32 C     6.0000    0    12.011   -0.604178   -1.691876    1.561435
  33 H     1.0000    0     1.008   -0.108698   -2.518634    3.414681
  34 C     6.0000    0    12.011    0.200076    1.075456    1.619531
  35 H     1.0000    0     1.008  -11.626202    0.861399    3.364078
  36 C     6.0000    0    12.011    3.111787    0.952019    1.354808
  37 H     1.0000    0     1.008   -0.410400    2.025922    3.353083
  38 H     1.0000    0     1.008   -0.624497    2.115705    0.030670
  39 C     6.0000    0    12.011    3.803707   -1.826284    0.658556
  40 H     1.0000    0     1.008    4.065281    1.526538    3.097853
  41 H     1.0000    0     1.008    3.759539    2.244539   -0.130070
  42 H     1.0000    0     1.008    4.262961   -2.851234    2.412313
  43 C     6.0000    0    12.011    6.179964   -1.974409   -1.041755
  44 C     6.0000    0    12.011    0.753080   -2.084271   -3.049940
  45 H     1.0000    0     1.008    1.168142   -0.073325   -3.300640
  46 H     1.0000    0     1.008   -1.227952   -2.372751   -3.569256
  47 H     1.0000    0     1.008    1.922321   -3.137916   -4.394608
  48 H     1.0000    0     1.008    5.752753   -0.888939   -2.768736
  49 C     6.0000    0    12.011    6.871559   -4.667331   -1.818885
  50 C     6.0000    0    12.011    8.323407   -0.611540    0.265320
  51 C     6.0000    0    12.011   10.427054   -1.663615    1.173276
  52 H     1.0000    0     1.008    8.046741    1.414320    0.498651
  53 H     1.0000    0     1.008   10.694380   -3.693449    0.953240
  54 C     6.0000    0    12.011   12.541169   -0.321464    2.528415
  55 C     6.0000    0    12.011   12.031801    2.478526    3.017637
  56 C     6.0000    0    12.011   15.132122   -0.740429    1.202958
  57 H     1.0000    0     1.008   12.726325   -1.247652    4.387959
  58 H     1.0000    0     1.008   16.529646    0.276028    2.360828
  59 C     6.0000    0    12.011   15.210708    0.358820   -1.469542
  60 C     6.0000    0    12.011   15.896407   -3.530505    1.164170
  61 H     1.0000    0     1.008   11.745577    3.535782    1.261845
  62 H     1.0000    0     1.008   13.632168    3.329799    4.017076
  63 H     1.0000    0     1.008   10.339511    2.732626    4.182059
  64 H     1.0000    0     1.008   14.818066    2.389442   -1.487741
  65 H     1.0000    0     1.008   13.811099   -0.573053   -2.680848
  66 H     1.0000    0     1.008   17.078428    0.070601   -2.315793
  67 H     1.0000    0     1.008   15.736043   -4.386559    3.044021
  68 H     1.0000    0     1.008   17.858042   -3.734658    0.534010
  69 H     1.0000    0     1.008   14.713067   -4.620278   -0.140416
  70 H     1.0000    0     1.008    5.457043   -5.460728   -3.094123
  71 H     1.0000    0     1.008    7.016537   -5.917237   -0.172638
  72 H     1.0000    0     1.008    8.691715   -4.694221   -2.804882

--------------------------------
INTERNAL COORDINATES (ANGSTROEM)
--------------------------------
 C      0   0   0     0.000000000000     0.00000000     0.00000000
 C      1   0   0     1.510440719610     0.00000000     0.00000000
 C      2   1   0     1.534029249023   110.47218563     0.00000000
 H      2   1   3     1.095887620437   110.70952143   237.85889500
 H      2   1   3     1.100117974924   109.81719660   118.74046596
 C      1   2   3     1.479758593566   113.93717462   306.13500359
 C      6   1   2     1.512690920245   114.40019513    49.80834959
 C      3   2   1     1.529503015469   110.17148666    56.73775129
 H      7   6   1     1.095211850927   110.23304057   188.70555502
 H      7   6   1     1.100674837636   108.26365898    72.03587022
 H      8   3   2     1.098560737331   108.31229505    64.42944452
 H      8   3   2     1.096118092401   109.52013987   181.43116844
 O      3   2   1     1.437309241100   110.69416909   292.70429365
 H      3   2   1     1.097025378365   109.47321296   177.18101007
 C      1   2   3     1.354341336239   121.21846913   122.88568970
 C      6   1   2     1.337460489629   123.13589302   231.76985575
 H     16   6   1     1.086766068112   121.35201799   359.00672301
 H     16   6   1     1.087485239734   120.96038045   178.40279465
 C     15   1   2     1.444897600566   126.12000706   185.22586648
 H     15   1   2     1.089356350944   116.27196419     3.15246875
 C     19  15   1     1.350011291065   126.44857834   185.61500856
 H     19  15   1     1.087674539023   115.75936351     6.34465066
 C     21  19  15     1.507139346875   125.71161236     2.31130987
 C     23  21  19     1.541062108717   111.40561146   124.46102361
 H     23  21  19     1.093285199975   112.42118087     0.83431514
 H     23  21  19     1.101611834003   107.91776537   242.96744723
 C     24  23  21     1.534672219159   112.68258854    51.26533990
 H     24  23  21     1.097379196860   108.97100867   289.12105720
 H     24  23  21     1.096898247726   109.13867187   173.18354199
 C     27  24  23     1.534872326612   111.92017710   306.26758372
 H     27  24  23     1.094699503159   108.85448691   182.69172904
 H     27  24  23     1.100468003902   109.18370222    66.27597839
 C     21  19  15     1.497943819939   122.87777217   180.30843407
 H     33  21  19     1.105404096117   106.37428356   127.34538453
 C     33  21  19     1.525309259363   121.13516935     4.80944505
 H     13   3   2     0.967774574335   107.63285801    42.44706872
 C     35  33  21     1.548544066983   103.60968833   197.02157408
 H     35  33  21     1.094932250937   112.06017970    75.03819691
 H     35  33  21     1.095603591849   110.84170064   315.40355449
 C     30  27  24     1.554562648459   116.09472397   166.00682743
 H     37  35  33     1.094441318066   111.76293557   248.89148520
 H     37  35  33     1.096694107269   110.45674693   130.32555871
 H     40  30  27     1.102048855341   106.56588602   320.59976836
 C     40  30  27     1.548202422532   118.85541964    80.85513769
 C     30  27  24     1.534727599080   111.19496618   294.05866091
 H     45  30  27     1.094646365790   111.61242036   186.28423167
 H     45  30  27     1.094437283390   111.52593095    66.27789407
 H     45  30  27     1.095463905862   110.71706908   306.15100543
 H     44  40  30     1.102825656276   106.78198708    61.85298779
 C     44  40  30     1.527670155650   113.46889059   302.76982001
 C     44  40  30     1.511651454689   108.62425395   176.38477159
 C     51  44  40     1.334175405883   126.28229343   113.16747037
 H     51  44  40     1.089011891404   114.87635443   294.70176575
 H     52  51  44     1.089656445041   118.76281505     1.06361653
 C     52  51  44     1.506738884415   126.45667042   181.46297953
 C     55  52  51     1.528098160885   113.99883872     4.55237131
 C     55  52  51     1.555943307839   111.87360802   236.59118808
 H     55  52  51     1.103687913740   106.31545420   122.39252827
 H     57  55  52     1.100754776142   105.75160666   181.20660389
 C     57  55  52     1.529750384054   112.73800946    63.29989328
 C     57  55  52     1.530974730668   112.10121442   298.10051369
 H     56  55  52     1.095092868052   112.08825829   299.63842537
 H     56  55  52     1.095373408329   110.13205890   179.56898932
 H     56  55  52     1.095318903728   111.01169980    59.93233417
 H     60  57  55     1.094504501041   112.10472786    58.32808538
 H     60  57  55     1.096630267385   110.54977996   297.83552263
 H     60  57  55     1.095740709641   110.45164159   178.45991114
 H     61  57  55     1.096353358113   111.46065408   310.15118756
 H     61  57  55     1.095638881213   110.45427324   190.10491064
 H     61  57  55     1.096028286794   111.40330924    70.92986962
 H     50  44  40     1.091769117184   111.15312169    67.89776007
 H     50  44  40     1.096484102933   111.44330933   307.51789831
 H     50  44  40     1.095522449221   110.54552324   187.39941487

---------------------------
INTERNAL COORDINATES (A.U.)
---------------------------
 C      0   0   0     0.000000000000     0.00000000     0.00000000
 C      1   0   0     2.854319301586     0.00000000     0.00000000
 C      2   1   0     2.898895162078   110.47218563     0.00000000
 H      2   1   3     2.070927476181   110.70952143   237.85889500
 H      2   1   3     2.078921687610   109.81719660   118.74046596
 C      1   2   3     2.796338486157   113.93717462   306.13500359
 C      6   1   2     2.858571564533   114.40019513    49.80834959
 C      3   2   1     2.890341820242   110.17148666    56.73775129
 H      7   6   1     2.069650456876   110.23304057   188.70555502
 H      7   6   1     2.079974005631   108.26365898    72.03587022
 H      8   3   2     2.075978935035   108.31229505    64.42944452
 H      8   3   2     2.071363005075   109.52013987   181.43116844
 O      3   2   1     2.716120835433   110.69416909   292.70429365
 H      3   2   1     2.073077527070   109.47321296   177.18101007
 C      1   2   3     2.559334217340   121.21846913   122.88568970
 C      6   1   2     2.527434040339   123.13589302   231.76985575
 H     16   6   1     2.053690240370   121.35201799   359.00672301
 H     16   6   1     2.055049277779   120.96038045   178.40279465
 C     15   1   2     2.730460756630   126.12000706   185.22586648
 H     15   1   2     2.058585165531   116.27196419     3.15246875
 C     19  15   1     2.551151617814   126.44857834   185.61500856
 H     19  15   1     2.055407001592   115.75936351     6.34465066
 C     21  19  15     2.848080611250   125.71161236     2.31130987
 C     23  21  19     2.912185340839   111.40561146   124.46102361
 H     23  21  19     2.066009614222   112.42118087     0.83431514
 H     23  21  19     2.081744672152   107.91776537   242.96744723
 C     24  23  21     2.900110199548   112.68258854    51.26533990
 H     24  23  21     2.073746147128   108.97100867   289.12105720
 H     24  23  21     2.072837284981   109.13867187   173.18354199
 C     27  24  23     2.900488347831   111.92017710   306.26758372
 H     27  24  23     2.068682259911   108.85448691   182.69172904
 H     27  24  23     2.079583146517   109.18370222    66.27597839
 C     21  19  15     2.830703583685   122.87777217   180.30843407
 H     33  21  19     2.088911008977   106.37428356   127.34538453
 C     33  21  19     2.882416769731   121.13516935     4.80944505
 H     13   3   2     1.828828904865   107.63285801    42.44706872
 C     35  33  21     2.926324192907   103.60968833   197.02157408
 H     35  33  21     2.069122089468   112.06017970    75.03819691
 H     35  33  21     2.070390739935   110.84170064   315.40355449
 C     30  27  24     2.937697663611   116.09472397   166.00682743
 H     37  35  33     2.068194360793   111.76293557   248.89148520
 H     37  35  33     2.072451515423   110.45674693   130.32555871
 H     40  30  27     2.082570522796   106.56588602   320.59976836
 C     40  30  27     2.925678578460   118.85541964    80.85513769
 C     30  27  24     2.900214852432   111.19496618   294.05866091
 H     45  30  27     2.068581844835   111.61242036   186.28423167
 H     45  30  27     2.068186736361   111.52593095    66.27789407
 H     45  30  27     2.070126771675   110.71706908   306.15100543
 H     44  40  30     2.084038463823   106.78198708    61.85298779
 C     44  40  30     2.886878217143   113.46889059   302.76982001
 C     44  40  30     2.856607259306   108.62425395   176.38477159
 C     51  44  40     2.521226131732   126.28229343   113.16747037
 H     51  44  40     2.057934231338   114.87635443   294.70176575
 H     52  51  44     2.059152261190   118.76281505     1.06361653
 C     52  51  44     2.847323846875   126.45667042   181.46297953
 C     55  52  51     2.887687029821   113.99883872     4.55237131
 C     55  52  51     2.940306731723   111.87360802   236.59118808
 H     55  52  51     2.085667894287   106.31545420   122.39252827
 H     57  55  52     2.080125067514   105.75160666   181.20660389
 C     57  55  52     2.890809279124   112.73800946    63.29989328
 C     57  55  52     2.893122958917   112.10121442   298.10051369
 H     56  55  52     2.069425611829   112.08825829   299.63842537
 H     56  55  52     2.069955756122   110.13205890   179.56898932
 H     56  55  52     2.069852757353   111.01169980    59.93233417
 H     60  57  55     2.068313759311   112.10472786    58.32808538
 H     60  57  55     2.072330875527   110.54977996   297.83552263
 H     60  57  55     2.070649855011   110.45164159   178.45991114
 H     61  57  55     2.071807592839   111.46065408   310.15118756
 H     61  57  55     2.070457427168   110.45427324   190.10491064
 H     61  57  55     2.071193297072   111.40330924    70.92986962
 H     50  44  40     2.063144632951   111.15312169    67.89776007
 H     50  44  40     2.072054664741   111.44330933   307.51789831
 H     50  44  40     2.070237402590   110.54552324   187.39941487

---------------------
BASIS SET INFORMATION
---------------------
There are 3 groups of distinct atoms

 Group   1 Type C   : 7s4p1d contracted to 3s2p1d pattern {511/31/1}
 Group   2 Type H   : 4s1p contracted to 2s1p pattern {31/1}
 Group   3 Type O   : 7s4p1d contracted to 3s2p1d pattern {511/31/1}

Atom   0C    basis set group =>   1
Atom   1C    basis set group =>   1
Atom   2C    basis set group =>   1
Atom   3H    basis set group =>   2
Atom   4H    basis set group =>   2
Atom   5C    basis set group =>   1
Atom   6C    basis set group =>   1
Atom   7C    basis set group =>   1
Atom   8H    basis set group =>   2
Atom   9H    basis set group =>   2
Atom  10H    basis set group =>   2
Atom  11H    basis set group =>   2
Atom  12O    basis set group =>   3
Atom  13H    basis set group =>   2
Atom  14C    basis set group =>   1
Atom  15C    basis set group =>   1
Atom  16H    basis set group =>   2
Atom  17H    basis set group =>   2
Atom  18C    basis set group =>   1
Atom  19H    basis set group =>   2
Atom  20C    basis set group =>   1
Atom  21H    basis set group =>   2
Atom  22C    basis set group =>   1
Atom  23C    basis set group =>   1
Atom  24H    basis set group =>   2
Atom  25H    basis set group =>   2
Atom  26C    basis set group =>   1
Atom  27H    basis set group =>   2
Atom  28H    basis set group =>   2
Atom  29C    basis set group =>   1
Atom  30H    basis set group =>   2
Atom  31H    basis set group =>   2
Atom  32C    basis set group =>   1
Atom  33H    basis set group =>   2
Atom  34C    basis set group =>   1
Atom  35H    basis set group =>   2
Atom  36C    basis set group =>   1
Atom  37H    basis set group =>   2
Atom  38H    basis set group =>   2
Atom  39C    basis set group =>   1
Atom  40H    basis set group =>   2
Atom  41H    basis set group =>   2
Atom  42H    basis set group =>   2
Atom  43C    basis set group =>   1
Atom  44C    basis set group =>   1
Atom  45H    basis set group =>   2
Atom  46H    basis set group =>   2
Atom  47H    basis set group =>   2
Atom  48H    basis set group =>   2
Atom  49C    basis set group =>   1
Atom  50C    basis set group =>   1
Atom  51C    basis set group =>   1
Atom  52H    basis set group =>   2
Atom  53H    basis set group =>   2
Atom  54C    basis set group =>   1
Atom  55C    basis set group =>   1
Atom  56C    basis set group =>   1
Atom  57H    basis set group =>   2
Atom  58H    basis set group =>   2
Atom  59C    basis set group =>   1
Atom  60C    basis set group =>   1
Atom  61H    basis set group =>   2
Atom  62H    basis set group =>   2
Atom  63H    basis set group =>   2
Atom  64H    basis set group =>   2
Atom  65H    basis set group =>   2
Atom  66H    basis set group =>   2
Atom  67H    basis set group =>   2
Atom  68H    basis set group =>   2
Atom  69H    basis set group =>   2
Atom  70H    basis set group =>   2
Atom  71H    basis set group =>   2
Atom  72H    basis set group =>   2

-------------------------
BASIS SET IN INPUT FORMAT
-------------------------

 # Basis set for element : H 
 NewGTO H 
 S 3 
   1      13.0107010000      0.0334854848
   2       1.9622572000      0.2347218709
   3       0.4445379600      0.8137702853
 S 1 
   1       0.1219496200      1.0000000000
 P 1 
   1       0.8000000000      1.0000000000
  end;

 # Basis set for element : C 
 NewGTO C 
 S 5 
   1    1238.4016938000      0.0055173650
   2     186.2900499200      0.0410888285
   3      42.2511763460      0.1822538213
   4      11.6765579320      0.4682845944
   5       3.5930506482      0.4457581734
 S 1 
   1       0.4024514736      1.0000000000
 S 1 
   1       0.1309018267      1.0000000000
 P 3 
   1       9.4680970621      0.0568883320
   2       2.0103545142      0.3129405934
   3       0.5477100471      0.7606501651
 P 1 
   1       0.1526861379      1.0000000000
 D 1 
   1       0.8000000000      1.0000000000
  end;

 # Basis set for element : O 
 NewGTO O 
 S 5 
   1    2266.1767785000     -0.0053893504
   2     340.8701019100     -0.0402347214
   3      77.3631351670     -0.1800818421
   4      21.4796449400     -0.4682885766
   5       6.6589433124     -0.4469261716
 S 1 
   1       0.8097597567      1.0000000000
 S 1 
   1       0.2553077223      1.0000000000
 P 3 
   1      17.7215043170      0.0626302488
   2       3.8635505440      0.3333113849
   3       1.0480920883      0.7414863830
 P 1 
   1       0.2764154441      1.0000000000
 D 1 
   1       1.2000000000      1.0000000000
  end;

---------------------------------
AUXILIARY/J BASIS SET INFORMATION
---------------------------------
There are 3 groups of distinct atoms

 Group   1 Type C   : 12s5p4d2f1g contracted to 6s4p3d1f1g pattern {711111/2111/211/2/1}
 Group   2 Type H   : 5s2p1d contracted to 3s1p1d pattern {311/2/1}
 Group   3 Type O   : 12s5p4d2f1g contracted to 6s4p3d1f1g pattern {711111/2111/211/2/1}

Atom   0C    basis set group =>   1
Atom   1C    basis set group =>   1
Atom   2C    basis set group =>   1
Atom   3H    basis set group =>   2
Atom   4H    basis set group =>   2
Atom   5C    basis set group =>   1
Atom   6C    basis set group =>   1
Atom   7C    basis set group =>   1
Atom   8H    basis set group =>   2
Atom   9H    basis set group =>   2
Atom  10H    basis set group =>   2
Atom  11H    basis set group =>   2
Atom  12O    basis set group =>   3
Atom  13H    basis set group =>   2
Atom  14C    basis set group =>   1
Atom  15C    basis set group =>   1
Atom  16H    basis set group =>   2
Atom  17H    basis set group =>   2
Atom  18C    basis set group =>   1
Atom  19H    basis set group =>   2
Atom  20C    basis set group =>   1
Atom  21H    basis set group =>   2
Atom  22C    basis set group =>   1
Atom  23C    basis set group =>   1
Atom  24H    basis set group =>   2
Atom  25H    basis set group =>   2
Atom  26C    basis set group =>   1
Atom  27H    basis set group =>   2
Atom  28H    basis set group =>   2
Atom  29C    basis set group =>   1
Atom  30H    basis set group =>   2
Atom  31H    basis set group =>   2
Atom  32C    basis set group =>   1
Atom  33H    basis set group =>   2
Atom  34C    basis set group =>   1
Atom  35H    basis set group =>   2
Atom  36C    basis set group =>   1
Atom  37H    basis set group =>   2
Atom  38H    basis set group =>   2
Atom  39C    basis set group =>   1
Atom  40H    basis set group =>   2
Atom  41H    basis set group =>   2
Atom  42H    basis set group =>   2
Atom  43C    basis set group =>   1
Atom  44C    basis set group =>   1
Atom  45H    basis set group =>   2
Atom  46H    basis set group =>   2
Atom  47H    basis set group =>   2
Atom  48H    basis set group =>   2
Atom  49C    basis set group =>   1
Atom  50C    basis set group =>   1
Atom  51C    basis set group =>   1
Atom  52H    basis set group =>   2
Atom  53H    basis set group =>   2
Atom  54C    basis set group =>   1
Atom  55C    basis set group =>   1
Atom  56C    basis set group =>   1
Atom  57H    basis set group =>   2
Atom  58H    basis set group =>   2
Atom  59C    basis set group =>   1
Atom  60C    basis set group =>   1
Atom  61H    basis set group =>   2
Atom  62H    basis set group =>   2
Atom  63H    basis set group =>   2
Atom  64H    basis set group =>   2
Atom  65H    basis set group =>   2
Atom  66H    basis set group =>   2
Atom  67H    basis set group =>   2
Atom  68H    basis set group =>   2
Atom  69H    basis set group =>   2
Atom  70H    basis set group =>   2
Atom  71H    basis set group =>   2
Atom  72H    basis set group =>   2

-------------------------------------
AUXILIARY/J BASIS SET IN INPUT FORMAT
-------------------------------------

 # Auxiliary/J basis set for element : H 
 NewAuxJGTO H 
 S 3 
   1      15.6752927000      0.1007184237
   2       3.6063578000      0.3404257499
   3       1.2080016000      0.6491996172
 S 1 
   1       0.4726794000      1.0000000000
 S 1 
   1       0.2018100000      1.0000000000
 P 2 
   1       2.0281365000      0.5596620919
   2       0.5358730000      0.5596620919
 D 1 
   1       2.2165124000      1.0000000000
  end;

 # Auxiliary/J basis set for element : C 
 NewAuxJGTO C 
 S 7 
   1    1861.0916331000      0.0134602335
   2     642.9939764000      0.0299160374
   3     235.1105725000      0.1008649584
   4      90.7028894000      0.2370970548
   5      36.7794552000      0.3924037254
   6      15.6046273000      0.3195862154
   7       6.8907294000      0.0530104441
 S 1 
   1       3.1478850000     -1.0000000000
 S 1 
   1       1.4777287000      1.0000000000
 S 1 
   1       0.7076466000      1.0000000000
 S 1 
   1       0.3430122000      1.0000000000
 S 1 
   1       0.1669453000      1.0000000000
 P 2 
   1      13.5472892000     -0.6769313712
   2       5.4669419000     -0.3779500978
 P 1 
   1       2.1751721000      1.0000000000
 P 1 
   1       0.8582194000      1.0000000000
 P 1 
   1       0.3376720000      1.0000000000
 D 2 
   1       5.9287253000     -0.3533329857
   2       1.9809209000     -0.7456525731
 D 1 
   1       0.8055417000     -1.0000000000
 D 1 
   1       0.3531244000     -1.0000000000
 F 2 
   1       1.6755626000      0.6311076882
   2       0.5997536000      0.4968166032
 G 1 
   1       1.0024600000     -1.0000000000
  end;

 # Auxiliary/J basis set for element : O 
 NewAuxJGTO O 
 S 7 
   1    2876.8216605000      0.0168151159
   2    1004.7443032000      0.0340137548
   3     369.7579954000      0.1194951309
   4     142.9442404000      0.2664627624
   5      57.8366425000      0.4202764046
   6      24.3864983000      0.2765077335
   7      10.6622662000      0.0057008815
 S 1 
   1       4.8070437000     -1.0000000000
 S 1 
   1       2.2210770000      1.0000000000
 S 1 
   1       1.0447795000      1.0000000000
 S 1 
   1       0.4968425000      1.0000000000
 S 1 
   1       0.2371384000      1.0000000000
 P 2 
   1      64.2613382000     -0.2731534179
   2      16.3006076000     -0.8168011598
 P 1 
   1       4.3550542000      1.0000000000
 P 1 
   1       1.2019554000      1.0000000000
 P 1 
   1       0.3354196000      1.0000000000
 D 2 
   1       9.2146611000     -0.4661230638
   2       2.8435251000     -0.6600908911
 D 1 
   1       0.9955759000     -1.0000000000
 D 1 
   1       0.3649441000     -1.0000000000
 F 2 
   1       2.6420115000      0.5931563945
   2       0.7345613000      0.5931563945
 G 1 
   1       1.3931000000     -1.0000000000
  end;


Checking for AutoStart:
The File: inpS.gbw exists
Trying to determine its content:
     ... Fine, the file contains calculation information
     ... Fine, the calculation information was read
     ... Fine, the file contains a basis set
     ... Fine, the basis set was read
     ... Fine, the file contains a geometry
     ... Fine, the geometry was read
     ... Fine, the file contains a set of orbitals
     ... Fine, the orbitals can be read
     => possible old guess file was deleted
     => GBW file was renamed to GES file
     => GES file is set as startup file
     => Guess is set to MORead
     ... now leaving AutoStart



           ************************************************************
           *        Program running with 4 parallel MPI-processes     *
           *              working on a common directory               *
           ************************************************************
------------------------------------------------------------------------------
                             ORCA STARTUP CALCULATIONS
                           -- RI-GTO INTEGRALS CHOSEN --
------------------------------------------------------------------------------
------------------------------------------------------------------------------
                   ___                                                        
                  /   \      - P O W E R E D   B Y -                         
                 /     \                                                     
                 |  |  |   _    _      __       _____    __    __             
                 |  |  |  | |  | |    /  \     |  _  \  |  |  /  |          
                  \  \/   | |  | |   /    \    | | | |  |  | /  /          
                 / \  \   | |__| |  /  /\  \   | |_| |  |  |/  /          
                |  |  |   |  __  | /  /__\  \  |    /   |      \           
                |  |  |   | |  | | |   __   |  |    \   |  |\   \          
                \     /   | |  | | |  |  |  |  | |\  \  |  | \   \       
                 \___/    |_|  |_| |__|  |__|  |_| \__\ |__|  \__/        
                                                                              
                      - O R C A' S   B I G   F R I E N D -                    
                                      &                                       
                       - I N T E G R A L  F E E D E R -                       
                                                                              
 v1 FN, 2020, v2 2021, v3 2022-2024                                           
------------------------------------------------------------------------------


----------------------
SHARK INTEGRAL PACKAGE
----------------------

Number of atoms                             ...     73
Number of basis functions                   ...    626
Number of shells                            ...    306
Maximum angular momentum                    ...      2
Integral batch strategy                     ... SHARK/LIBINT Hybrid
RI-J (if used) integral strategy            ... SPLIT-RIJ (Revised 2003 algorithm where possible)
Printlevel                                  ...      1
Contraction scheme used                     ... SEGMENTED contraction
Prescreening option                         ... SCHWARTZ
   Thresh                                   ... 3.000e-11
   Tcut                                     ... 1.000e-12
   Tpresel                                  ... 1.000e-12 
Coulomb Range Separation                    ... NOT USED
Exchange Range Separation                   ... Long Range
   Mu parameter                             ... 3.000e-01
   Scaling (regular/separated)              ... 1.670e-01 8.330e-01
Multipole approximations                    ... NOT USED
Finite Nucleus Model                        ... NOT USED
CABS basis                                  ... NOT available
Auxiliary Coulomb fitting basis             ... AVAILABLE
   # of basis functions in Aux-J            ...   1905
   # of shells in Aux-J                     ...    655
   Maximum angular momentum in Aux-J        ...      4
Auxiliary J/K fitting basis                 ... NOT available
Auxiliary Correlation fitting basis         ... NOT available
Auxiliary 'external' fitting basis          ... NOT available

Checking pre-screening integrals            ... done (  0.0 sec) Dimension = 306
Check shell pair data                       ... done (  0.0 sec)
Shell pair information
Shell pair cut-off parameter TPreSel        ...   1.0e-12
Total number of shell pairs                 ...     46971
Shell pairs after pre-screening             ...     27443
Total number of primitive shell pairs       ...    162105
Primitive shell pairs kept                  ...     60544
          la=0 lb=0:   9598 shell pairs
          la=1 lb=0:  10523 shell pairs
          la=1 lb=1:   2910 shell pairs
          la=2 lb=0:   2752 shell pairs
          la=2 lb=1:   1467 shell pairs
          la=2 lb=2:    193 shell pairs

Calculating one electron integrals          ... done (  0.1 sec)
Calculating RI/J V-Matrix + Cholesky decomp.... done (  0.2 sec)
Calculating Nuclear repulsion               ... done (  0.0 sec) ENN=   2777.068677506958 Eh

Diagonalization of the overlap matrix:
Smallest eigenvalue                        ... 4.412e-04
Time for diagonalization                   ...    0.046 sec
Threshold for overlap eigenvalues          ... 1.000e-07
Number of eigenvalues below threshold      ... 0
Time for construction of square roots      ...    0.025 sec
Total time needed                          ...    0.074 sec

-------------------
DFT GRID GENERATION
-------------------

General Integration Accuracy     IntAcc      ... 4.388
Radial Grid Type                 RadialGrid  ... OptM3 with GC (2021)
Angular Grid (max. ang.)         AngularGrid ... 4 (Lebedev-302)
Angular grid pruning method      GridPruning ... 4 (adaptive)
Weight generation scheme         WeightScheme... mBecke (2022)
Basis function cutoff            BFCut       ... 1.0000e-11
Integration weight cutoff        WCut        ... 1.0000e-14
Partially contracted basis set               ... off
Rotationally invariant grid construction     ... off
Angular grids for H and He will be reduced by one unit

Total number of grid points                  ...   309857
Total number of batches                      ...     4879
Average number of points per batch           ...       63
Average number of grid points per atom       ...     4245

--------------------
COSX GRID GENERATION
--------------------

GRIDX 1
-------
General Integration Accuracy     IntAcc      ... 3.816
Radial Grid Type                 RadialGrid  ... OptM3 with GC (2021)
Angular Grid (max. ang.)         AngularGrid ... 1 (Lebedev-50)
Angular grid pruning method      GridPruning ... 4 (adaptive)
Weight generation scheme         WeightScheme... mBecke (2022)
Basis function cutoff            BFCut       ... 1.0000e-11
Integration weight cutoff        WCut        ... 1.0000e-14
Partially contracted basis set               ... on
Rotationally invariant grid construction     ... off
Angular grids for H and He will be reduced by one unit

Total number of grid points                  ...    39420
Total number of batches                      ...      354
Average number of points per batch           ...      111
Average number of grid points per atom       ...      540
UseSFitting                                  ... on

GRIDX 2
-------
General Integration Accuracy     IntAcc      ... 4.020
Radial Grid Type                 RadialGrid  ... OptM3 with GC (2021)
Angular Grid (max. ang.)         AngularGrid ... 2 (Lebedev-110)
Angular grid pruning method      GridPruning ... 4 (adaptive)
Weight generation scheme         WeightScheme... mBecke (2022)
Basis function cutoff            BFCut       ... 1.0000e-11
Integration weight cutoff        WCut        ... 1.0000e-14
Partially contracted basis set               ... on
Rotationally invariant grid construction     ... off
Angular grids for H and He will be reduced by one unit

Total number of grid points                  ...    81381
Total number of batches                      ...      677
Average number of points per batch           ...      120
Average number of grid points per atom       ...     1115
UseSFitting                                  ... on

GRIDX 3
-------
General Integration Accuracy     IntAcc      ... 4.338
Radial Grid Type                 RadialGrid  ... OptM3 with GC (2021)
Angular Grid (max. ang.)         AngularGrid ... 3 (Lebedev-194)
Angular grid pruning method      GridPruning ... 4 (adaptive)
Weight generation scheme         WeightScheme... mBecke (2022)
Basis function cutoff            BFCut       ... 1.0000e-11
Integration weight cutoff        WCut        ... 1.0000e-14
Partially contracted basis set               ... on
Rotationally invariant grid construction     ... off
Angular grids for H and He will be reduced by one unit

Total number of grid points                  ...   176190
Total number of batches                      ...     1418
Average number of points per batch           ...      124
Average number of grid points per atom       ...     2414
UseSFitting                                  ... on
Initializing property integral containers    ... done (  0.0 sec)

SHARK setup successfully completed in   4.4 seconds

Maximum memory used throughout the entire STARTUP-calculation: 95.7 MB


           ************************************************************
           *        Program running with 4 parallel MPI-processes     *
           *              working on a common directory               *
           ************************************************************
-------------------------------------------------------------------------------
                                 ORCA GUESS
                   Start orbitals & Density for SCF / CASSCF
-------------------------------------------------------------------------------

------------
SCF SETTINGS
------------
Hamiltonian:
 Density Functional     Method          .... DFT(GTOs)
 Exchange Functional    Exchange        .... WB97X-V
 Correlation Functional Correlation     .... WB97X-V
 Gradients option       PostSCFGGA      .... off
 Hybrid DFT is turned on
   Fraction HF Exchange ScalHFX         ....  0.167000
   Scaling of DF-GGA-X  ScalDFX         ....  0.000000
   Scaling of DF-GGA-C  ScalDFC         ....  1.000000
   Scaling of DF-LDA-C  ScalLDAC        ....  1.000000
   Perturbative correction              ....  0.000000
 Long-range corrected/Screened/Range-Separated Hybrid DFT is turned on
   Amount of maximum screened exact exchange              ....  0.833000
   Range separation parameter mu (erf(mu*r12)/r12)        ....  0.300000
 RI-approximation to the Coulomb term is turned on
   Number of AuxJ basis functions       .... 1905
   RIJ-COSX (HFX calculated with COS-X)).... on


General Settings:
 Integral files         IntName         .... inpS
 Hartree-Fock type      HFTyp           .... RHF
 Total Charge           Charge          ....    0
 Multiplicity           Mult            ....    1
 Number of Electrons    NEL             ....  220
 Basis Dimension        Dim             ....  626
 Nuclear Repulsion      ENuc            ....   2777.0686775070 Eh

Convergence Acceleration:
 AO-DIIS                CNVDIIS         .... on
   Start iteration      DIISMaxIt       ....    12
   Startup error        DIISStart       ....  0.200000
   # of expansion vecs  DIISMaxEq       ....     5
   Bias factor          DIISBfac        ....   1.050
   Max. coefficient     DIISMaxC        ....  10.000
 MO-DIIS                CNVKDIIS        .... off
 Trust-Rad. Augm. Hess. CNVTRAH         .... auto
   Auto Start mean grad. ratio tolernc. ....  1.125000
   Auto Start start iteration           ....     1
   Auto Start num. interpolation iter.  ....    10
   Max. Number of Micro iterations      ....    24
   Max. Number of Macro iterations      .... Maxiter - #DIIS iter
   Number of Davidson start vectors     ....     2
   Converg. threshold    (grad. norm)   ....   1.000e-04
   Grad. Scal. Fac. for Micro threshold ....   0.100
   Minimum threshold for Micro iter.    ....   1.000e-02
   NR start threshold (gradient norm)   ....   1.000e-04
   Initial trust radius                 ....   0.400
   Minimum AH scaling param. (alpha)    ....   1.000
   Maximum AH scaling param. (alpha)    .... 1000.000
   Quad. conv. algorithm                .... NR
   White noise on init. David. guess    .... on
   Maximum white noise                  ....   0.010
   Pseudo random numbers                .... off
   Inactive MOs                         .... canonical
   Orbital update algorithm             .... Taylor
   Preconditioner                       .... Diag
   Full preconditioner red. dimension   ....   250
 SOSCF                  CNVSOSCF        .... off
 Level Shifting         CNVShift        .... on
   Level shift para.    LevelShift      ....    0.2500
   Turn off err/grad.   ShiftErr        ....    0.0010
 Zerner damping         CNVZerner       .... off
 Static damping         CNVDamp         .... on
   Fraction old density DampFac         ....    0.7000
   Max. Damping (<1)    DampMax         ....    0.9800
   Min. Damping (>=0)   DampMin         ....    0.0000
   Turn off err/grad.   DampErr         ....    0.1000

SCF Procedure:
 Maximum # iterations   MaxIter         ....   125
 SCF integral mode      SCFMode         .... Direct
   Integral package                     .... SHARK and LIBINT hybrid scheme
 Reset frequency        DirectResetFreq ....    20
 Integral Threshold     Thresh          ....  3.000e-11 Eh
 Primitive CutOff       TCut            ....  1.000e-12 Eh

Convergence Tolerance:
 Convergence Check Mode ConvCheckMode   .... Total+1el-Energy
 Convergence forced     ConvForced      .... 0
 Energy Change          TolE            ....  1.000e-07 Eh
 1-El. energy change                    ....  1.000e-04 Eh
 DIIS Error             TolErr          ....  1.000e-07

---------------------
INITIAL GUESS: MOREAD
---------------------
Guess MOs are being read from file: inpS.ges
Input Geometry matches current geometry (good)
Input basis set matches current basis set (good)
Occupation numbers will be reassigned to an Aufbau configuration
MOs were renormalized
MOs were reorthogonalized (Cholesky)
                      ------------------
                      INITIAL GUESS DONE (   0.2 sec)
                      ------------------
             **** ENERGY FILE WAS UPDATED (inpS.en.tmp) ****
Finished Guess after   0.3 sec
Maximum memory used throughout the entire GUESS-calculation: 52.3 MB


           ************************************************************
           *        Program running with 4 parallel MPI-processes     *
           *              working on a common directory               *
           ************************************************************

-------------------------------------------------------------------------------------------
                                      ORCA LEAN-SCF
                              memory conserving SCF solver
-------------------------------------------------------------------------------------------

--------------------
CPCM SOLVATION MODEL
--------------------
CPCM parameters:
  Epsilon                                         ...       4.8030
  Refrac                                          ...       1.4459
  Rsolv                                           ...       1.3000
  Surface type                                    ... GAUSSIAN VDW
  Discretization scheme                           ... Constant charge density
    Threshold for H atoms                         ...       5.0000 (charges/Ang^2)
    Threshold for non-H atoms                     ...       5.0000 (charges/Ang^2)
  Epsilon function type                           ...         CPCM
Solvent:                                          ... CHLOROFORM
Radii:
  Scheme                                          ... Element-dependent radii
  Radius for C  used is    3.8550 Bohr (=   2.0400 Ang.)
  Radius for H  used is    2.4944 Bohr (=   1.3200 Ang.)
  Radius for O  used is    3.4469 Bohr (=   1.8240 Ang.)
Calculating surface                               ...        done! (  0.0s)
Cavity surface points                             ...         5344
Cavity Volume                                     ...    3612.5651
Cavity Surface-area                               ...    1787.4994
Calculating surface distance matrix               ...        done! (  0.2s)
Performing Cholesky decomposition & store         ...        done! (  0.9s)
Overall time for CPCM initialization              ...                 1.2s

----------------------------------------D-I-I-S--------------------------------------------
Iteration    Energy (Eh)           Delta-E    RMSDP     MaxDP     DIISErr   Damp  Time(sec)
-------------------------------------------------------------------------------------------
               ***  Starting incremental Fock matrix formation  ***
    1    -1168.3614338306842910     0.00e+00  3.12e-08  2.14e-06  4.24e-06  0.700  23.8

  HOMO= 109 E= -7.961 eV LUMO=  8.070 eV gap=  16.031 eV
    2    -1168.3614338098982444     2.08e-08  2.68e-08  1.37e-06  2.55e-06  0.700   5.0
                 **** Energy Check signals convergence ****

  HOMO= 109 E= -7.961 eV LUMO=  8.070 eV gap=  16.031 eV

               *****************************************************
               *                     SUCCESS                       *
               *           SCF CONVERGED AFTER   2 CYCLES          *
               *****************************************************

Recomputing exchange energy using gridx3       ... done (   40.804 sec)
Old exchange energy                            :    -56.783145708 Eh
New exchange energy                            :    -56.783232690 Eh
Exchange energy change after final integration :     -0.000086983 Eh
Total energy after final integration           :  -1168.361520792 Eh
             **** ENERGY FILE WAS UPDATED (inpS.en.tmp) ****

----------------
TOTAL SCF ENERGY
----------------

Total Energy       :      -1168.36152079241629 Eh          -31792.73329 eV

Components:
Nuclear Repulsion  :       2777.06867750695847 Eh           75567.88051 eV
Electronic Energy  :      -3945.42086316670475 Eh         -107360.35978 eV
One Electron Energy:      -7099.15975042712489 Eh         -193177.95779 eV
Two Electron Energy:       3153.73888726042014 Eh           85817.59800 eV
CPCM Dielectric    :         -0.00924815015188 Eh              -0.25165 eV

Virial components:
Potential Energy   :      -2321.66359482070129 Eh          -63175.67820 eV
Kinetic Energy     :       1153.30207402828501 Eh           31382.94491 eV
Virial Ratio       :          2.01305767769196

DFT components:
N(Alpha)           :      110.000076218155 electrons
N(Beta)            :      110.000076218155 electrons
N(Total)           :      220.000152436311 electrons
E(X)               :     -111.770768846206 Eh       
E(C)               :       -8.952828938546 Eh       
E(XC)              :     -120.723597784751 Eh       

CPCM Solvation Model Properties:
Surface-charge          :         -0.04187281524833
Corrected charge        :          0.00000000000000
Outlying charge corr.   :          0.00006137607621 Eh               0.00167 eV
Free-energy (cav+disp)  :  This term is not implemented in the current solvation scheme

---------------
SCF CONVERGENCE
---------------

  Last Energy change         ...   -2.0786e-08  Tolerance :   1.0000e-07
  Last MAX-Density change    ...    1.3716e-06  Tolerance :   1.0000e-05
  Last RMS-Density change    ...    2.6802e-08  Tolerance :   1.0000e-06
  Last DIIS Error            ...    2.5470e-06  Tolerance :   1.0000e-07


----------------
ORBITAL ENERGIES
----------------

  NO   OCC          E(Eh)            E(eV) 
   0   2.0000     -19.212405      -522.7961 
   1   2.0000     -10.330356      -281.1033 
   2   2.0000     -10.294303      -280.1222 
   3   2.0000     -10.292069      -280.0614 
   4   2.0000     -10.287623      -279.9404 
   5   2.0000     -10.286894      -279.9206 
   6   2.0000     -10.285477      -279.8821 
   7   2.0000     -10.284196      -279.8472 
   8   2.0000     -10.283174      -279.8194 
   9   2.0000     -10.282992      -279.8144 
  10   2.0000     -10.282305      -279.7957 
  11   2.0000     -10.281510      -279.7741 
  12   2.0000     -10.279252      -279.7127 
  13   2.0000     -10.278997      -279.7057 
  14   2.0000     -10.278123      -279.6819 
  15   2.0000     -10.277922      -279.6765 
  16   2.0000     -10.277426      -279.6630 
  17   2.0000     -10.277058      -279.6530 
  18   2.0000     -10.273138      -279.5463 
  19   2.0000     -10.272537      -279.5299 
  20   2.0000     -10.272128      -279.5188 
  21   2.0000     -10.272011      -279.5156 
  22   2.0000     -10.271726      -279.5079 
  23   2.0000     -10.271544      -279.5029 
  24   2.0000     -10.268726      -279.4262 
  25   2.0000     -10.268577      -279.4222 
  26   2.0000     -10.268313      -279.4150 
  27   2.0000     -10.267606      -279.3958 
  28   2.0000     -10.266679      -279.3705 
  29   2.0000      -1.130935       -30.7743 
  30   2.0000      -0.999031       -27.1850 
  31   2.0000      -0.977345       -26.5949 
  32   2.0000      -0.957557       -26.0564 
  33   2.0000      -0.943074       -25.6623 
  34   2.0000      -0.917691       -24.9716 
  35   2.0000      -0.911304       -24.7978 
  36   2.0000      -0.890108       -24.2211 
  37   2.0000      -0.888135       -24.1674 
  38   2.0000      -0.872314       -23.7369 
  39   2.0000      -0.853988       -23.2382 
  40   2.0000      -0.835269       -22.7288 
  41   2.0000      -0.825379       -22.4597 
  42   2.0000      -0.810347       -22.0507 
  43   2.0000      -0.801087       -21.7987 
  44   2.0000      -0.797234       -21.6938 
  45   2.0000      -0.792055       -21.5529 
  46   2.0000      -0.762719       -20.7547 
  47   2.0000      -0.758763       -20.6470 
  48   2.0000      -0.729228       -19.8433 
  49   2.0000      -0.713242       -19.4083 
  50   2.0000      -0.705906       -19.2087 
  51   2.0000      -0.699379       -19.0311 
  52   2.0000      -0.689968       -18.7750 
  53   2.0000      -0.672930       -18.3113 
  54   2.0000      -0.647329       -17.6147 
  55   2.0000      -0.631674       -17.1887 
  56   2.0000      -0.622907       -16.9502 
  57   2.0000      -0.619860       -16.8673 
  58   2.0000      -0.607511       -16.5312 
  59   2.0000      -0.602442       -16.3933 
  60   2.0000      -0.592644       -16.1267 
  61   2.0000      -0.586014       -15.9463 
  62   2.0000      -0.575550       -15.6615 
  63   2.0000      -0.569735       -15.5033 
  64   2.0000      -0.564107       -15.3501 
  65   2.0000      -0.557893       -15.1810 
  66   2.0000      -0.555637       -15.1197 
  67   2.0000      -0.552114       -15.0238 
  68   2.0000      -0.549723       -14.9587 
  69   2.0000      -0.543233       -14.7821 
  70   2.0000      -0.538933       -14.6651 
  71   2.0000      -0.534200       -14.5363 
  72   2.0000      -0.526866       -14.3368 
  73   2.0000      -0.522271       -14.2117 
  74   2.0000      -0.519064       -14.1245 
  75   2.0000      -0.516878       -14.0650 
  76   2.0000      -0.506817       -13.7912 
  77   2.0000      -0.503432       -13.6991 
  78   2.0000      -0.500684       -13.6243 
  79   2.0000      -0.492753       -13.4085 
  80   2.0000      -0.487760       -13.2726 
  81   2.0000      -0.487322       -13.2607 
  82   2.0000      -0.483396       -13.1539 
  83   2.0000      -0.478261       -13.0142 
  84   2.0000      -0.468169       -12.7395 
  85   2.0000      -0.463395       -12.6096 
  86   2.0000      -0.462242       -12.5782 
  87   2.0000      -0.457540       -12.4503 
  88   2.0000      -0.456994       -12.4354 
  89   2.0000      -0.452870       -12.3232 
  90   2.0000      -0.448379       -12.2010 
  91   2.0000      -0.446120       -12.1396 
  92   2.0000      -0.439560       -11.9610 
  93   2.0000      -0.434949       -11.8356 
  94   2.0000      -0.429189       -11.6788 
  95   2.0000      -0.425111       -11.5679 
  96   2.0000      -0.422735       -11.5032 
  97   2.0000      -0.422080       -11.4854 
  98   2.0000      -0.417250       -11.3539 
  99   2.0000      -0.414928       -11.2908 
 100   2.0000      -0.409247       -11.1362 
 101   2.0000      -0.408039       -11.1033 
 102   2.0000      -0.404986       -11.0202 
 103   2.0000      -0.403998       -10.9933 
 104   2.0000      -0.392818       -10.6891 
 105   2.0000      -0.382493       -10.4082 
 106   2.0000      -0.372802       -10.1444 
 107   2.0000      -0.355814        -9.6822 
 108   2.0000      -0.335377        -9.1261 
 109   2.0000      -0.292563        -7.9610 
 110   0.0000       0.046558         1.2669 
 111   0.0000       0.099343         2.7032 
 112   0.0000       0.109567         2.9815 
 113   0.0000       0.131910         3.5894 
 114   0.0000       0.143946         3.9170 
 115   0.0000       0.145083         3.9479 
 116   0.0000       0.150359         4.0915 
 117   0.0000       0.152413         4.1474 
 118   0.0000       0.160402         4.3648 
 119   0.0000       0.163937         4.4610 
 120   0.0000       0.166217         4.5230 
*Only the first 10 virtual orbitals were printed.

                    ********************************
                    * MULLIKEN POPULATION ANALYSIS *
                    ********************************

-----------------------
MULLIKEN ATOMIC CHARGES
-----------------------
   0 C :   -0.174218
   1 C :    0.142159
   2 C :    0.068553
   3 H :    0.017278
   4 H :    0.030672
   5 C :   -0.170486
   6 C :    0.095614
   7 C :    0.023900
   8 H :    0.013677
   9 H :    0.027268
  10 H :    0.019906
  11 H :    0.022660
  12 O :   -0.359221
  13 H :    0.018193
  14 C :   -0.008564
  15 C :   -0.046658
  16 H :    0.035313
  17 H :    0.029359
  18 C :   -0.062450
  19 H :   -0.002304
  20 C :   -0.113435
  21 H :    0.003610
  22 C :    0.114629
  23 C :   -0.002317
  24 H :    0.014284
  25 H :    0.016880
  26 C :    0.107181
  27 H :    0.013049
  28 H :    0.015684
  29 C :   -0.405092
  30 H :    0.008929
  31 H :   -0.002016
  32 C :   -0.045829
  33 H :    0.011662
  34 C :    0.126863
  35 H :    0.179034
  36 C :    0.042605
  37 H :    0.007594
  38 H :    0.015478
  39 C :   -0.051995
  40 H :    0.014014
  41 H :    0.011432
  42 H :   -0.010137
  43 C :   -0.003361
  44 C :    0.091059
  45 H :    0.019281
  46 H :    0.024792
  47 H :    0.019061
  48 H :    0.001806
  49 C :    0.059834
  50 C :   -0.085282
  51 C :   -0.084643
  52 H :    0.013633
  53 H :    0.008670
  54 C :   -0.057402
  55 C :    0.050192
  56 C :   -0.166699
  57 H :    0.015047
  58 H :    0.012061
  59 C :    0.022421
  60 C :    0.026357
  61 H :    0.025698
  62 H :    0.016008
  63 H :    0.021360
  64 H :    0.019094
  65 H :    0.016205
  66 H :    0.017824
  67 H :    0.016475
  68 H :    0.019575
  69 H :    0.020818
  70 H :    0.028501
  71 H :    0.019169
  72 H :    0.019686
Sum of atomic charges:   -0.0000000

--------------------------------
MULLIKEN REDUCED ORBITAL CHARGES
--------------------------------
  0 C s       :     3.102419  s :     3.102419
      pz      :     1.015828  p :     3.028775
      px      :     1.004123
      py      :     1.008824
      dz2     :     0.004938  d :     0.043025
      dxz     :     0.006490
      dyz     :     0.005855
      dx2y2   :     0.014102
      dxy     :     0.011639

  1 C s       :     2.939494  s :     2.939494
      pz      :     0.989207  p :     2.883951
      px      :     0.930046
      py      :     0.964698
      dz2     :     0.007831  d :     0.034395
      dxz     :     0.006713
      dyz     :     0.003975
      dx2y2   :     0.009930
      dxy     :     0.005947

  2 C s       :     3.085003  s :     3.085003
      pz      :     0.738868  p :     2.775782
      px      :     1.045413
      py      :     0.991502
      dz2     :     0.022765  d :     0.070662
      dxz     :     0.011379
      dyz     :     0.017668
      dx2y2   :     0.011718
      dxy     :     0.007132

  3 H s       :     0.960066  s :     0.960066
      pz      :     0.005013  p :     0.022656
      px      :     0.003726
      py      :     0.013917

  4 H s       :     0.946016  s :     0.946016
      pz      :     0.014207  p :     0.023312
      px      :     0.004686
      py      :     0.004419

  5 C s       :     3.108903  s :     3.108903
      pz      :     0.976243  p :     3.016776
      px      :     0.985541
      py      :     1.054993
      dz2     :     0.009633  d :     0.044807
      dxz     :     0.005482
      dyz     :     0.009040
      dx2y2   :     0.010906
      dxy     :     0.009746

  6 C s       :     2.955226  s :     2.955226
      pz      :     1.002103  p :     2.913711
      px      :     0.947374
      py      :     0.964235
      dz2     :     0.008761  d :     0.035449
      dxz     :     0.006306
      dyz     :     0.004324
      dx2y2   :     0.008888
      dxy     :     0.007169

  7 C s       :     3.002584  s :     3.002584
      pz      :     0.985576  p :     2.938731
      px      :     0.981141
      py      :     0.972014
      dz2     :     0.007448  d :     0.034785
      dxz     :     0.006292
      dyz     :     0.004582
      dx2y2   :     0.008652
      dxy     :     0.007812

  8 H s       :     0.963491  s :     0.963491
      pz      :     0.005670  p :     0.022832
      px      :     0.003780
      py      :     0.013382

  9 H s       :     0.949334  s :     0.949334
      pz      :     0.014343  p :     0.023398
      px      :     0.004641
      py      :     0.004414

 10 H s       :     0.957269  s :     0.957269
      pz      :     0.013943  p :     0.022824
      px      :     0.004734
      py      :     0.004148

 11 H s       :     0.954710  s :     0.954710
      pz      :     0.008099  p :     0.022630
      px      :     0.007148
      py      :     0.007383

 12 O s       :     3.713515  s :     3.713515
      pz      :     1.410917  p :     4.633569
      px      :     1.338980
      py      :     1.883671
      dz2     :     0.005357  d :     0.012137
      dxz     :     0.001391
      dyz     :     0.001652
      dx2y2   :     0.003186
      dxy     :     0.000551

 13 H s       :     0.961457  s :     0.961457
      pz      :     0.001864  p :     0.020350
      px      :     0.014217
      py      :     0.004268

 14 C s       :     3.194341  s :     3.194341
      pz      :     0.993018  p :     2.777868
      px      :     0.871263
      py      :     0.913588
      dz2     :     0.003892  d :     0.036356
      dxz     :     0.007592
      dyz     :     0.003258
      dx2y2   :     0.011123
      dxy     :     0.010491

 15 C s       :     3.124217  s :     3.124217
      pz      :     1.007088  p :     2.896177
      px      :     0.983333
      py      :     0.905757
      dz2     :     0.005414  d :     0.026263
      dxz     :     0.004104
      dyz     :     0.004667
      dx2y2   :     0.006402
      dxy     :     0.005677

 16 H s       :     0.940147  s :     0.940147
      pz      :     0.006970  p :     0.024540
      px      :     0.008273
      py      :     0.009297

 17 H s       :     0.946027  s :     0.946027
      pz      :     0.004797  p :     0.024614
      px      :     0.004437
      py      :     0.015379

 18 C s       :     3.199974  s :     3.199974
      pz      :     1.031101  p :     2.827299
      px      :     0.880837
      py      :     0.915361
      dz2     :     0.003392  d :     0.035177
      dxz     :     0.006673
      dyz     :     0.003191
      dx2y2   :     0.012158
      dxy     :     0.009763

 19 H s       :     0.977988  s :     0.977988
      pz      :     0.004692  p :     0.024315
      px      :     0.004853
      py      :     0.014770

 20 C s       :     3.100012  s :     3.100012
      pz      :     0.958010  p :     2.969296
      px      :     0.986671
      py      :     1.024616
      dz2     :     0.004170  d :     0.044127
      dxz     :     0.007056
      dyz     :     0.006993
      dx2y2   :     0.014345
      dxy     :     0.011563

 21 H s       :     0.971798  s :     0.971798
      pz      :     0.004614  p :     0.024591
      px      :     0.004402
      py      :     0.015575

 22 C s       :     2.926072  s :     2.926072
      pz      :     1.001352  p :     2.923766
      px      :     0.975671
      py      :     0.946744
      dz2     :     0.009516  d :     0.035533
      dxz     :     0.004230
      dyz     :     0.005782
      dx2y2   :     0.009827
      dxy     :     0.006178

 23 C s       :     3.001257  s :     3.001257
      pz      :     1.011819  p :     2.964582
      px      :     0.965351
      py      :     0.987412
      dz2     :     0.009941  d :     0.036477
      dxz     :     0.007515
      dyz     :     0.002989
      dx2y2   :     0.010279
      dxy     :     0.005754

 24 H s       :     0.962518  s :     0.962518
      pz      :     0.004906  p :     0.023198
      px      :     0.013596
      py      :     0.004697

 25 H s       :     0.959854  s :     0.959854
      pz      :     0.013693  p :     0.023266
      px      :     0.004760
      py      :     0.004814

 26 C s       :     2.969091  s :     2.969091
      pz      :     0.969041  p :     2.888414
      px      :     0.974720
      py      :     0.944654
      dz2     :     0.007068  d :     0.035314
      dxz     :     0.006534
      dyz     :     0.005632
      dx2y2   :     0.008624
      dxy     :     0.007456

 27 H s       :     0.964099  s :     0.964099
      pz      :     0.013733  p :     0.022852
      px      :     0.004327
      py      :     0.004792

 28 H s       :     0.961674  s :     0.961674
      pz      :     0.004642  p :     0.022643
      px      :     0.003788
      py      :     0.014213

 29 C s       :     3.253697  s :     3.253697
      pz      :     1.046454  p :     3.100461
      px      :     0.997095
      py      :     1.056913
      dz2     :     0.011619  d :     0.050933
      dxz     :     0.010454
      dyz     :     0.009440
      dx2y2   :     0.010808
      dxy     :     0.008612

 30 H s       :     0.967987  s :     0.967987
      pz      :     0.008980  p :     0.023084
      px      :     0.007827
      py      :     0.006277

 31 H s       :     0.979466  s :     0.979466
      pz      :     0.013203  p :     0.022551
      px      :     0.004821
      py      :     0.004527

 32 C s       :     3.034688  s :     3.034688
      pz      :     0.989525  p :     2.967402
      px      :     0.946586
      py      :     1.031291
      dz2     :     0.008582  d :     0.043739
      dxz     :     0.007216
      dyz     :     0.007935
      dx2y2   :     0.011136
      dxy     :     0.008870

 33 H s       :     0.967059  s :     0.967059
      pz      :     0.012425  p :     0.021278
      px      :     0.004076
      py      :     0.004777

 34 C s       :     2.891566  s :     2.891566
      pz      :     0.988992  p :     2.946746
      px      :     0.976279
      py      :     0.981475
      dz2     :     0.005492  d :     0.034826
      dxz     :     0.005851
      dyz     :     0.008173
      dx2y2   :     0.008941
      dxy     :     0.006368

 35 H s       :     0.752177  s :     0.752177
[...]
 Total          141.935          174.428          191.318  iso=     169.227

 Orientation: 
  X           0.2477539   -0.5693791    0.7838530
  Y          -0.1368878   -0.8215338   -0.5534835
  Z           0.9591036    0.0298278   -0.2814792

 --------------
 Nucleus  39C :
 --------------

Diamagnetic contribution to the shielding tensor (ppm) : 
           264.355          4.021        -6.809
             4.649        259.163         4.749
            -5.462          3.932       264.054

Paramagnetic contribution to the shielding tensor (ppm): 
           -99.197         -1.045         8.820
             2.374       -128.944        -0.300
            11.921         -2.997      -137.838

Total shielding tensor (ppm): 
           165.159          2.977         2.012
             7.023        130.219         4.449
             6.460          0.936       126.216


 Diagonalized sT*s matrix:
 
 sDSO           260.504          262.813          264.255  iso=     262.524
 sPSO          -135.710         -132.392          -97.877  iso=    -121.993
        ---------------  ---------------  ---------------
 Total          124.794          130.422          166.378  iso=     140.531

 Orientation: 
  X          -0.0406300   -0.1688204   -0.9848091
  Y          -0.4182100    0.8980073   -0.1366865
  Z           0.9074412    0.4063035   -0.1070884

 --------------
 Nucleus  43C :
 --------------

Diamagnetic contribution to the shielding tensor (ppm) : 
           257.853         -1.061        -5.468
            -1.748        247.314         9.220
            -5.679          1.642       252.457

Paramagnetic contribution to the shielding tensor (ppm): 
           -93.434         -1.934        -2.626
             4.214        -90.862        -6.992
            -2.035          3.220       -90.976

Total shielding tensor (ppm): 
           164.419         -2.995        -8.093
             2.466        156.452         2.228
            -7.714          4.862       161.481


 Diagonalized sT*s matrix:
 
 sDSO           244.668          250.743          262.213  iso=     252.541
 sPSO           -91.781          -92.684          -90.806  iso=     -91.757
        ---------------  ---------------  ---------------
 Total          152.887          158.059          171.407  iso=     160.784

 Orientation: 
  X          -0.4305115    0.5169557   -0.7398761
  Y           0.6178707    0.7663450    0.1759293
  Z          -0.6579480    0.3814082    0.6493321

 --------------
 Nucleus  44C :
 --------------

Diamagnetic contribution to the shielding tensor (ppm) : 
           249.938          0.567         1.298
             0.213        254.374        -1.623
            -0.127          1.745       273.257

Paramagnetic contribution to the shielding tensor (ppm): 
           -70.540         -4.896        -2.446
            -2.865        -74.147        -1.730
            -0.654         -5.539       -80.070

Total shielding tensor (ppm): 
           179.398         -4.329        -1.148
            -2.652        180.227        -3.352
            -0.781         -3.795       193.187


 Diagonalized sT*s matrix:
 
 sDSO           253.324          252.191          272.054  iso=     259.190
 sPSO           -77.592          -69.218          -77.947  iso=     -74.919
        ---------------  ---------------  ---------------
 Total          175.731          182.973          194.107  iso=     184.271

 Orientation: 
  X           0.7043809    0.7098069   -0.0046621
  Y           0.6866756   -0.6830606   -0.2488066
  Z           0.1797892   -0.1720533    0.9685420

 --------------
 Nucleus  49C :
 --------------

Diamagnetic contribution to the shielding tensor (ppm) : 
           243.751         -5.378        -2.311
           -14.640        255.250         9.126
            -7.802          5.138       251.160

Paramagnetic contribution to the shielding tensor (ppm): 
           -63.368          3.145        -3.418
            11.575        -72.620        -4.236
             0.387         -1.305       -75.873

Total shielding tensor (ppm): 
           180.383         -2.233        -5.729
            -3.065        182.630         4.890
            -7.414          3.833       175.287


 Diagonalized sT*s matrix:
 
 sDSO           244.789          240.297          265.075  iso=     250.054
 sPSO           -74.413          -61.010          -76.438  iso=     -70.620
        ---------------  ---------------  ---------------
 Total          170.376          179.287          188.638  iso=     179.434

 Orientation: 
  X           0.5011007   -0.6232039    0.6004290
  Y          -0.1920962   -0.7566194   -0.6250009
  Z           0.8437992    0.1978482   -0.4988577

 --------------
 Nucleus  50C :
 --------------

Diamagnetic contribution to the shielding tensor (ppm) : 
           273.202         -1.954        11.895
             6.746        266.400        -6.239
            14.494         -3.975       255.998

Paramagnetic contribution to the shielding tensor (ppm): 
          -185.046        -14.756       -64.035
           -15.196       -304.299       -32.588
           -61.092        -35.389      -122.097

Total shielding tensor (ppm): 
            88.156        -16.710       -52.140
            -8.449        -37.899       -38.827
           -46.599        -39.363       133.900


 Diagonalized sT*s matrix:
 
 sDSO           268.274          276.971          250.355  iso=     265.200
 sPSO          -311.947         -217.945          -81.551  iso=    -203.814
        ---------------  ---------------  ---------------
 Total          -43.673           59.027          168.804  iso=      61.386

 Orientation: 
  X          -0.3835086    0.7808258   -0.4931859
  Y          -0.8616619   -0.4947003   -0.1131826
  Z          -0.3323551    0.3815530    0.8625296

 --------------
 Nucleus  51C :
 --------------

Diamagnetic contribution to the shielding tensor (ppm) : 
           269.195         -1.724        14.612
           -13.188        275.827        11.945
            18.724          1.149       247.020

Paramagnetic contribution to the shielding tensor (ppm): 
          -185.060        -16.058       -66.441
             0.955       -295.189       -53.099
           -62.933        -44.653      -101.521

Total shielding tensor (ppm): 
            84.135        -17.782       -51.828
           -12.233        -19.363       -41.155
           -44.209        -43.504       145.499


 Diagonalized sT*s matrix:
 
 sDSO           275.014          280.713          236.314  iso=     264.014
 sPSO          -309.533         -212.490          -59.748  iso=    -193.923
        ---------------  ---------------  ---------------
 Total          -34.519           68.224          176.566  iso=      70.090

 Orientation: 
  X          -0.3222031    0.8473678   -0.4220817
  Y          -0.8957293   -0.4171721   -0.1537415
  Z          -0.3063563    0.3285349    0.8934263

 --------------
 Nucleus  54C :
 --------------

Diamagnetic contribution to the shielding tensor (ppm) : 
           256.121          0.742         0.541
             3.909        253.842         5.295
            -2.154          8.459       239.458

Paramagnetic contribution to the shielding tensor (ppm): 
           -94.772         -1.095       -10.748
            -1.200       -101.033        -2.858
            -4.714         -5.916       -75.790

Total shielding tensor (ppm): 
           161.349         -0.353       -10.208
             2.708        152.809         2.437
            -6.868          2.543       163.668


 Diagonalized sT*s matrix:
 
 sDSO           244.850          256.831          247.740  iso=     249.807
 sPSO           -94.118         -100.929          -76.548  iso=     -90.532
        ---------------  ---------------  ---------------
 Total          150.732          155.902          171.191  iso=     159.275

 Orientation: 
  X          -0.4400794   -0.6239435   -0.6457744
  Y           0.7828607   -0.6188520    0.0644309
  Z          -0.4398401   -0.4771967    0.7608049

 --------------
 Nucleus  55C :
 --------------

Diamagnetic contribution to the shielding tensor (ppm) : 
           243.825         -1.041         0.308
            20.110        262.677         0.093
            12.062          5.582       240.942

Paramagnetic contribution to the shielding tensor (ppm): 
           -62.723          2.594        -2.218
           -21.650        -74.642        10.922
           -12.879          3.002       -70.696

Total shielding tensor (ppm): 
           181.102          1.553        -1.911
            -1.540        188.035        11.016
            -0.817          8.584       170.246


 Diagonalized sT*s matrix:
 
 sDSO           242.732          244.783          259.929  iso=     249.148
 sPSO           -76.927          -63.606          -67.528  iso=     -69.354
        ---------------  ---------------  ---------------
 Total          165.804          181.177          192.401  iso=     179.794

 Orientation: 
  X           0.0849590   -0.9950247    0.0520367
  Y          -0.4046340   -0.0821801   -0.9107786
  Z           0.9105236    0.0563230   -0.4096028

 --------------
 Nucleus  56C :
 --------------

Diamagnetic contribution to the shielding tensor (ppm) : 
           247.262         -4.408        -6.137
            -8.068        243.546        -1.563
            -8.507         -1.820       240.185

Paramagnetic contribution to the shielding tensor (ppm): 
           -71.926          0.581         4.306
             6.564        -79.688         4.084
             1.065          8.085       -83.542

Total shielding tensor (ppm): 
           175.337         -3.827        -1.831
            -1.504        163.858         2.521
            -7.441          6.265       156.643


 Diagonalized sT*s matrix:
 
 sDSO           240.629          237.460          252.904  iso=     243.664
 sPSO           -86.535          -73.137          -75.484  iso=     -78.385
        ---------------  ---------------  ---------------
 Total          154.094          164.323          177.420  iso=     165.279

 Orientation: 
  X           0.1446022    0.3434917   -0.9279567
  Y          -0.3652019    0.8901279    0.2725801
  Z           0.9196291    0.2994759    0.2541583

 --------------
 Nucleus  59C :
 --------------

Diamagnetic contribution to the shielding tensor (ppm) : 
           246.474         -0.163        -2.550
             2.590        235.148        -8.220
           -22.338         -5.041       247.279

Paramagnetic contribution to the shielding tensor (ppm): 
           -71.171          0.491         2.497
            -2.757        -54.429         1.360
            22.719         -6.689       -57.372

Total shielding tensor (ppm): 
           175.303          0.327        -0.053
            -0.167        180.719        -6.860
             0.381        -11.730       189.907


 Diagonalized sT*s matrix:
 
 sDSO           238.143          241.071          249.687  iso=     242.967
 sPSO           -63.255          -65.711          -54.006  iso=     -60.991
        ---------------  ---------------  ---------------
 Total          174.888          175.360          195.681  iso=     181.976

 Orientation: 
  X          -0.3566985    0.9342029    0.0055816
  Y           0.7892474    0.3045374   -0.5332405
  Z           0.4998546    0.1858008    0.8459453

 --------------
 Nucleus  60C :
 --------------

Diamagnetic contribution to the shielding tensor (ppm) : 
           243.606         -5.594        -0.254
           -20.674        246.405        -0.008
             1.667          0.208       226.661

Paramagnetic contribution to the shielding tensor (ppm): 
           -79.362         -4.587        -1.680
             9.105        -55.321       -11.372
            -7.441         -5.524       -56.129

Total shielding tensor (ppm): 
           164.244        -10.181        -1.934
           -11.569        191.084       -11.379
            -5.774         -5.317       170.532


 Diagonalized sT*s matrix:
 
 sDSO           233.020          231.968          251.685  iso=     238.891
 sPSO           -75.968          -59.826          -55.018  iso=     -63.604
        ---------------  ---------------  ---------------
 Total          157.051          172.142          196.667  iso=     175.287

 Orientation: 
  X           0.8039257   -0.5241000   -0.2811098
  Y           0.3763161    0.0822611    0.9228322
  Z           0.4605319    0.8476747   -0.2633590



--------------------------------
CHEMICAL SHIELDING SUMMARY (ppm)
--------------------------------


  Nucleus  Element    Isotropic     Anisotropy
  -------  -------  ------------   ------------
      0       C           61.380        151.879 
      1       C          154.550         12.186 
      2       C          132.350         50.890 
      5       C           50.777        177.656 
      6       C          167.963         31.834 
      7       C          164.882         17.249 
     14       C           71.778        133.236 
     15       C           83.781        119.445 
     18       C           80.179        133.934 
     20       C           52.178        175.731 
     22       C          168.997          7.090 
     23       C          174.118         13.322 
     26       C          158.846         23.659 
     29       C          153.750         17.711 
     32       C          143.234         27.652 
     34       C          174.784         23.865 
     36       C          169.227         33.136 
     39       C          140.531         38.770 
     43       C          160.784         15.934 
     44       C          184.271         14.755 
     49       C          179.434         13.806 
     50       C           61.386        161.127 
     51       C           70.090        159.714 
     54       C          159.275         17.874 
     55       C          179.794         18.910 
     56       C          165.279         18.212 
     59       C          181.976         20.557 
     60       C          175.287         32.070 


NMR shielding tensor and spin rotation calculation done in   1.0 sec 

Maximum memory used throughout the entire PROP-calculation: 51.8 MB

--------------------------------
SUGGESTED CITATIONS FOR THIS RUN
--------------------------------

Below you find a list of papers that are relevant to this ORCA run
We neither can nor want to force you to cite these papers, but we appreciate if you do
You receive ORCA, which is the product of decades of hard work by many enthusiastic individuals, for free
The only thing we kindly ask in return is that you cite our papers,
We deeply appreciate it, if you show your appreciation for ORCA by not just citing the generic ORCA reference.

Please note that relegating all ORCA citations to the supporting information does *not* help us.
SI sections are not indexed - citations you put there will not count into any citation statistics
But we need these citations in order to attract the funding resources that allow us to do what we are doing

Therefore, if you are a happy ORCA user, please consider citing a few of the papers listed below in the main body of your paper

In addition to the list printed below, the program has created the file inpS.bibtex that contains the list in bibtex format
You can import this file easily into all common literature databanks and citation aid programs


List of essential papers. We consider these as the minimum necessary citations

  1. Neese,F.
     Software update: the ORCA program system, version 5.0
     WIRES Comput. Molec. Sci., 2022 12(1)e1606
     doi.org/10.1002/wcms.1606

List of papers to cite with high priority. The work reported in these papers was absolutely
necessary for this run to complete.
Our perspective: the developers of density functionals and basis sets usually get cited in chemistry papers
Good! But without the algorithms to do something with them, the functionals or basis sets would not do anything.
Hence, in our opinion, the algorithm design and method developments papers are equally worthy of getting cited

  1. Neese,F.
     An improvement of the resolution of the identity approximation for the formation of the Coulomb matrix
     J. Comp. Chem., 2003 24(14)1740-1747
     doi.org/10.1002/jcc.10318
  2. Neese,F.; Wennmohs,F.; Hansen,A.; Becker,U.
     Efficient, approximate and parallel Hartree-Fock and hybrid DFT calculations. A 'chain-of-spheres' algorithm for the Hartree-Fock exchange
     Chem. Phys., 2009 356(1-3)98-109
     doi.org/10.1016/j.chemphys.2008.10.036
  3. Stoychev,G.L.; Auer,A.A.; Izsak,R.; Neese,F.
     Self-Consistent Field Calculation of Nuclear Magnetic Resonance Chemical Shielding Constants Using Gauge-Including Atomic Orbitals and Approximate Two-Electron Integrals
     J. Chem. Theory Comput., 2018 14(2)619-637
     doi.org/10.1021/acs.jctc.7b01006
  4. Garcia-Rates,M.; Neese,F.
     Effect of the Solute Cavity on the Solvation Energy and its Derivatives within the Framework of the Gaussian Charge Scheme
     J. Comput. Chem., 2020 41 922-939
     doi.org/10.1002/jcc.26139
  5. Helmich-Paris,B.; de Souza,B.; Neese,F.; Izsák,R.
     An improved chain of spheres for exchange algorithm
     J. Chem. Phys., 2021 155 104109
     doi.org/doi: 10.1063/5.0058766.
  6. Neese,F.
     The SHARK Integral Generation and Digestion System
     J. Comp. Chem., 2022  1-16
     doi.org/10.1002/jcc.26942
  7. Caldeweyher,E.; Bannwarth,C.; Grimme,S.
     Extension of the D3 dispersion coefficient model
     J. Chem. Phys., 2017 147 034112-XXXX
     doi.org/10.1063/1.4993215
  8. Caldeweyher,E.; Ehlert,S.; Hansen,A.; Neugebauer,H.; Spicher,S.; Bannwarth,C.; Grimme,S.
     A generally applicable atomic-charge dependent London dispersion correction
     J. Chem. Phys., 2019 150 154122-XXXX
     doi.org/10.1063/1.5090222
  9. Caldeweyher,E.; Mewes,J.; Ehlert,S.; Grimme,S.
     Extension and evaluation of the D4 London-dispersion model for periodic systems
     Phys. Chem. Chem. Phys., 2020 22(16)8499-8512
     doi.org/10.1039/D0CP00502A

List of suggested additional citations. These are papers that are important in the 'surrounding' of 
of this run, or papers that preceded the highly important papers. If you like your results we are grateful for a citation.

  1. Izsak,R.; Neese,F.
     An overlap fitted chain of spheres exchange method
     J. Chem. Phys., 2011 135 144105
     doi.org/10.1063/1.3646921
  2. Izsak,R.; Hansen,A.; Neese,F.
     The resolution of identity and chain of spheres approximations for the LPNO-CCSD singles Fock term
     Molec. Phys., 2012 110 2413-2417
     doi.org/10.1080/00268976.2012.687466
  3. Neese,F.
     The ORCA program system
     WIRES Comput. Molec. Sci., 2012 2(1)73-78
     doi.org/10.1002/wcms.81
  4. Izsak,R.; Neese,F.; Klopper,W.
     Robust fitting techniques in the chain of spheres approximation to the Fock exchange: The role of the complementary space
     J. Chem. Phys., 2013 139 
     doi.org/10.1063/1.4819264
  5. Neese,F.
     Software update: the ORCA program system, version 4.0
     WIRES Comput. Molec. Sci., 2018 8(1)1-6
     doi.org/10.1002/wcms.1327
  6. Neese,F.; Wennmohs,F.; Becker,U.; Riplinger,C.
     The ORCA quantum chemistry program package
     J. Chem. Phys., 2020 152 Art. No. L224108
     doi.org/10.1063/5.0004608

Timings for individual modules:

Sum of individual times          ...      177.711 sec (=   2.962 min)
Startup calculation              ...        4.585 sec (=   0.076 min)   2.6 %
SCF iterations                   ...       72.223 sec (=   1.204 min)  40.6 %
Property integrals               ...       60.707 sec (=   1.012 min)  34.2 %
SCF Response                     ...       38.873 sec (=   0.648 min)  21.9 %
Property calculations            ...        1.323 sec (=   0.022 min)   0.7 %
                             ****ORCA TERMINATED NORMALLY****
TOTAL RUN TIME: 0 days 0 hours 2 minutes 58 seconds 12 msec
