
                                 *****************
                                 * O   R   C   A *
                                 *****************

                                            #,                                       
                                            ###                                      
                                            ####                                     
                                            #####                                    
                                            ######                                   
                                           ########,                                 
                                     ,,################,,,,,                         
                               ,,#################################,,                 
                          ,,##########################################,,             
                       ,#########################################, ''#####,          
                    ,#############################################,,   '####,        
                  ,##################################################,,,,####,       
                ,###########''''           ''''###############################       
              ,#####''   ,,,,##########,,,,          '''####'''          '####       
            ,##' ,,,,###########################,,,                        '##       
           ' ,,###''''                  '''############,,,                           
         ,,##''                                '''############,,,,        ,,,,,,###''
      ,#''                                            '''#######################'''  
     '                                                          ''''####''''         
             ,#######,   #######,   ,#######,      ##                                
            ,#'     '#,  ##    ##  ,#'     '#,    #''#        ######   ,####,        
            ##       ##  ##   ,#'  ##            #'  '#       #        #'  '#        
            ##       ##  #######   ##           ,######,      #####,   #    #        
            '#,     ,#'  ##    ##  '#,     ,#' ,#      #,         ##   #,  ,#        
             '#######'   ##     ##  '#######'  #'      '#     #####' # '####'        



                  #######################################################
                  #                        -***-                        #
                  #          Department of theory and spectroscopy      #
                  #    Directorship and core code : Frank Neese         #
                  #        Max Planck Institute fuer Kohlenforschung    #
                  #                Kaiser Wilhelm Platz 1               #
                  #                 D-45470 Muelheim/Ruhr               #
                  #                      Germany                        #
                  #                                                     #
                  #                  All rights reserved                #
                  #                        -***-                        #
                  #######################################################


                         Program Version 5.0.2 -  RELEASE  -


 With contributions from (in alphabetic order):
   Daniel Aravena         : Magnetic Suceptibility
   Michael Atanasov       : Ab Initio Ligand Field Theory (pilot matlab implementation)
   Alexander A. Auer      : GIAO ZORA, VPT2 properties, NMR spectrum
   Ute Becker             : Parallelization
   Giovanni Bistoni       : ED, misc. LED, open-shell LED, HFLD
   Martin Brehm           : Molecular dynamics
   Dmytro Bykov           : SCF Hessian
   Vijay G. Chilkuri      : MRCI spin determinant printing, contributions to CSF-ICE
   Dipayan Datta          : RHF DLPNO-CCSD density
   Achintya Kumar Dutta   : EOM-CC, STEOM-CC
   Dmitry Ganyushin       : Spin-Orbit,Spin-Spin,Magnetic field MRCI
   Miquel Garcia          : C-PCM and meta-GGA Hessian, CC/C-PCM, Gaussian charge scheme
   Yang Guo               : DLPNO-NEVPT2, F12-NEVPT2, CIM, IAO-localization
   Andreas Hansen         : Spin unrestricted coupled pair/coupled cluster methods
   Benjamin Helmich-Paris : MC-RPA, TRAH-SCF, COSX integrals
   Lee Huntington         : MR-EOM, pCC
   Robert Izsak           : Overlap fitted RIJCOSX, COSX-SCS-MP3, EOM
   Marcus Kettner         : VPT2
   Christian Kollmar      : KDIIS, OOCD, Brueckner-CCSD(T), CCSD density, CASPT2, CASPT2-K
   Simone Kossmann        : Meta GGA functionals, TD-DFT gradient, OOMP2, MP2 Hessian
   Martin Krupicka        : Initial AUTO-CI
   Lucas Lang             : DCDCAS
   Marvin Lechner         : AUTO-CI (C++ implementation), FIC-MRCC
   Dagmar Lenk            : GEPOL surface, SMD
   Dimitrios Liakos       : Extrapolation schemes; Compound Job, initial MDCI parallelization
   Dimitrios Manganas     : Further ROCIS development; embedding schemes
   Dimitrios Pantazis     : SARC Basis sets
   Anastasios Papadopoulos: AUTO-CI, single reference methods and gradients
   Taras Petrenko         : DFT Hessian,TD-DFT gradient, ASA, ECA, R-Raman, ABS, FL, XAS/XES, NRVS
   Peter Pinski           : DLPNO-MP2, DLPNO-MP2 Gradient
   Christoph Reimann      : Effective Core Potentials
   Marius Retegan         : Local ZFS, SOC
   Christoph Riplinger    : Optimizer, TS searches, QM/MM, DLPNO-CCSD(T), (RO)-DLPNO pert. Triples
   Tobias Risthaus        : Range-separated hybrids, TD-DFT gradient, RPA, STAB
   Michael Roemelt        : Original ROCIS implementation
   Masaaki Saitow         : Open-shell DLPNO-CCSD energy and density
   Barbara Sandhoefer     : DKH picture change effects
   Avijit Sen             : IP-ROCIS
   Kantharuban Sivalingam : CASSCF convergence, NEVPT2, FIC-MRCI
   Bernardo de Souza      : ESD, SOC TD-DFT
   Georgi Stoychev        : AutoAux, RI-MP2 NMR, DLPNO-MP2 response
   Willem Van den Heuvel  : Paramagnetic NMR
   Boris Wezisla          : Elementary symmetry handling
   Frank Wennmohs         : Technical directorship


 We gratefully acknowledge several colleagues who have allowed us to
 interface, adapt or use parts of their codes:
   Stefan Grimme, W. Hujo, H. Kruse, P. Pracht,  : VdW corrections, initial TS optimization,
                  C. Bannwarth, S. Ehlert          DFT functionals, gCP, sTDA/sTD-DF
   Ed Valeev, F. Pavosevic, A. Kumar             : LibInt (2-el integral package), F12 methods
   Garnet Chan, S. Sharma, J. Yang, R. Olivares  : DMRG
   Ulf Ekstrom                                   : XCFun DFT Library
   Mihaly Kallay                                 : mrcc  (arbitrary order and MRCC methods)
   Jiri Pittner, Ondrej Demel                    : Mk-CCSD
   Frank Weinhold                                : gennbo (NPA and NBO analysis)
   Christopher J. Cramer and Donald G. Truhlar   : smd solvation model
   Lars Goerigk                                  : TD-DFT with DH, B97 family of functionals
   V. Asgeirsson, H. Jonsson                     : NEB implementation
   FAccTs GmbH                                   : IRC, NEB, NEB-TS, DLPNO-Multilevel, CI-OPT
                                                   MM, QMMM, 2- and 3-layer-ONIOM, Crystal-QMMM,
                                                   LR-CPCM, SF, NACMEs, symmetry and pop. for TD-DFT,
                                                   nearIR, NL-DFT gradient (VV10), updates on ESD,
                                                   ML-optimized integration grids
   S Lehtola, MJT Oliveira, MAL Marques          : LibXC Library
   Liviu Ungur et al                             : ANISO software


 Your calculation uses the libint2 library for the computation of 2-el integrals
 For citations please refer to: http://libint.valeyev.net

 Your ORCA version has been built with support for libXC version: 5.1.0
 For citations please refer to: https://tddft.org/programs/libxc/

 This ORCA versions uses:
   CBLAS   interface :  Fast vector & matrix operations
   LAPACKE interface :  Fast linear algebra routines
   SCALAPACK package :  Parallel linear algebra routines
   Shared memory     :  Shared parallel matrices
   BLAS/LAPACK       :  OpenBLAS 0.3.15  USE64BITINT DYNAMIC_ARCH NO_AFFINITY Zen SINGLE_THREADED
        Core in use  :  Zen
   Copyright (c) 2011-2014, The OpenBLAS Project


Your calculation utilizes the atom-pairwise dispersion correction
based on tight binding partial charges (D4)
Cite in your paper:
E.Caldeweyher, C.Bannwarth, S.Grimme, J.Chem.Phys., (2017), 147, 034112.
E.Caldeweyher, S.Ehlert, A.Hansen, H.Neugebauer, S.Grimme, J.Chem.Phys., (2018), in progress.
   

================================================================================

----- Orbital basis set information -----
Your calculation utilizes the basis: pcSseg-1
   F. Jensen, J. Chem. Theory Comput. 11, 132 (2015).

----- AuxJ basis set information -----
Your calculation utilizes the auxiliary basis: def2/J
   F. Weigend, Phys. Chem. Chem. Phys. 8, 1057 (2006).

================================================================================
                                        WARNINGS
                       Please study these warnings very carefully!
================================================================================



WARNING: Found flag for RIJCOSX approximation but no HF exchange needed!
  ===> : RIJCOSX  will be disabled and Split-RI-J is turned on

INFO   : the flag for use of the SHARK integral package has been found!

================================================================================
                                       INPUT FILE
================================================================================
NAME = inpS
|  1> ! revTPSS
|  2> ! D4
|  3> ! pcSseg-1
|  4> ! def2/J RIJCOSX
|  5> ! DEFGRID2
|  6> ! scfconv7
|  7> ! smallprint printgap noloewdin
|  8> ! NOSOSCF
|  9> %MaxCore 4000
| 10> %output
| 11>        print[P_BondOrder_M] 1
| 12>        print[P_Mayer] 1
| 13>        print[P_basis] 2
| 14> end
| 15> %pal
| 16>     nprocs 4
| 17> end
| 18> ! CPCM(chloroform)
| 19> *xyz 0 1
| 20> C   -5.0189868000   0.2153575400  -0.4555325000
| 21> C   -6.4713089300  -0.1771372400  -0.5902152600
| 22> C   -7.3568136300   0.7430517200   0.2597138200
| 23> H   -6.6198451600  -1.2211845500  -0.2921013900
| 24> H   -6.7895759400  -0.0750919700  -1.6383337800
| 25> C   -4.7523207700   1.6405540300  -0.7511499700
| 26> C   -5.6624839400   2.6094187500  -0.0292511000
| 27> C   -7.1387248000   2.2027834800  -0.1415341400
| 28> H   -5.5124809200   3.6253343000  -0.4099132700
| 29> H   -5.3802899200   2.6204159700   1.0345772200
| 30> H   -7.4767889100   2.3297647200  -1.1790427500
| 31> H   -7.7568669600   2.8522232800   0.4890236200
| 32> O   -7.1093968800   0.5344082800   1.6601104500
| 33> H   -8.4104465200   0.4762734600   0.1108791000
| 34> C   -4.0883556000  -0.6724272300  -0.0312634500
| 35> C   -3.8142862100   2.0450549100  -1.6144406300
| 36> H   -3.1817854100   1.3324285900  -2.1370943900
| 37> H   -3.6655060700   3.1016479200  -1.8244402200
| 38> C   -2.6977009500  -0.3859854800   0.2366168300
| 39> H   -4.4386651000  -1.6874270700   0.1524641700
| 40> C   -1.7413368400  -1.2832335100   0.5573100600
| 41> H   -2.4117479500   0.6619634600   0.1812110200
| 42> C   -1.9309480300  -2.7754514000   0.6511310400
| 43> C   -0.9375824800  -3.5267959800  -0.2563812900
| 44> H   -2.9529442800  -3.0817588300   0.4124430600
| 45> H   -1.7377360800  -3.0768004600   1.6929594900
| 46> C    0.5152290400  -3.0827389000  -0.0387329100
| 47> H   -1.2218096500  -3.3684226400  -1.3044146400
| 48> H   -1.0237775500  -4.6041999900  -0.0694139800
| 49> C    0.6764686400  -1.5625706700  -0.1762952700
| 50> H    1.1583135800  -3.6181236400  -0.7445462400
| 51> H    0.8352757300  -3.3757661900   0.9725706800
| 52> C   -0.3197172300  -0.8953021800   0.8262759600
| 53> H   -0.0575203100  -1.3328036800   1.8069713400
| 54> C    0.1058757300   0.5691068600   0.8570189700
| 55> H   -6.1523213000   0.4558328000   1.7801931500
| 56> C    1.6466865900   0.5037865000   0.7169337400
| 57> H   -0.2171743400   1.0720715100   1.7743748700
| 58> H   -0.3304693600   1.1195828800   0.0162298500
| 59> C    2.0128352800  -0.9664276300   0.3484929800
| 60> H    2.1512541800   0.8078090000   1.6393130900
| 61> H    1.9894621300   1.1877587700  -0.0688301100
| 62> H    2.2558616800  -1.5088080300   1.2765411200
| 63> C    3.2702960000  -1.0448121700  -0.5512731800
| 64> C    0.3985125500  -1.1029485400  -1.6139589000
| 65> H    0.6181538900  -0.0388017300  -1.7466235700
| 66> H   -0.6498042900  -1.2556057300  -1.8887689300
| 67> H    1.0172482800  -1.6605137200  -2.3255264200
| 68> H    3.0442256400  -0.4704064900  -1.4651521300
| 69> C    3.6362724300  -2.4698454100  -0.9625123100
| 70> C    4.4045571400  -0.3236127800   0.1404010400
| 71> C    5.5177595700  -0.8803469300   0.6208710700
| 72> H    4.2581520700   0.7484257900   0.2638747600
| 73> H    5.6592222400  -1.9544891800   0.5044326400
| 74> C    6.6365009800  -0.1701112400   1.3379798400
| 75> C    6.3669549100   1.3115794800   1.5968649800
| 76> C    8.0075739300  -0.3918179100   0.6365778900
| 77> H    6.7344812500  -0.6602290200   2.3220080100
| 78> H    8.7471117700   0.1460676500   1.2492964100
| 79> C    8.0491598200   0.1898794700  -0.7776480500
| 80> C    8.4120161900  -1.8682625500   0.6160520700
| 81> H    6.2154916800   1.8710551700   0.6677394600
| 82> H    7.2138325000   1.7620536700   2.1257451700
| 83> H    5.4714334900   1.4460431900   2.2130503400
| 84> H    7.8413829400   1.2644380400  -0.7872787600
| 85> H    7.3085189400  -0.3032466300  -1.4186439000
| 86> H    9.0375149700   0.0373604900  -1.2254647100
| 87> H    8.3271551000  -2.3212668500   1.6108266100
| 88> H    9.4500689800  -1.9762957700   0.2825857500
| 89> H    7.7858198400  -2.4449455600  -0.0743049700
| 90> H    2.8877430000  -2.8896929100  -1.6373393800
| 91> H    3.7129917000  -3.1312668300  -0.0913560400
| 92> H    4.5994577200  -2.4840746300  -1.4842795600
| 93> *
| 94> %eprnmr
| 95>  Nuclei = all H { shift }
| 96>  origin giao
| 97>  giao_2el giao_2el_same_as_scf
| 98>  giao_1el giao_1el_analytic
| 99> end
|100> 
|101>                          ****END OF INPUT****
================================================================================

                       ****************************
                       * Single Point Calculation *
                       ****************************

---------------------------------
CARTESIAN COORDINATES (ANGSTROEM)
---------------------------------
  C     -5.018987    0.215358   -0.455532
  C     -6.471309   -0.177137   -0.590215
  C     -7.356814    0.743052    0.259714
  H     -6.619845   -1.221185   -0.292101
  H     -6.789576   -0.075092   -1.638334
  C     -4.752321    1.640554   -0.751150
  C     -5.662484    2.609419   -0.029251
  C     -7.138725    2.202783   -0.141534
  H     -5.512481    3.625334   -0.409913
  H     -5.380290    2.620416    1.034577
  H     -7.476789    2.329765   -1.179043
  H     -7.756867    2.852223    0.489024
  O     -7.109397    0.534408    1.660110
  H     -8.410447    0.476273    0.110879
  C     -4.088356   -0.672427   -0.031263
  C     -3.814286    2.045055   -1.614441
  H     -3.181785    1.332429   -2.137094
  H     -3.665506    3.101648   -1.824440
  C     -2.697701   -0.385985    0.236617
  H     -4.438665   -1.687427    0.152464
  C     -1.741337   -1.283234    0.557310
  H     -2.411748    0.661963    0.181211
  C     -1.930948   -2.775451    0.651131
  C     -0.937582   -3.526796   -0.256381
  H     -2.952944   -3.081759    0.412443
  H     -1.737736   -3.076800    1.692959
  C      0.515229   -3.082739   -0.038733
  H     -1.221810   -3.368423   -1.304415
  H     -1.023778   -4.604200   -0.069414
  C      0.676469   -1.562571   -0.176295
  H      1.158314   -3.618124   -0.744546
  H      0.835276   -3.375766    0.972571
  C     -0.319717   -0.895302    0.826276
  H     -0.057520   -1.332804    1.806971
  C      0.105876    0.569107    0.857019
  H     -6.152321    0.455833    1.780193
  C      1.646687    0.503787    0.716934
  H     -0.217174    1.072072    1.774375
  H     -0.330469    1.119583    0.016230
  C      2.012835   -0.966428    0.348493
  H      2.151254    0.807809    1.639313
  H      1.989462    1.187759   -0.068830
  H      2.255862   -1.508808    1.276541
  C      3.270296   -1.044812   -0.551273
  C      0.398513   -1.102949   -1.613959
  H      0.618154   -0.038802   -1.746624
  H     -0.649804   -1.255606   -1.888769
  H      1.017248   -1.660514   -2.325526
  H      3.044226   -0.470406   -1.465152
  C      3.636272   -2.469845   -0.962512
  C      4.404557   -0.323613    0.140401
  C      5.517760   -0.880347    0.620871
  H      4.258152    0.748426    0.263875
  H      5.659222   -1.954489    0.504433
  C      6.636501   -0.170111    1.337980
  C      6.366955    1.311579    1.596865
  C      8.007574   -0.391818    0.636578
  H      6.734481   -0.660229    2.322008
  H      8.747112    0.146068    1.249296
  C      8.049160    0.189879   -0.777648
  C      8.412016   -1.868263    0.616052
  H      6.215492    1.871055    0.667739
  H      7.213832    1.762054    2.125745
  H      5.471433    1.446043    2.213050
  H      7.841383    1.264438   -0.787279
  H      7.308519   -0.303247   -1.418644
  H      9.037515    0.037360   -1.225465
  H      8.327155   -2.321267    1.610827
  H      9.450069   -1.976296    0.282586
  H      7.785820   -2.444946   -0.074305
  H      2.887743   -2.889693   -1.637339
  H      3.712992   -3.131267   -0.091356
  H      4.599458   -2.484075   -1.484280

----------------------------
CARTESIAN COORDINATES (A.U.)
----------------------------
  NO LB      ZA    FRAG     MASS         X           Y           Z
   0 C     6.0000    0    12.011   -9.484511    0.406967   -0.860832
   1 C     6.0000    0    12.011  -12.229002   -0.334741   -1.115345
   2 C     6.0000    0    12.011  -13.902363    1.404164    0.490788
   3 H     1.0000    0     1.008  -12.509694   -2.307704   -0.551992
   4 H     1.0000    0     1.008  -12.830439   -0.141903   -3.096002
   5 C     6.0000    0    12.011   -8.980585    3.100198   -1.419468
   6 C     6.0000    0    12.011  -10.700544    4.931087   -0.055277
   7 C     6.0000    0    12.011  -13.490235    4.162658   -0.267461
   8 H     1.0000    0     1.008  -10.417079    6.850889   -0.774624
   9 H     1.0000    0     1.008  -10.167274    4.951869    1.955068
  10 H     1.0000    0     1.008  -14.129083    4.402617   -2.228068
  11 H     1.0000    0     1.008  -14.658354    5.389921    0.924121
  12 O     8.0000    0    15.999  -13.434813    1.009885    3.137154
  13 H     1.0000    0     1.008  -15.893441    0.900026    0.209531
  14 C     6.0000    0    12.011   -7.725872   -1.270703   -0.059079
  15 C     6.0000    0    12.011   -7.207956    3.864594   -3.050851
  16 H     1.0000    0     1.008   -6.012703    2.517925   -4.038523
  17 H     1.0000    0     1.008   -6.926803    5.861265   -3.447692
  18 C     6.0000    0    12.011   -5.097916   -0.729407    0.447141
  19 H     1.0000    0     1.008   -8.387861   -3.188775    0.288116
  20 C     6.0000    0    12.011   -3.290650   -2.424960    1.053163
  21 H     1.0000    0     1.008   -4.557543    1.250930    0.342439
  22 C     6.0000    0    12.011   -3.648963   -5.244843    1.230459
  23 C     6.0000    0    12.011   -1.771774   -6.664679   -0.484490
  24 H     1.0000    0     1.008   -5.580256   -5.823680    0.779404
  25 H     1.0000    0     1.008   -3.283845   -5.814310    3.199230
  26 C     6.0000    0    12.011    0.973642   -5.825532   -0.073195
  27 H     1.0000    0     1.008   -2.308886   -6.365396   -2.464986
  28 H     1.0000    0     1.008   -1.934659   -8.700677   -0.131173
  29 C     6.0000    0    12.011    1.278340   -2.952831   -0.333150
  30 H     1.0000    0     1.008    2.188895   -6.837263   -1.406988
  31 H     1.0000    0     1.008    1.578442   -6.379274    1.837892
  32 C     6.0000    0    12.011   -0.604178   -1.691876    1.561435
  33 H     1.0000    0     1.008   -0.108698   -2.518634    3.414681
  34 C     6.0000    0    12.011    0.200076    1.075456    1.619531
  35 H     1.0000    0     1.008  -11.626202    0.861399    3.364078
  36 C     6.0000    0    12.011    3.111787    0.952019    1.354808
  37 H     1.0000    0     1.008   -0.410400    2.025922    3.353083
  38 H     1.0000    0     1.008   -0.624497    2.115705    0.030670
  39 C     6.0000    0    12.011    3.803707   -1.826284    0.658556
  40 H     1.0000    0     1.008    4.065281    1.526538    3.097853
  41 H     1.0000    0     1.008    3.759539    2.244539   -0.130070
  42 H     1.0000    0     1.008    4.262961   -2.851234    2.412313
  43 C     6.0000    0    12.011    6.179964   -1.974409   -1.041755
  44 C     6.0000    0    12.011    0.753080   -2.084271   -3.049940
  45 H     1.0000    0     1.008    1.168142   -0.073325   -3.300640
  46 H     1.0000    0     1.008   -1.227952   -2.372751   -3.569256
  47 H     1.0000    0     1.008    1.922321   -3.137916   -4.394608
  48 H     1.0000    0     1.008    5.752753   -0.888939   -2.768736
  49 C     6.0000    0    12.011    6.871559   -4.667331   -1.818885
  50 C     6.0000    0    12.011    8.323407   -0.611540    0.265320
  51 C     6.0000    0    12.011   10.427054   -1.663615    1.173276
  52 H     1.0000    0     1.008    8.046741    1.414320    0.498651
  53 H     1.0000    0     1.008   10.694380   -3.693449    0.953240
  54 C     6.0000    0    12.011   12.541169   -0.321464    2.528415
  55 C     6.0000    0    12.011   12.031801    2.478526    3.017637
  56 C     6.0000    0    12.011   15.132122   -0.740429    1.202958
  57 H     1.0000    0     1.008   12.726325   -1.247652    4.387959
  58 H     1.0000    0     1.008   16.529646    0.276028    2.360828
  59 C     6.0000    0    12.011   15.210708    0.358820   -1.469542
  60 C     6.0000    0    12.011   15.896407   -3.530505    1.164170
  61 H     1.0000    0     1.008   11.745577    3.535782    1.261845
  62 H     1.0000    0     1.008   13.632168    3.329799    4.017076
  63 H     1.0000    0     1.008   10.339511    2.732626    4.182059
  64 H     1.0000    0     1.008   14.818066    2.389442   -1.487741
  65 H     1.0000    0     1.008   13.811099   -0.573053   -2.680848
  66 H     1.0000    0     1.008   17.078428    0.070601   -2.315793
  67 H     1.0000    0     1.008   15.736043   -4.386559    3.044021
  68 H     1.0000    0     1.008   17.858042   -3.734658    0.534010
  69 H     1.0000    0     1.008   14.713067   -4.620278   -0.140416
  70 H     1.0000    0     1.008    5.457043   -5.460728   -3.094123
  71 H     1.0000    0     1.008    7.016537   -5.917237   -0.172638
  72 H     1.0000    0     1.008    8.691715   -4.694221   -2.804882

--------------------------------
INTERNAL COORDINATES (ANGSTROEM)
--------------------------------
 C      0   0   0     0.000000000000     0.00000000     0.00000000
 C      1   0   0     1.510440719610     0.00000000     0.00000000
 C      2   1   0     1.534029249023   110.47218563     0.00000000
 H      2   1   3     1.095887620437   110.70952143   237.85889500
 H      2   1   3     1.100117974924   109.81719660   118.74046596
 C      1   2   3     1.479758593566   113.93717462   306.13500359
 C      6   1   2     1.512690920245   114.40019513    49.80834959
 C      3   2   1     1.529503015469   110.17148666    56.73775129
 H      7   6   1     1.095211850927   110.23304057   188.70555502
 H      7   6   1     1.100674837636   108.26365898    72.03587022
 H      8   3   2     1.098560737331   108.31229505    64.42944452
 H      8   3   2     1.096118092401   109.52013987   181.43116844
 O      3   2   1     1.437309241100   110.69416909   292.70429365
 H      3   2   1     1.097025378365   109.47321296   177.18101007
 C      1   2   3     1.354341336239   121.21846913   122.88568970
 C      6   1   2     1.337460489629   123.13589302   231.76985575
 H     16   6   1     1.086766068112   121.35201799   359.00672301
 H     16   6   1     1.087485239734   120.96038045   178.40279465
 C     15   1   2     1.444897600566   126.12000706   185.22586648
 H     15   1   2     1.089356350944   116.27196419     3.15246875
 C     19  15   1     1.350011291065   126.44857834   185.61500856
 H     19  15   1     1.087674539023   115.75936351     6.34465066
 C     21  19  15     1.507139346875   125.71161236     2.31130987
 C     23  21  19     1.541062108717   111.40561146   124.46102361
 H     23  21  19     1.093285199975   112.42118087     0.83431514
 H     23  21  19     1.101611834003   107.91776537   242.96744723
 C     24  23  21     1.534672219159   112.68258854    51.26533990
 H     24  23  21     1.097379196860   108.97100867   289.12105720
 H     24  23  21     1.096898247726   109.13867187   173.18354199
 C     27  24  23     1.534872326612   111.92017710   306.26758372
 H     27  24  23     1.094699503159   108.85448691   182.69172904
 H     27  24  23     1.100468003902   109.18370222    66.27597839
 C     21  19  15     1.497943819939   122.87777217   180.30843407
 H     33  21  19     1.105404096117   106.37428356   127.34538453
 C     33  21  19     1.525309259363   121.13516935     4.80944505
 H     13   3   2     0.967774574335   107.63285801    42.44706872
 C     35  33  21     1.548544066983   103.60968833   197.02157408
 H     35  33  21     1.094932250937   112.06017970    75.03819691
 H     35  33  21     1.095603591849   110.84170064   315.40355449
 C     30  27  24     1.554562648459   116.09472397   166.00682743
 H     37  35  33     1.094441318066   111.76293557   248.89148520
 H     37  35  33     1.096694107269   110.45674693   130.32555871
 H     40  30  27     1.102048855341   106.56588602   320.59976836
 C     40  30  27     1.548202422532   118.85541964    80.85513769
 C     30  27  24     1.534727599080   111.19496618   294.05866091
 H     45  30  27     1.094646365790   111.61242036   186.28423167
 H     45  30  27     1.094437283390   111.52593095    66.27789407
 H     45  30  27     1.095463905862   110.71706908   306.15100543
 H     44  40  30     1.102825656276   106.78198708    61.85298779
 C     44  40  30     1.527670155650   113.46889059   302.76982001
 C     44  40  30     1.511651454689   108.62425395   176.38477159
 C     51  44  40     1.334175405883   126.28229343   113.16747037
 H     51  44  40     1.089011891404   114.87635443   294.70176575
 H     52  51  44     1.089656445041   118.76281505     1.06361653
 C     52  51  44     1.506738884415   126.45667042   181.46297953
 C     55  52  51     1.528098160885   113.99883872     4.55237131
 C     55  52  51     1.555943307839   111.87360802   236.59118808
 H     55  52  51     1.103687913740   106.31545420   122.39252827
 H     57  55  52     1.100754776142   105.75160666   181.20660389
 C     57  55  52     1.529750384054   112.73800946    63.29989328
 C     57  55  52     1.530974730668   112.10121442   298.10051369
 H     56  55  52     1.095092868052   112.08825829   299.63842537
 H     56  55  52     1.095373408329   110.13205890   179.56898932
 H     56  55  52     1.095318903728   111.01169980    59.93233417
 H     60  57  55     1.094504501041   112.10472786    58.32808538
 H     60  57  55     1.096630267385   110.54977996   297.83552263
 H     60  57  55     1.095740709641   110.45164159   178.45991114
 H     61  57  55     1.096353358113   111.46065408   310.15118756
 H     61  57  55     1.095638881213   110.45427324   190.10491064
 H     61  57  55     1.096028286794   111.40330924    70.92986962
 H     50  44  40     1.091769117184   111.15312169    67.89776007
 H     50  44  40     1.096484102933   111.44330933   307.51789831
 H     50  44  40     1.095522449221   110.54552324   187.39941487

---------------------------
INTERNAL COORDINATES (A.U.)
---------------------------
 C      0   0   0     0.000000000000     0.00000000     0.00000000
 C      1   0   0     2.854319301586     0.00000000     0.00000000
 C      2   1   0     2.898895162078   110.47218563     0.00000000
 H      2   1   3     2.070927476181   110.70952143   237.85889500
 H      2   1   3     2.078921687610   109.81719660   118.74046596
 C      1   2   3     2.796338486157   113.93717462   306.13500359
 C      6   1   2     2.858571564533   114.40019513    49.80834959
 C      3   2   1     2.890341820242   110.17148666    56.73775129
 H      7   6   1     2.069650456876   110.23304057   188.70555502
 H      7   6   1     2.079974005631   108.26365898    72.03587022
 H      8   3   2     2.075978935035   108.31229505    64.42944452
 H      8   3   2     2.071363005075   109.52013987   181.43116844
 O      3   2   1     2.716120835433   110.69416909   292.70429365
 H      3   2   1     2.073077527070   109.47321296   177.18101007
 C      1   2   3     2.559334217340   121.21846913   122.88568970
 C      6   1   2     2.527434040339   123.13589302   231.76985575
 H     16   6   1     2.053690240370   121.35201799   359.00672301
 H     16   6   1     2.055049277779   120.96038045   178.40279465
 C     15   1   2     2.730460756630   126.12000706   185.22586648
 H     15   1   2     2.058585165531   116.27196419     3.15246875
 C     19  15   1     2.551151617814   126.44857834   185.61500856
 H     19  15   1     2.055407001592   115.75936351     6.34465066
 C     21  19  15     2.848080611250   125.71161236     2.31130987
 C     23  21  19     2.912185340839   111.40561146   124.46102361
 H     23  21  19     2.066009614222   112.42118087     0.83431514
 H     23  21  19     2.081744672152   107.91776537   242.96744723
 C     24  23  21     2.900110199548   112.68258854    51.26533990
 H     24  23  21     2.073746147128   108.97100867   289.12105720
 H     24  23  21     2.072837284981   109.13867187   173.18354199
 C     27  24  23     2.900488347831   111.92017710   306.26758372
 H     27  24  23     2.068682259911   108.85448691   182.69172904
 H     27  24  23     2.079583146517   109.18370222    66.27597839
 C     21  19  15     2.830703583685   122.87777217   180.30843407
 H     33  21  19     2.088911008977   106.37428356   127.34538453
 C     33  21  19     2.882416769731   121.13516935     4.80944505
 H     13   3   2     1.828828904865   107.63285801    42.44706872
 C     35  33  21     2.926324192907   103.60968833   197.02157408
 H     35  33  21     2.069122089468   112.06017970    75.03819691
 H     35  33  21     2.070390739935   110.84170064   315.40355449
 C     30  27  24     2.937697663611   116.09472397   166.00682743
 H     37  35  33     2.068194360793   111.76293557   248.89148520
 H     37  35  33     2.072451515423   110.45674693   130.32555871
 H     40  30  27     2.082570522796   106.56588602   320.59976836
 C     40  30  27     2.925678578460   118.85541964    80.85513769
 C     30  27  24     2.900214852432   111.19496618   294.05866091
 H     45  30  27     2.068581844835   111.61242036   186.28423167
 H     45  30  27     2.068186736361   111.52593095    66.27789407
 H     45  30  27     2.070126771675   110.71706908   306.15100543
 H     44  40  30     2.084038463823   106.78198708    61.85298779
 C     44  40  30     2.886878217143   113.46889059   302.76982001
 C     44  40  30     2.856607259306   108.62425395   176.38477159
 C     51  44  40     2.521226131732   126.28229343   113.16747037
 H     51  44  40     2.057934231338   114.87635443   294.70176575
 H     52  51  44     2.059152261190   118.76281505     1.06361653
 C     52  51  44     2.847323846875   126.45667042   181.46297953
 C     55  52  51     2.887687029821   113.99883872     4.55237131
 C     55  52  51     2.940306731723   111.87360802   236.59118808
 H     55  52  51     2.085667894287   106.31545420   122.39252827
 H     57  55  52     2.080125067514   105.75160666   181.20660389
 C     57  55  52     2.890809279124   112.73800946    63.29989328
 C     57  55  52     2.893122958917   112.10121442   298.10051369
 H     56  55  52     2.069425611829   112.08825829   299.63842537
 H     56  55  52     2.069955756122   110.13205890   179.56898932
 H     56  55  52     2.069852757353   111.01169980    59.93233417
 H     60  57  55     2.068313759311   112.10472786    58.32808538
 H     60  57  55     2.072330875527   110.54977996   297.83552263
 H     60  57  55     2.070649855011   110.45164159   178.45991114
 H     61  57  55     2.071807592839   111.46065408   310.15118756
 H     61  57  55     2.070457427168   110.45427324   190.10491064
 H     61  57  55     2.071193297072   111.40330924    70.92986962
 H     50  44  40     2.063144632951   111.15312169    67.89776007
 H     50  44  40     2.072054664741   111.44330933   307.51789831
 H     50  44  40     2.070237402590   110.54552324   187.39941487

---------------------
BASIS SET INFORMATION
---------------------
There are 3 groups of distinct atoms

 Group   1 Type C   : 8s5p1d contracted to 3s3p1d pattern {521/311/1}
 Group   2 Type H   : 4s2p contracted to 2s1p pattern {31/2}
 Group   3 Type O   : 8s5p1d contracted to 3s3p1d pattern {521/311/1}

Atom   0C    basis set group =>   1
Atom   1C    basis set group =>   1
Atom   2C    basis set group =>   1
Atom   3H    basis set group =>   2
Atom   4H    basis set group =>   2
Atom   5C    basis set group =>   1
Atom   6C    basis set group =>   1
Atom   7C    basis set group =>   1
Atom   8H    basis set group =>   2
Atom   9H    basis set group =>   2
Atom  10H    basis set group =>   2
Atom  11H    basis set group =>   2
Atom  12O    basis set group =>   3
Atom  13H    basis set group =>   2
Atom  14C    basis set group =>   1
Atom  15C    basis set group =>   1
Atom  16H    basis set group =>   2
Atom  17H    basis set group =>   2
Atom  18C    basis set group =>   1
Atom  19H    basis set group =>   2
Atom  20C    basis set group =>   1
Atom  21H    basis set group =>   2
Atom  22C    basis set group =>   1
Atom  23C    basis set group =>   1
Atom  24H    basis set group =>   2
Atom  25H    basis set group =>   2
Atom  26C    basis set group =>   1
Atom  27H    basis set group =>   2
Atom  28H    basis set group =>   2
Atom  29C    basis set group =>   1
Atom  30H    basis set group =>   2
Atom  31H    basis set group =>   2
Atom  32C    basis set group =>   1
Atom  33H    basis set group =>   2
Atom  34C    basis set group =>   1
Atom  35H    basis set group =>   2
Atom  36C    basis set group =>   1
Atom  37H    basis set group =>   2
Atom  38H    basis set group =>   2
Atom  39C    basis set group =>   1
Atom  40H    basis set group =>   2
Atom  41H    basis set group =>   2
Atom  42H    basis set group =>   2
Atom  43C    basis set group =>   1
Atom  44C    basis set group =>   1
Atom  45H    basis set group =>   2
Atom  46H    basis set group =>   2
Atom  47H    basis set group =>   2
Atom  48H    basis set group =>   2
Atom  49C    basis set group =>   1
Atom  50C    basis set group =>   1
Atom  51C    basis set group =>   1
Atom  52H    basis set group =>   2
Atom  53H    basis set group =>   2
Atom  54C    basis set group =>   1
Atom  55C    basis set group =>   1
Atom  56C    basis set group =>   1
Atom  57H    basis set group =>   2
Atom  58H    basis set group =>   2
Atom  59C    basis set group =>   1
Atom  60C    basis set group =>   1
Atom  61H    basis set group =>   2
Atom  62H    basis set group =>   2
Atom  63H    basis set group =>   2
Atom  64H    basis set group =>   2
Atom  65H    basis set group =>   2
Atom  66H    basis set group =>   2
Atom  67H    basis set group =>   2
Atom  68H    basis set group =>   2
Atom  69H    basis set group =>   2
Atom  70H    basis set group =>   2
Atom  71H    basis set group =>   2
Atom  72H    basis set group =>   2

-------------------------
BASIS SET IN INPUT FORMAT
-------------------------

 # Basis set for element : H 
 NewGTO H 
 S 3 
   1      12.2518000000      0.0372173893
   2       1.8687100000      0.2538082070
   3       0.4182080000      0.7973867639
 S 1 
   1       0.1061000000      1.0000000000
 P 2 
   1       9.0000000000      0.0402678705
   2       1.0000000000      0.9880231245
  end;

 # Basis set for element : C 
 NewGTO C 
 S 5 
   1    1243.2000000000      0.0056300977
   2     187.1450000000      0.0419506039
   3      42.5126000000      0.1846643605
   4      11.7393000000      0.4665574214
   5       3.5054800000      0.4482347783
 S 2 
   1       5.3908900000     -0.1481148174
   2       0.4933410000      1.0519817143
 S 1 
   1       0.1497410000      1.0000000000
 P 3 
   1      59.6736000000      0.0113906672
   2       9.1805600000      0.1672414929
   3       1.9365800000      0.9041087436
 P 1 
   1       0.5262960000      1.0000000000
 P 1 
   1       0.1363190000      1.0000000000
 D 1 
   1       0.8000000000      1.0000000000
  end;

 # Basis set for element : O 
 NewGTO O 
 S 5 
   1    2288.6400000000      0.0054511382
   2     344.4160000000      0.0407189228
   3      78.2538000000      0.1813694209
   4      21.7195000000      0.4655368202
   5       6.5590700000      0.4512113212
 S 2 
   1      10.4656000000     -0.1502112012
   2       0.9643510000      1.0528679834
 S 1 
   1       0.2851270000      1.0000000000
 P 3 
   1     110.8840000000      0.0113058003
   2      17.0590000000      0.1699226452
   3       3.6899900000      0.9008060328
 P 1 
   1       0.9929960000      1.0000000000
 P 1 
   1       0.2449240000      1.0000000000
 D 1 
   1       1.0000000000      1.0000000000
  end;

---------------------------------
AUXILIARY/J BASIS SET INFORMATION
---------------------------------
There are 3 groups of distinct atoms

 Group   1 Type C   : 12s5p4d2f1g contracted to 6s4p3d1f1g pattern {711111/2111/211/2/1}
 Group   2 Type H   : 5s2p1d contracted to 3s1p1d pattern {311/2/1}
 Group   3 Type O   : 12s5p4d2f1g contracted to 6s4p3d1f1g pattern {711111/2111/211/2/1}

Atom   0C    basis set group =>   1
Atom   1C    basis set group =>   1
Atom   2C    basis set group =>   1
Atom   3H    basis set group =>   2
Atom   4H    basis set group =>   2
Atom   5C    basis set group =>   1
Atom   6C    basis set group =>   1
Atom   7C    basis set group =>   1
Atom   8H    basis set group =>   2
Atom   9H    basis set group =>   2
Atom  10H    basis set group =>   2
Atom  11H    basis set group =>   2
Atom  12O    basis set group =>   3
Atom  13H    basis set group =>   2
Atom  14C    basis set group =>   1
Atom  15C    basis set group =>   1
Atom  16H    basis set group =>   2
Atom  17H    basis set group =>   2
Atom  18C    basis set group =>   1
Atom  19H    basis set group =>   2
Atom  20C    basis set group =>   1
Atom  21H    basis set group =>   2
Atom  22C    basis set group =>   1
Atom  23C    basis set group =>   1
Atom  24H    basis set group =>   2
Atom  25H    basis set group =>   2
Atom  26C    basis set group =>   1
Atom  27H    basis set group =>   2
Atom  28H    basis set group =>   2
Atom  29C    basis set group =>   1
Atom  30H    basis set group =>   2
Atom  31H    basis set group =>   2
Atom  32C    basis set group =>   1
Atom  33H    basis set group =>   2
Atom  34C    basis set group =>   1
Atom  35H    basis set group =>   2
Atom  36C    basis set group =>   1
Atom  37H    basis set group =>   2
Atom  38H    basis set group =>   2
Atom  39C    basis set group =>   1
Atom  40H    basis set group =>   2
Atom  41H    basis set group =>   2
Atom  42H    basis set group =>   2
Atom  43C    basis set group =>   1
Atom  44C    basis set group =>   1
Atom  45H    basis set group =>   2
Atom  46H    basis set group =>   2
Atom  47H    basis set group =>   2
Atom  48H    basis set group =>   2
Atom  49C    basis set group =>   1
Atom  50C    basis set group =>   1
Atom  51C    basis set group =>   1
Atom  52H    basis set group =>   2
Atom  53H    basis set group =>   2
Atom  54C    basis set group =>   1
Atom  55C    basis set group =>   1
Atom  56C    basis set group =>   1
Atom  57H    basis set group =>   2
Atom  58H    basis set group =>   2
Atom  59C    basis set group =>   1
Atom  60C    basis set group =>   1
Atom  61H    basis set group =>   2
Atom  62H    basis set group =>   2
Atom  63H    basis set group =>   2
Atom  64H    basis set group =>   2
Atom  65H    basis set group =>   2
Atom  66H    basis set group =>   2
Atom  67H    basis set group =>   2
Atom  68H    basis set group =>   2
Atom  69H    basis set group =>   2
Atom  70H    basis set group =>   2
Atom  71H    basis set group =>   2
Atom  72H    basis set group =>   2

-------------------------------------
AUXILIARY/J BASIS SET IN INPUT FORMAT
-------------------------------------

 # Auxiliary/J basis set for element : H 
 NewAuxJGTO H 
 S 3 
   1      15.6752927000      0.1007184237
   2       3.6063578000      0.3404257499
   3       1.2080016000      0.6491996172
 S 1 
   1       0.4726794000      1.0000000000
 S 1 
   1       0.2018100000      1.0000000000
 P 2 
   1       2.0281365000      0.5596620919
   2       0.5358730000      0.5596620919
 D 1 
   1       2.2165124000      1.0000000000
  end;

 # Auxiliary/J basis set for element : C 
 NewAuxJGTO C 
 S 7 
   1    1861.0916331000      0.0134602335
   2     642.9939764000      0.0299160374
   3     235.1105725000      0.1008649584
   4      90.7028894000      0.2370970548
   5      36.7794552000      0.3924037254
   6      15.6046273000      0.3195862154
   7       6.8907294000      0.0530104441
 S 1 
   1       3.1478850000     -1.0000000000
 S 1 
   1       1.4777287000      1.0000000000
 S 1 
   1       0.7076466000      1.0000000000
 S 1 
   1       0.3430122000      1.0000000000
 S 1 
   1       0.1669453000      1.0000000000
 P 2 
   1      13.5472892000     -0.6769313712
   2       5.4669419000     -0.3779500978
 P 1 
   1       2.1751721000      1.0000000000
 P 1 
   1       0.8582194000      1.0000000000
 P 1 
   1       0.3376720000      1.0000000000
 D 2 
   1       5.9287253000     -0.3533329857
   2       1.9809209000     -0.7456525731
 D 1 
   1       0.8055417000     -1.0000000000
 D 1 
   1       0.3531244000     -1.0000000000
 F 2 
   1       1.6755626000      0.6311076882
   2       0.5997536000      0.4968166032
 G 1 
   1       1.0024600000     -1.0000000000
  end;

 # Auxiliary/J basis set for element : O 
 NewAuxJGTO O 
 S 7 
   1    2876.8216605000      0.0168151159
   2    1004.7443032000      0.0340137548
   3     369.7579954000      0.1194951309
   4     142.9442404000      0.2664627624
   5      57.8366425000      0.4202764046
   6      24.3864983000      0.2765077335
   7      10.6622662000      0.0057008815
 S 1 
   1       4.8070437000     -1.0000000000
 S 1 
   1       2.2210770000      1.0000000000
 S 1 
   1       1.0447795000      1.0000000000
 S 1 
   1       0.4968425000      1.0000000000
 S 1 
   1       0.2371384000      1.0000000000
 P 2 
   1      64.2613382000     -0.2731534179
   2      16.3006076000     -0.8168011598
 P 1 
   1       4.3550542000      1.0000000000
 P 1 
   1       1.2019554000      1.0000000000
 P 1 
   1       0.3354196000      1.0000000000
 D 2 
   1       9.2146611000     -0.4661230638
   2       2.8435251000     -0.6600908911
 D 1 
   1       0.9955759000     -1.0000000000
 D 1 
   1       0.3649441000     -1.0000000000
 F 2 
   1       2.6420115000      0.5931563945
   2       0.7345613000      0.5931563945
 G 1 
   1       1.3931000000     -1.0000000000
  end;



           ************************************************************
           *        Program running with 4 parallel MPI-processes     *
           *              working on a common directory               *
           ************************************************************
------------------------------------------------------------------------------
                           ORCA GTO INTEGRAL CALCULATION
                           -- RI-GTO INTEGRALS CHOSEN --
------------------------------------------------------------------------------
------------------------------------------------------------------------------
                   ___                                                        
                  /   \      - P O W E R E D   B Y -                         
                 /     \                                                     
                 |  |  |   _    _      __       _____    __    __             
                 |  |  |  | |  | |    /  \     |  _  \  |  |  /  |          
                  \  \/   | |  | |   /    \    | | | |  |  | /  /          
                 / \  \   | |__| |  /  /\  \   | |_| |  |  |/  /          
                |  |  |   |  __  | /  /__\  \  |    /   |      \           
                |  |  |   | |  | | |   __   |  |    \   |  |\   \          
                \     /   | |  | | |  |  |  |  | |\  \  |  | \   \       
                 \___/    |_|  |_| |__|  |__|  |_| \__\ |__|  \__/        
                                                                              
                      - O R C A' S   B I G   F R I E N D -                    
                                      &                                       
                       - I N T E G R A L  F E E D E R -                       
                                                                              
 v1 FN, 2020, v2 2021                                                         
------------------------------------------------------------------------------


Reading SHARK input file inpS.SHARKINP.tmp ... ok
----------------------
SHARK INTEGRAL PACKAGE
----------------------

Number of atoms                             ...     73
Number of basis functions                   ...    713
Number of shells                            ...    335
Maximum angular momentum                    ...      2
Integral batch strategy                     ... SHARK/LIBINT Hybrid
RI-J (if used) integral strategy            ... SPLIT-RIJ (Revised 2003 algorithm where possible)
Printlevel                                  ...      1
Contraction scheme used                     ... SEGMENTED contraction
Coulomb Range Separation                    ... NOT USED
Exchange Range Separation                   ... NOT USED
Finite Nucleus Model                        ... NOT USED
Auxiliary Coulomb fitting basis             ... AVAILABLE
   # of basis functions in Aux-J            ...   1905
   # of shells in Aux-J                     ...    655
   Maximum angular momentum in Aux-J        ...      4
Auxiliary J/K fitting basis                 ... NOT available
Auxiliary Correlation fitting basis         ... NOT available
Auxiliary 'external' fitting basis          ... NOT available
Integral threshold                          ...     3.000000e-11
Primitive cut-off                           ...     1.000000e-12
Primitive pair pre-selection threshold      ...     1.000000e-12

Calculating pre-screening integrals         ... done (  0.0 sec) Dimension = 335
Organizing shell pair data                  ... done (  0.2 sec)
Shell pair information
Total number of shell pairs                 ...     56280
Shell pairs after pre-screening             ...     31523
Total number of primitive shell pairs       ...    225367
Primitive shell pairs kept                  ...     74194
          la=0 lb=0:   9615 shell pairs
          la=1 lb=0:  12963 shell pairs
          la=1 lb=1:   4232 shell pairs
          la=2 lb=0:   2754 shell pairs
          la=2 lb=1:   1766 shell pairs
          la=2 lb=2:    193 shell pairs

Calculating one electron integrals          ... done (  0.1 sec)
Calculating RI/J V-Matrix + Cholesky decomp.... done (  0.2 sec)
Calculating Nuclear repulsion               ... done (  0.0 sec) ENN=   2777.068677506958 Eh

SHARK setup successfully completed in   0.7 seconds

Maximum memory used throughout the entire GTOINT-calculation: 61.1 MB


           ************************************************************
           *        Program running with 4 parallel MPI-processes     *
           *              working on a common directory               *
           ************************************************************
-------------------------------------------------------------------------------
                                 ORCA SCF
-------------------------------------------------------------------------------

------------
SCF SETTINGS
------------
Hamiltonian:
 Density Functional     Method          .... DFT(GTOs)
 Exchange Functional    Exchange        .... revTPSS
 Correlation Functional Correlation     .... revTPSS
 LDA part of GGA corr.  LDAOpt          .... PW91-LDA
 Gradients option       PostSCFGGA      .... off
   Density functional embedding theory  .... OFF
 RI-approximation to the Coulomb term is turned on
   Number of AuxJ basis functions       .... 1905


General Settings:
 Integral files         IntName         .... inpS
 Hartree-Fock type      HFTyp           .... RHF
 Total Charge           Charge          ....    0
 Multiplicity           Mult            ....    1
 Number of Electrons    NEL             ....  220
 Basis Dimension        Dim             ....  713
 Nuclear Repulsion      ENuc            ....   2777.0686775070 Eh

Convergence Acceleration:
 DIIS                   CNVDIIS         .... on
   Start iteration      DIISMaxIt       ....    12
   Startup error        DIISStart       ....  0.200000
   # of expansion vecs  DIISMaxEq       ....     5
   Bias factor          DIISBfac        ....   1.050
   Max. coefficient     DIISMaxC        ....  10.000
 Trust-Rad. Augm. Hess. CNVTRAH         .... auto
   Auto Start mean grad. ratio tolernc. ....  1.125000
   Auto Start start iteration           ....    20
   Auto Start num. interpolation iter.  ....    10
   Max. Number of Micro iterations      ....    16
   Max. Number of Macro iterations      .... Maxiter - #DIIS iter
   Number of Davidson start vectors     ....     2
   Converg. threshold I  (grad. norm)   ....   1.000e-04
   Converg. threshold II (energy diff.) ....   1.000e-07
   Grad. Scal. Fac. for Micro threshold ....   0.100
   Minimum threshold for Micro iter.    ....   0.010
   NR start threshold (gradient norm)   ....   0.001
   Initial trust radius                 ....   0.400
   Minimum AH scaling param. (alpha)    ....   1.000
   Maximum AH scaling param. (alpha)    .... 1000.000
   Orbital update algorithm             .... Taylor
   White noise on init. David. guess    .... on
   Maximum white noise                  ....   0.010
   Quad. conv. algorithm                .... NR
 SOSCF                  CNVSOSCF        .... off
 Level Shifting         CNVShift        .... on
   Level shift para.    LevelShift      ....    0.2500
   Turn off err/grad.   ShiftErr        ....    0.0010
 Zerner damping         CNVZerner       .... off
 Static damping         CNVDamp         .... on
   Fraction old density DampFac         ....    0.7000
   Max. Damping (<1)    DampMax         ....    0.9800
   Min. Damping (>=0)   DampMin         ....    0.0000
   Turn off err/grad.   DampErr         ....    0.1000
 Fernandez-Rico         CNVRico         .... off

SCF Procedure:
 Maximum # iterations   MaxIter         ....   125
 SCF integral mode      SCFMode         .... Direct
   Integral package                     .... SHARK and LIBINT hybrid scheme
 Reset frequency        DirectResetFreq ....    20
 Integral Threshold     Thresh          ....  3.000e-11 Eh
 Primitive CutOff       TCut            ....  1.000e-12 Eh

Convergence Tolerance:
 Convergence Check Mode ConvCheckMode   .... Total+1el-Energy
 Convergence forced     ConvForced      .... 0
 Energy Change          TolE            ....  1.000e-07 Eh
 1-El. energy change                    ....  1.000e-04 Eh
 DIIS Error             TolErr          ....  1.000e-07


Diagonalization of the overlap matrix:
Smallest eigenvalue                        ... 5.180e-04
Time for diagonalization                   ...    0.064 sec
Threshold for overlap eigenvalues          ... 1.000e-08
Number of eigenvalues below threshold      ... 0
Time for construction of square roots      ...    0.060 sec
Total time needed                          ...    0.126 sec

Time for model grid setup =    0.775 sec

------------------------------
INITIAL GUESS: MODEL POTENTIAL
------------------------------
Loading Hartree-Fock densities                     ... done
Calculating cut-offs                               ... done
Initializing the effective Hamiltonian             ... done
Setting up the integral package (SHARK)            ... done
Starting the Coulomb interaction                   ... done (   0.6 sec)
Reading the grid                                   ... done
Mapping shells                                     ... done
Starting the XC term evaluation                    ... done (   0.3 sec)
  promolecular density results
     # of electrons  =    219.971518153
     EX              =   -164.433593368
     EC              =     -7.328825899
     EX+EC           =   -171.762419267
Transforming the Hamiltonian                       ... done (   0.0 sec)
Diagonalizing the Hamiltonian                      ... done (   0.1 sec)
Back transforming the eigenvectors                 ... done (   0.0 sec)
Now organizing SCF variables                       ... done
                      ------------------
                      INITIAL GUESS DONE (   1.8 sec)
                      ------------------
-------------------
DFT GRID GENERATION
-------------------

General Integration Accuracy     IntAcc      ... 4.388
Radial Grid Type                 RadialGrid  ... OptM3 with GC (2021)
Angular Grid (max. ang.)         AngularGrid ... 4 (Lebedev-302)
Angular grid pruning method      GridPruning ... 4 (adaptive)
Weight generation scheme         WeightScheme... Becke
Basis function cutoff            BFCut       ... 1.0000e-11
Integration weight cutoff        WCut        ... 1.0000e-14
Angular grids for H and He will be reduced by one unit
Partially contracted basis set               ... off
Rotationally invariant grid construction     ... off

Total number of grid points                  ...   309857
Total number of batches                      ...     4880
Average number of points per batch           ...       63
Average number of grid points per atom       ...     4245
Time for grid setup =    2.954 sec


--------------------
CPCM SOLVATION MODEL
--------------------
CPCM parameters:
  Epsilon                                         ...       4.9000
  Refrac                                          ...       1.4500
  Rsolv                                           ...       1.3000
  Surface type                                    ... GAUSSIAN VDW
  Epsilon function type                           ...         CPCM
Radii:
 Radius for C  used is    3.8550 Bohr (=   2.0400 Ang.)
 Radius for H  used is    2.4944 Bohr (=   1.3200 Ang.)
 Radius for O  used is    3.4469 Bohr (=   1.8240 Ang.)
Calculating surface                               ...        done! (  0.0s)
GEPOL surface points                              ...         3609
GEPOL Volume                                      ...    3580.2660
GEPOL Surface-area                                ...    1773.8396
Calculating surface distance matrix               ...        done! (  0.1s)
Performing Cholesky decomposition & store         ...        done! (  0.5s)
Overall time for CPCM initialization              ...                 0.6s
--------------
SCF ITERATIONS
--------------
ITER       Energy         Delta-E        Max-DP      RMS-DP      [F,P]     Damp
               ***  Starting incremental Fock matrix formation  ***

  HOMO= 109 E= -1.920 eV LUMO=  7.772 eV gap=   9.692 eV
  0  -1167.5218753649   0.000000000000 0.05516032  0.00083069  0.2626643 0.7000

  HOMO= 109 E= -3.438 eV LUMO=  6.669 eV gap=  10.107 eV
  1  -1167.8962120501  -0.374336685168 0.02890301  0.00061290  0.1013253 0.7000
                               ***Turning on DIIS***

  HOMO= 109 E= -4.414 eV LUMO=  5.785 eV gap=  10.199 eV
  2  -1168.0425521409  -0.146340090847 0.04808857  0.00100918  0.0318284 0.0000

  HOMO= 109 E= -5.034 eV LUMO=  5.202 eV gap=  10.237 eV
  3  -1168.2405078797  -0.197955738740 0.02322808  0.00047397  0.0549198 0.0000

  HOMO= 109 E= -5.059 eV LUMO=  5.177 eV gap=  10.236 eV
  4  -1168.3074913849  -0.066983505264 0.00753310  0.00015053  0.0104148 0.0000

  HOMO= 109 E= -5.013 eV LUMO=  5.230 eV gap=  10.243 eV
  5  -1168.3105203301  -0.003028945148 0.00344942  0.00005683  0.0103093 0.0000

  HOMO= 109 E= -4.993 eV LUMO=  5.247 eV gap=  10.241 eV
  6  -1168.3107890017  -0.000268671654 0.00125709  0.00001904  0.0030481 0.0000

  HOMO= 109 E= -4.995 eV LUMO= -1.558 eV gap=   3.437 eV
  7  -1168.3108090124  -0.000020010681 0.00071753  0.00001153  0.0004364 0.0000

  HOMO= 109 E= -4.993 eV LUMO= -1.556 eV gap=   3.438 eV
  8  -1168.3108117743  -0.000002761875 0.00026393  0.00000296  0.0003788 0.0000

  HOMO= 109 E= -4.991 eV LUMO= -1.554 eV gap=   3.438 eV
  9  -1168.3108124724  -0.000000698116 0.00015482  0.00000150  0.0002446 0.0000

  HOMO= 109 E= -4.992 eV LUMO= -1.554 eV gap=   3.437 eV
 10  -1168.3108127132  -0.000000240838 0.00006682  0.00000070  0.0000933 0.0000

  HOMO= 109 E= -4.992 eV LUMO= -1.554 eV gap=   3.438 eV
 11  -1168.3108127391  -0.000000025910 0.00002795  0.00000027  0.0000295 0.0000

  HOMO= 109 E= -4.992 eV LUMO= -1.554 eV gap=   3.438 eV
 12  -1168.3108127205   0.000000018662 0.00001364  0.00000013  0.0000188 0.0000

  HOMO= 109 E= -4.992 eV LUMO= -1.554 eV gap=   3.438 eV
 13  -1168.3108127485  -0.000000027979 0.00000645  0.00000006  0.0000074 0.0000
                 **** Energy Check signals convergence ****

               *****************************************************
               *                     SUCCESS                       *
               *           SCF CONVERGED AFTER  14 CYCLES          *
               *****************************************************


----------------
TOTAL SCF ENERGY
----------------

Total Energy       :        -1168.31081276 Eh          -31791.35346 eV

Components:
Nuclear Repulsion  :         2777.06867751 Eh           75567.88051 eV
Electronic Energy  :        -3945.37949026 Eh         -107359.23397 eV
One Electron Energy:        -7100.27880228 Eh         -193208.40874 eV
Two Electron Energy:         3154.89931202 Eh           85849.17477 eV
CPCM Dielectric    :           -0.00910889 Eh              -0.24787 eV

Virial components:
Potential Energy   :        -2330.41002934 Eh          -63413.68079 eV
Kinetic Energy     :         1162.09921659 Eh           31622.32733 eV
Virial Ratio       :            2.00534515


DFT components:
N(Alpha)           :      110.000072868166 electrons
N(Beta)            :      110.000072868166 electrons
N(Total)           :      220.000145736332 electrons
E(X)               :     -169.585420427963 Eh       
E(C)               :       -7.445020575759 Eh       
E(XC)              :     -177.030441003722 Eh       
DFET-embed. en.    :        0.000000000000 Eh       
CPCM Solvation Model Properties:
Surface-charge          :           -0.04527849
Charge-correction       :           -0.00006976 Eh              -0.00190 eV
Free-energy (cav+disp)  :  This term is not implemented in the current solvation scheme

---------------
SCF CONVERGENCE
---------------

  Last Energy change         ...   -8.3990e-09  Tolerance :   1.0000e-07
  Last MAX-Density change    ...    2.9229e-06  Tolerance :   1.0000e-05
  Last RMS-Density change    ...    2.8599e-08  Tolerance :   1.0000e-06
  Last DIIS Error            ...    3.7177e-06  Tolerance :   1.0000e-07

             **** THE GBW FILE WAS UPDATED (inpS.gbw) ****
             **** DENSITY inpS.scfp WAS UPDATED ****
             **** ENERGY FILE WAS UPDATED (inpS.en.tmp) ****
             **** THE GBW FILE WAS UPDATED (inpS.gbw) ****
             **** DENSITY inpS.scfp WAS UPDATED ****
----------------
ORBITAL ENERGIES
----------------

  NO   OCC          E(Eh)            E(eV) 
   0   2.0000     -18.903758      -514.3974 
   1   2.0000     -10.057268      -273.6722 
   2   2.0000     -10.016531      -272.5637 
   3   2.0000     -10.014761      -272.5155 
   4   2.0000     -10.012500      -272.4540 
   5   2.0000     -10.012295      -272.4484 
   6   2.0000     -10.012050      -272.4417 
   7   2.0000     -10.011799      -272.4349 
   8   2.0000     -10.010095      -272.3885 
   9   2.0000     -10.010003      -272.3860 
  10   2.0000     -10.009758      -272.3794 
  11   2.0000     -10.007905      -272.3289 
  12   2.0000     -10.007598      -272.3206 
  13   2.0000     -10.007366      -272.3143 
  14   2.0000     -10.006780      -272.2983 
  15   2.0000     -10.006347      -272.2866 
  16   2.0000     -10.005119      -272.2531 
  17   2.0000     -10.001087      -272.1434 
  18   2.0000     -10.000797      -272.1355 
  19   2.0000     -10.000789      -272.1353 
  20   2.0000     -10.000344      -272.1232 
  21   2.0000      -9.999705      -272.1058 
  22   2.0000      -9.996811      -272.0271 
  23   2.0000      -9.996326      -272.0139 
  24   2.0000      -9.996036      -272.0060 
  25   2.0000      -9.996031      -272.0058 
  26   2.0000      -9.995820      -272.0001 
  27   2.0000      -9.995767      -271.9987 
  28   2.0000      -9.993936      -271.9488 
  29   2.0000      -0.954425       -25.9712 
  30   2.0000      -0.808275       -21.9943 
  31   2.0000      -0.789602       -21.4862 
  32   2.0000      -0.770497       -20.9663 
  33   2.0000      -0.757141       -20.6028 
  34   2.0000      -0.734523       -19.9874 
  35   2.0000      -0.728391       -19.8205 
  36   2.0000      -0.708991       -19.2926 
  37   2.0000      -0.708925       -19.2908 
  38   2.0000      -0.693100       -18.8602 
  39   2.0000      -0.676594       -18.4110 
  40   2.0000      -0.659239       -17.9388 
  41   2.0000      -0.651214       -17.7204 
  42   2.0000      -0.636920       -17.3315 
  43   2.0000      -0.629202       -17.1215 
  44   2.0000      -0.625549       -17.0221 
  45   2.0000      -0.620002       -16.8711 
  46   2.0000      -0.593340       -16.1456 
  47   2.0000      -0.590019       -16.0552 
  48   2.0000      -0.562299       -15.3009 
  49   2.0000      -0.548002       -14.9119 
  50   2.0000      -0.542348       -14.7580 
  51   2.0000      -0.536901       -14.6098 
  52   2.0000      -0.527448       -14.3526 
  53   2.0000      -0.511304       -13.9133 
  54   2.0000      -0.487531       -13.2664 
  55   2.0000      -0.473912       -12.8958 
  56   2.0000      -0.467297       -12.7158 
  57   2.0000      -0.463505       -12.6126 
  58   2.0000      -0.451345       -12.2817 
  59   2.0000      -0.445800       -12.1308 
  60   2.0000      -0.436709       -11.8835 
  61   2.0000      -0.431420       -11.7395 
  62   2.0000      -0.421445       -11.4681 
  63   2.0000      -0.417131       -11.3507 
  64   2.0000      -0.412281       -11.2187 
  65   2.0000      -0.405881       -11.0446 
  66   2.0000      -0.404471       -11.0062 
  67   2.0000      -0.401180       -10.9167 
  68   2.0000      -0.397860       -10.8263 
  69   2.0000      -0.393600       -10.7104 
  70   2.0000      -0.389920       -10.6103 
  71   2.0000      -0.384866       -10.4727 
  72   2.0000      -0.379113       -10.3162 
  73   2.0000      -0.374333       -10.1861 
  74   2.0000      -0.371484       -10.1086 
  75   2.0000      -0.369757       -10.0616 
  76   2.0000      -0.361450        -9.8355 
  77   2.0000      -0.358856        -9.7650 
  78   2.0000      -0.356262        -9.6944 
  79   2.0000      -0.349311        -9.5052 
  80   2.0000      -0.345098        -9.3906 
  81   2.0000      -0.344866        -9.3843 
  82   2.0000      -0.341519        -9.2932 
  83   2.0000      -0.336856        -9.1663 
  84   2.0000      -0.326369        -8.8810 
  85   2.0000      -0.323749        -8.8097 
  86   2.0000      -0.322162        -8.7665 
  87   2.0000      -0.318283        -8.6609 
  88   2.0000      -0.317118        -8.6292 
  89   2.0000      -0.311351        -8.4723 
  90   2.0000      -0.308831        -8.4037 
  91   2.0000      -0.307350        -8.3634 
  92   2.0000      -0.301758        -8.2113 
  93   2.0000      -0.297591        -8.0979 
  94   2.0000      -0.291095        -7.9211 
  95   2.0000      -0.288023        -7.8375 
  96   2.0000      -0.286141        -7.7863 
  97   2.0000      -0.285510        -7.7691 
  98   2.0000      -0.282625        -7.6906 
  99   2.0000      -0.278302        -7.5730 
 100   2.0000      -0.275260        -7.4902 
 101   2.0000      -0.273913        -7.4536 
 102   2.0000      -0.271646        -7.3919 
 103   2.0000      -0.269413        -7.3311 
 104   2.0000      -0.260419        -7.0864 
 105   2.0000      -0.251226        -6.8362 
 106   2.0000      -0.230239        -6.2651 
 107   2.0000      -0.228730        -6.2241 
 108   2.0000      -0.212367        -5.7788 
 109   2.0000      -0.183448        -4.9919 
 110   0.0000      -0.057121        -1.5544 
 111   0.0000      -0.014311        -0.3894 
 112   0.0000      -0.004372        -0.1190 
 113   0.0000       0.029217         0.7950 
 114   0.0000       0.038122         1.0374 
 115   0.0000       0.041976         1.1422 
 116   0.0000       0.046445         1.2638 
 117   0.0000       0.049342         1.3427 
 118   0.0000       0.051626         1.4048 
 119   0.0000       0.055361         1.5065 
 120   0.0000       0.060267         1.6400 
 121   0.0000       0.062405         1.6981 
 122   0.0000       0.069319         1.8863 
 123   0.0000       0.074171         2.0183 
 124   0.0000       0.078570         2.1380 
 125   0.0000       0.079790         2.1712 
 126   0.0000       0.082452         2.2436 
 127   0.0000       0.087219         2.3734 
 128   0.0000       0.088800         2.4164 
 129   0.0000       0.091359         2.4860 
 130   0.0000       0.097530         2.6539 
 131   0.0000       0.099926         2.7191 
 132   0.0000       0.103363         2.8127 
 133   0.0000       0.106473         2.8973 
 134   0.0000       0.107388         2.9222 
 135   0.0000       0.108173         2.9435 
 136   0.0000       0.112005         3.0478 
 137   0.0000       0.115481         3.1424 
 138   0.0000       0.119841         3.2611 
 139   0.0000       0.125227         3.4076 
 140   0.0000       0.128172         3.4877 
 141   0.0000       0.129562         3.5256 
 142   0.0000       0.131881         3.5887 
 143   0.0000       0.136652         3.7185 
 144   0.0000       0.140067         3.8114 
 145   0.0000       0.141916         3.8617 
 146   0.0000       0.144920         3.9435 
 147   0.0000       0.147609         4.0166 
 148   0.0000       0.150043         4.0829 
 149   0.0000       0.153965         4.1896 
 150   0.0000       0.156125         4.2484 
 151   0.0000       0.158686         4.3181 
 152   0.0000       0.160840         4.3767 
 153   0.0000       0.163201         4.4409 
 154   0.0000       0.169860         4.6221 
 155   0.0000       0.172105         4.6832 
 156   0.0000       0.176055         4.7907 
 157   0.0000       0.177594         4.8326 
 158   0.0000       0.179697         4.8898 
 159   0.0000       0.185142         5.0380 
 160   0.0000       0.187291         5.0964 
 161   0.0000       0.189104         5.1458 
 162   0.0000       0.194735         5.2990 
 163   0.0000       0.195303         5.3145 
 164   0.0000       0.200131         5.4458 
 165   0.0000       0.205054         5.5798 
 166   0.0000       0.206663         5.6236 
 167   0.0000       0.211460         5.7541 
 168   0.0000       0.214043         5.8244 
 169   0.0000       0.216288         5.8855 
 170   0.0000       0.217787         5.9263 
 171   0.0000       0.219968         5.9856 
 172   0.0000       0.226428         6.1614 
 173   0.0000       0.230806         6.2806 
 174   0.0000       0.240602         6.5471 
 175   0.0000       0.245388         6.6774 
 176   0.0000       0.248821         6.7708 
 177   0.0000       0.258035         7.0215 
 178   0.0000       0.263274         7.1641 
 179   0.0000       0.266598         7.2545 
 180   0.0000       0.274334         7.4650 
 181   0.0000       0.285761         7.7759 
 182   0.0000       0.290160         7.8957 
 183   0.0000       0.295019         8.0279 
 184   0.0000       0.301988         8.2175 
 185   0.0000       0.327455         8.9105 
 186   0.0000       0.333490         9.0747 
 187   0.0000       0.336275         9.1505 
 188   0.0000       0.342664         9.3244 
 189   0.0000       0.352940         9.6040 
 190   0.0000       0.358679         9.7602 
 191   0.0000       0.362249         9.8573 
 192   0.0000       0.366801         9.9811 
 193   0.0000       0.371257        10.1024 
 194   0.0000       0.379537        10.3277 
 195   0.0000       0.380579        10.3561 
 196   0.0000       0.385291        10.4843 
 197   0.0000       0.388126        10.5614 
 198   0.0000       0.391349        10.6491 
 199   0.0000       0.396998        10.8029 
 200   0.0000       0.400835        10.9073 
 201   0.0000       0.402684        10.9576 
 202   0.0000       0.412674        11.2294 
 203   0.0000       0.416908        11.3446 
 204   0.0000       0.423010        11.5107 
 205   0.0000       0.430728        11.7207 
 206   0.0000       0.435328        11.8459 
 207   0.0000       0.447303        12.1717 
 208   0.0000       0.451570        12.2879 
 209   0.0000       0.457902        12.4602 
 210   0.0000       0.461841        12.5673 
 211   0.0000       0.466101        12.6832 
 212   0.0000       0.471658        12.8345 
 213   0.0000       0.475057        12.9270 
 214   0.0000       0.477701        12.9989 
 215   0.0000       0.483040        13.1442 
 216   0.0000       0.485423        13.2090 
 217   0.0000       0.487423        13.2635 
 218   0.0000       0.495789        13.4911 
 219   0.0000       0.499353        13.5881 
 220   0.0000       0.504359        13.7243 
 221   0.0000       0.510532        13.8923 
 222   0.0000       0.511320        13.9137 
 223   0.0000       0.517898        14.0927 
 224   0.0000       0.525124        14.2894 
 225   0.0000       0.528089        14.3700 
 226   0.0000       0.536262        14.5924 
 227   0.0000       0.538120        14.6430 
 228   0.0000       0.540441        14.7061 
 229   0.0000       0.546060        14.8590 
 230   0.0000       0.548814        14.9340 
 231   0.0000       0.554508        15.0889 
 232   0.0000       0.556615        15.1463 
 233   0.0000       0.560246        15.2451 
 234   0.0000       0.565929        15.3997 
 235   0.0000       0.567675        15.4472 
 236   0.0000       0.571585        15.5536 
 237   0.0000       0.572154        15.5691 
 238   0.0000       0.577183        15.7060 
 239   0.0000       0.578539        15.7428 
 240   0.0000       0.581723        15.8295 
 241   0.0000       0.584240        15.8980 
 242   0.0000       0.588043        16.0015 
 243   0.0000       0.591510        16.0958 
 244   0.0000       0.592299        16.1173 
 245   0.0000       0.595752        16.2112 
 246   0.0000       0.599584        16.3155 
 247   0.0000       0.601721        16.3736 
 248   0.0000       0.602236        16.3877 
 249   0.0000       0.604063        16.4374 
 250   0.0000       0.606225        16.4962 
 251   0.0000       0.607577        16.5330 
 252   0.0000       0.608617        16.5613 
 253   0.0000       0.614046        16.7091 
 254   0.0000       0.616426        16.7738 
 255   0.0000       0.618659        16.8346 
 256   0.0000       0.623949        16.9785 
 257   0.0000       0.626607        17.0508 
 258   0.0000       0.629163        17.1204 
 259   0.0000       0.629976        17.1425 
 260   0.0000       0.635032        17.2801 
 261   0.0000       0.639855        17.4113 
 262   0.0000       0.640743        17.4355 
 263   0.0000       0.642015        17.4701 
 264   0.0000       0.645441        17.5634 
 265   0.0000       0.649307        17.6686 
 266   0.0000       0.650820        17.7097 
 267   0.0000       0.654010        17.7965 
 268   0.0000       0.656685        17.8693 
 269   0.0000       0.660108        17.9624 
 270   0.0000       0.661583        18.0026 
 271   0.0000       0.667449        18.1622 
 272   0.0000       0.672659        18.3040 
 273   0.0000       0.675596        18.3839 
 274   0.0000       0.676777        18.4160 
 275   0.0000       0.678040        18.4504 
 276   0.0000       0.680415        18.5150 
 277   0.0000       0.684262        18.6197 
 278   0.0000       0.689450        18.7609 
 279   0.0000       0.692192        18.8355 
 280   0.0000       0.692762        18.8510 
 281   0.0000       0.696885        18.9632 
 282   0.0000       0.704622        19.1737 
 283   0.0000       0.705484        19.1972 
 284   0.0000       0.710175        19.3248 
 285   0.0000       0.712938        19.4000 
 286   0.0000       0.715403        19.4671 
 287   0.0000       0.725245        19.7349 
 288   0.0000       0.731691        19.9103 
 289   0.0000       0.736318        20.0362 
 290   0.0000       0.746615        20.3164 
 291   0.0000       0.747166        20.3314 
 292   0.0000       0.753239        20.4967 
 293   0.0000       0.759587        20.6694 
 294   0.0000       0.762890        20.7593 
 295   0.0000       0.766978        20.8705 
 296   0.0000       0.771677        20.9984 
 297   0.0000       0.782807        21.3013 
 298   0.0000       0.785484        21.3741 
 299   0.0000       0.793121        21.5819 
 300   0.0000       0.800958        21.7952 
 301   0.0000       0.803729        21.8706 
 302   0.0000       0.811448        22.0806 
 303   0.0000       0.820918        22.3383 
 304   0.0000       0.827161        22.5082 
 305   0.0000       0.858907        23.3720 
 306   0.0000       0.862842        23.4791 
 307   0.0000       0.883544        24.0424 
 308   0.0000       0.891135        24.2490 
 309   0.0000       0.898857        24.4591 
 310   0.0000       0.925134        25.1742 
 311   0.0000       0.933811        25.4103 
 312   0.0000       0.949706        25.8428 
 313   0.0000       0.961403        26.1611 
 314   0.0000       0.977816        26.6077 
 315   0.0000       0.989431        26.9238 
 316   0.0000       1.002882        27.2898 
 317   0.0000       1.019216        27.7343 
 318   0.0000       1.026284        27.9266 
 319   0.0000       1.039203        28.2781 
 320   0.0000       1.050731        28.5919 
 321   0.0000       1.057243        28.7691 
 322   0.0000       1.067369        29.0446 
 323   0.0000       1.090774        29.6815 
 324   0.0000       1.102402        29.9979 
 325   0.0000       1.112591        30.2752 
 326   0.0000       1.147898        31.2359 
 327   0.0000       1.154585        31.4178 
 328   0.0000       1.164056        31.6756 
 329   0.0000       1.175640        31.9908 
 330   0.0000       1.194690        32.5092 
 331   0.0000       1.215131        33.0654 
 332   0.0000       1.228271        33.4230 
 333   0.0000       1.242322        33.8053 
 334   0.0000       1.259210        34.2648 
 335   0.0000       1.264730        34.4151 
 336   0.0000       1.279735        34.8234 
 337   0.0000       1.292314        35.1656 
 338   0.0000       1.294391        35.2222 
 339   0.0000       1.308220        35.5985 
 340   0.0000       1.317466        35.8501 
 341   0.0000       1.337560        36.3969 
 342   0.0000       1.345387        36.6099 
 343   0.0000       1.351281        36.7702 
 344   0.0000       1.363168        37.0937 
 345   0.0000       1.369577        37.2681 
 346   0.0000       1.375998        37.4428 
 347   0.0000       1.394423        37.9442 
 348   0.0000       1.402959        38.1765 
 349   0.0000       1.414945        38.5026 
 350   0.0000       1.419198        38.6183 
 351   0.0000       1.431674        38.9578 
 352   0.0000       1.437607        39.1193 
 353   0.0000       1.453032        39.5390 
 354   0.0000       1.456264        39.6269 
 355   0.0000       1.472499        40.0687 
 356   0.0000       1.480929        40.2981 
 357   0.0000       1.489318        40.5264 
 358   0.0000       1.503002        40.8988 
 359   0.0000       1.508221        41.0408 
 360   0.0000       1.519414        41.3454 
 361   0.0000       1.522763        41.4365 
 362   0.0000       1.527718        41.5713 
 363   0.0000       1.549985        42.1772 
 364   0.0000       1.559870        42.4462 
 365   0.0000       1.569507        42.7085 
 366   0.0000       1.580918        43.0190 
 367   0.0000       1.588441        43.2237 
 368   0.0000       1.601547        43.5803 
 369   0.0000       1.612765        43.8856 
 370   0.0000       1.616636        43.9909 
 371   0.0000       1.620878        44.1063 
 372   0.0000       1.628898        44.3246 
 373   0.0000       1.637363        44.5549 
 374   0.0000       1.644134        44.7392 
 375   0.0000       1.659485        45.1569 
 376   0.0000       1.667294        45.3694 
 377   0.0000       1.670572        45.4586 
 378   0.0000       1.679613        45.7046 
 379   0.0000       1.682100        45.7723 
 380   0.0000       1.687716        45.9251 
 381   0.0000       1.691491        46.0278 
 382   0.0000       1.698203        46.2104 
 383   0.0000       1.706739        46.4427 
 384   0.0000       1.713500        46.6267 
 385   0.0000       1.718211        46.7549 
 386   0.0000       1.722212        46.8638 
 387   0.0000       1.729129        47.0520 
 388   0.0000       1.732722        47.1498 
 389   0.0000       1.741158        47.3793 
 390   0.0000       1.744984        47.4834 
 391   0.0000       1.748127        47.5690 
 392   0.0000       1.751797        47.6688 
 393   0.0000       1.760925        47.9172 
 394   0.0000       1.769891        48.1612 
 395   0.0000       1.771599        48.2076 
 396   0.0000       1.779286        48.4168 
 397   0.0000       1.784740        48.5653 
 398   0.0000       1.787790        48.6482 
 399   0.0000       1.793061        48.7917 
 400   0.0000       1.797188        48.9040 
 401   0.0000       1.810456        49.2650 
 402   0.0000       1.812240        49.3135 
 403   0.0000       1.817783        49.4644 
 404   0.0000       1.824724        49.6533 
 405   0.0000       1.826203        49.6935 
 406   0.0000       1.831685        49.8427 
 407   0.0000       1.836972        49.9866 
 408   0.0000       1.844593        50.1939 
 409   0.0000       1.859807        50.6079 
 410   0.0000       1.862826        50.6901 
 411   0.0000       1.872377        50.9500 
 412   0.0000       1.875064        51.0231 
 413   0.0000       1.884391        51.2769 
 414   0.0000       1.892308        51.4923 
 415   0.0000       1.895401        51.5765 
 416   0.0000       1.902048        51.7574 
 417   0.0000       1.911652        52.0187 
 418   0.0000       1.918147        52.1954 
 419   0.0000       1.923711        52.3468 
 420   0.0000       1.931801        52.5670 
 421   0.0000       1.935254        52.6609 
 422   0.0000       1.944216        52.9048 
 423   0.0000       1.951553        53.1045 
 424   0.0000       1.959668        53.3253 
 425   0.0000       1.965448        53.4826 
 426   0.0000       1.965956        53.4964 
 427   0.0000       1.969780        53.6004 
 428   0.0000       1.973924        53.7132 
 429   0.0000       1.977925        53.8221 
 430   0.0000       1.982094        53.9355 
 431   0.0000       1.988018        54.0967 
 432   0.0000       1.993404        54.2433 
 433   0.0000       1.998044        54.3695 
 434   0.0000       1.998616        54.3851 
 435   0.0000       2.001845        54.4730 
 436   0.0000       2.011941        54.7477 
 437   0.0000       2.012772        54.7703 
 438   0.0000       2.016182        54.8631 
 439   0.0000       2.020931        54.9923 
 440   0.0000       2.025729        55.1229 
 441   0.0000       2.028576        55.2003 
 442   0.0000       2.033778        55.3419 
 443   0.0000       2.043614        55.6096 
[...]

 --------------
 Nucleus  47H :
 --------------

Diamagnetic contribution to the shielding tensor (ppm) : 
            32.599         -2.431        -5.221
            -2.951         33.558         6.427
            -6.768          5.973        49.601

Paramagnetic contribution to the shielding tensor (ppm): 
            -1.204          0.626         3.030
             1.005         -6.263        -4.132
             3.909         -2.902       -14.460

Total shielding tensor (ppm): 
            31.395         -1.805        -2.191
            -1.946         27.295         2.295
            -2.859          3.071        35.141


 Diagonalized sT*s matrix:
 
 sDSO            31.116           31.536           53.106  iso=      38.586
 sPSO            -4.906           -1.363          -15.658  iso=      -7.309
        ---------------  ---------------  ---------------
 Total           26.211           30.173           37.448  iso=      31.277

 --------------
 Nucleus  48H :
 --------------

Diamagnetic contribution to the shielding tensor (ppm) : 
            35.774         -0.350        -2.006
             0.188         30.995        -7.855
            -6.875         -6.927        50.863

Paramagnetic contribution to the shielding tensor (ppm): 
            -4.735          1.043         2.004
            -0.057         -2.930         5.766
             8.165          4.381       -20.684

Total shielding tensor (ppm): 
            31.039          0.693        -0.001
             0.131         28.065        -2.088
             1.290         -2.546        30.179


 Diagonalized sT*s matrix:
 
 sDSO            31.123           40.187           46.322  iso=      39.211
 sPSO            -4.654           -9.190          -14.505  iso=      -9.450
        ---------------  ---------------  ---------------
 Total           26.469           30.997           31.817  iso=      29.761

 --------------
 Nucleus  52H :
 --------------

Diamagnetic contribution to the shielding tensor (ppm) : 
            40.190         -2.280         0.308
             1.833         52.848        -4.400
             5.391          0.486        31.433

Paramagnetic contribution to the shielding tensor (ppm): 
            -5.959          3.946         2.201
             0.615        -31.036         5.437
            -3.212          0.086        -9.394

Total shielding tensor (ppm): 
            34.231          1.667         2.509
             2.448         21.812         1.037
             2.179          0.572        22.038


 Diagonalized sT*s matrix:
 
 sDSO            45.707           37.721           41.042  iso=      41.490
 sPSO           -24.593          -15.775           -6.021  iso=     -15.463
        ---------------  ---------------  ---------------
 Total           21.114           21.946           35.022  iso=      26.027

 --------------
 Nucleus  53H :
 --------------

Diamagnetic contribution to the shielding tensor (ppm) : 
            38.495         -3.758         0.619
           -10.187         52.271         4.586
             1.191         -8.014        36.653

Paramagnetic contribution to the shielding tensor (ppm): 
            -5.063          4.828         2.502
            12.179        -29.647        -3.846
             1.462          8.214       -14.279

Total shielding tensor (ppm): 
            33.433          1.069         3.122
             1.993         22.624         0.740
             2.653          0.200        22.374


 Diagonalized sT*s matrix:
 
 sDSO            36.586           53.602           37.232  iso=      42.473
 sPSO           -14.932          -31.183           -2.874  iso=     -16.330
        ---------------  ---------------  ---------------
 Total           21.655           22.418           34.358  iso=      26.144

 --------------
 Nucleus  57H :
 --------------

Diamagnetic contribution to the shielding tensor (ppm) : 
            30.873          1.018         2.370
             0.377         38.133        -5.671
            20.271         -7.234        37.074

Paramagnetic contribution to the shielding tensor (ppm): 
            -3.348         -1.519        -2.822
            -1.507        -10.148         3.695
           -18.922          4.500        -3.795

Total shielding tensor (ppm): 
            27.525         -0.501        -0.451
            -1.130         27.985        -1.976
             1.349         -2.733        33.279


 Diagonalized sT*s matrix:
 
 sDSO            36.962           25.159           43.958  iso=      35.360
 sPSO           -10.319            2.738           -9.710  iso=      -5.764
        ---------------  ---------------  ---------------
 Total           26.644           27.897           34.248  iso=      29.596

 --------------
 Nucleus  58H :
 --------------

Diamagnetic contribution to the shielding tensor (ppm) : 
            38.224          4.840         5.017
             9.006         18.793         0.934
            14.648          0.840        19.615

Paramagnetic contribution to the shielding tensor (ppm): 
            -5.094         -3.148        -1.335
            -7.396         10.511         1.867
           -11.740          1.498         8.977

Total shielding tensor (ppm): 
            33.130          1.692         3.682
             1.610         29.304         2.801
             2.908          2.339        28.593


 Diagonalized sT*s matrix:
 
 sDSO            17.568           16.119           42.945  iso=      25.544
 sPSO             8.401           12.976           -6.983  iso=       4.798
        ---------------  ---------------  ---------------
 Total           25.969           29.095           35.962  iso=      30.342

 --------------
 Nucleus  61H :
 --------------

Diamagnetic contribution to the shielding tensor (ppm) : 
            28.778         -0.814         0.916
             7.397         39.691       -12.235
             7.189         -6.326        34.754

Paramagnetic contribution to the shielding tensor (ppm): 
             0.601          0.254        -0.455
            -8.485         -7.015         9.658
            -6.808          3.704        -5.112

Total shielding tensor (ppm): 
            29.379         -0.560         0.461
            -1.088         32.675        -2.577
             0.381         -2.621        29.642


 Diagonalized sT*s matrix:
 
 sDSO            28.331           29.340           45.552  iso=      34.408
 sPSO            -0.183           -0.131          -11.212  iso=      -3.842
        ---------------  ---------------  ---------------
 Total           28.147           29.209           34.340  iso=      30.566

 --------------
 Nucleus  62H :
 --------------

Diamagnetic contribution to the shielding tensor (ppm) : 
            31.351          7.093         5.289
            20.299         29.951        -2.149
            17.896          3.286        26.269

Paramagnetic contribution to the shielding tensor (ppm): 
             0.017         -4.604        -2.154
           -17.270          1.889         6.763
           -14.962          1.137         3.298

Total shielding tensor (ppm): 
            31.368          2.489         3.135
             3.028         31.840         4.614
             2.934          4.424        29.567


 Diagonalized sT*s matrix:
 
 sDSO            26.232           15.547           45.792  iso=      29.190
 sPSO            -0.319           13.429           -7.906  iso=       1.735
        ---------------  ---------------  ---------------
 Total           25.914           28.977           37.885  iso=      30.925

 --------------
 Nucleus  63H :
 --------------

Diamagnetic contribution to the shielding tensor (ppm) : 
            34.257         -4.059        -7.089
             9.255         42.781         1.739
             8.877          9.050        34.378

Paramagnetic contribution to the shielding tensor (ppm): 
            -0.808          2.651         3.876
           -11.250        -14.078         1.870
           -11.904         -4.883        -4.647

Total shielding tensor (ppm): 
            33.449         -1.408        -3.213
            -1.995         28.703         3.609
            -3.028          4.168        29.730


 Diagonalized sT*s matrix:
 
 sDSO            32.990           42.479           35.946  iso=      37.139
 sPSO            -7.786          -12.595            0.847  iso=      -6.511
        ---------------  ---------------  ---------------
 Total           25.205           29.885           36.793  iso=      30.627

 --------------
 Nucleus  64H :
 --------------

Diamagnetic contribution to the shielding tensor (ppm) : 
            29.453          0.179        -1.940
             4.697         27.683       -13.509
           -10.430         -4.480        27.771

Paramagnetic contribution to the shielding tensor (ppm): 
            -1.323         -0.313        -0.443
            -5.316          7.622        11.201
             8.160          0.703         1.268

Total shielding tensor (ppm): 
            28.129         -0.134        -2.384
            -0.619         35.305        -2.308
            -2.270         -3.777        29.040


 Diagonalized sT*s matrix:
 
 sDSO            20.558           29.739           34.609  iso=      28.302
 sPSO             5.094            0.509            1.964  iso=       2.522
        ---------------  ---------------  ---------------
 Total           25.652           30.248           36.573  iso=      30.825

 --------------
 Nucleus  65H :
 --------------

Diamagnetic contribution to the shielding tensor (ppm) : 
            35.411          2.333         2.607
             6.239         20.345        -4.482
           -12.265         -3.351        37.912

Paramagnetic contribution to the shielding tensor (ppm): 
            -2.431         -0.231        -1.197
            -3.971          6.834         5.291
            13.672          4.715        -4.102

Total shielding tensor (ppm): 
            32.980          2.101         1.410
             2.268         27.179         0.808
             1.408          1.364        33.810


 Diagonalized sT*s matrix:
 
 sDSO            19.786           42.737           31.145  iso=      31.223
 sPSO             6.615          -10.629            4.316  iso=       0.100
        ---------------  ---------------  ---------------
 Total           26.400           32.108           35.461  iso=      31.323

 --------------
 Nucleus  66H :
 --------------

Diamagnetic contribution to the shielding tensor (ppm) : 
            38.236         -1.042        -8.378
             5.768          9.885         1.338
           -20.418          5.829        20.335

Paramagnetic contribution to the shielding tensor (ppm): 
            -3.422          1.225         3.553
            -5.380         17.677        -2.905
            14.806         -6.957        10.733

Total shielding tensor (ppm): 
            34.814          0.184        -4.825
             0.388         27.562        -1.567
            -5.612         -1.128        31.068


 Diagonalized sT*s matrix:
 
 sDSO            15.450            7.467           45.539  iso=      22.819
 sPSO            11.049           20.901           -6.961  iso=       8.329
        ---------------  ---------------  ---------------
 Total           26.498           28.368           38.578  iso=      31.148

 --------------
 Nucleus  67H :
 --------------

Diamagnetic contribution to the shielding tensor (ppm) : 
            26.502         -2.799         0.637
           -14.380         28.315        -4.383
            10.772        -12.737        24.297

Paramagnetic contribution to the shielding tensor (ppm): 
             1.905          0.546         0.588
            12.654          3.490        -1.069
            -9.823          8.732         7.533

Total shielding tensor (ppm): 
            28.407         -2.253         1.226
            -1.726         31.806        -5.452
             0.949         -4.005        31.831


 Diagonalized sT*s matrix:
 
 sDSO            17.569           22.441           39.105  iso=      26.372
 sPSO             9.174            5.768           -2.013  iso=       4.310
        ---------------  ---------------  ---------------
 Total           26.743           28.208           37.093  iso=      30.681

 --------------
 Nucleus  68H :
 --------------

Diamagnetic contribution to the shielding tensor (ppm) : 
            38.915         -8.188        -3.224
           -13.775         10.593         6.117
            -1.101          5.678        10.516

Paramagnetic contribution to the shielding tensor (ppm): 
            -3.140          4.503         1.609
             9.461         18.950        -5.681
            -1.204         -5.630        16.132

Total shielding tensor (ppm): 
            35.775         -3.685        -1.615
            -4.314         29.542         0.435
            -2.305          0.049        26.648


 Diagonalized sT*s matrix:
 
 sDSO            13.029            4.144           42.850  iso=      20.008
 sPSO            13.047           23.710           -4.815  iso=      10.647
        ---------------  ---------------  ---------------
 Total           26.076           27.854           38.035  iso=      30.655

 --------------
 Nucleus  69H :
 --------------

Diamagnetic contribution to the shielding tensor (ppm) : 
            30.932          0.750         3.146
           -14.064         35.776         9.740
             3.122          2.444        19.848

Paramagnetic contribution to the shielding tensor (ppm): 
             0.366         -0.473        -1.526
            15.170         -2.839        -6.385
            -1.751          1.014         7.937

Total shielding tensor (ppm): 
            31.298          0.277         1.620
             1.106         32.938         3.355
             1.371          3.458        27.785


 Diagonalized sT*s matrix:
 
 sDSO            16.322           36.447           33.788  iso=      28.852
 sPSO             9.565           -5.396            1.295  iso=       1.822
        ---------------  ---------------  ---------------
 Total           25.887           31.051           35.083  iso=      30.674

 --------------
 Nucleus  70H :
 --------------

Diamagnetic contribution to the shielding tensor (ppm) : 
            30.866          1.774         4.886
            -5.307         36.345        10.503
            -1.873          6.923        42.000

Paramagnetic contribution to the shielding tensor (ppm): 
             2.376         -1.274        -3.891
             6.265         -7.030        -5.557
             3.074         -2.231       -13.672

Total shielding tensor (ppm): 
            33.242          0.500         0.996
             0.958         29.315         4.945
             1.201          4.692        28.328


 Diagonalized sT*s matrix:
 
 sDSO            30.642           38.198           40.370  iso=      36.403
 sPSO            -6.676           -6.032           -5.617  iso=      -6.109
        ---------------  ---------------  ---------------
 Total           23.966           32.166           34.753  iso=      30.295

 --------------
 Nucleus  71H :
 --------------

Diamagnetic contribution to the shielding tensor (ppm) : 
            27.951         -5.440        -0.353
            -9.614         41.315        -0.214
             0.271         -9.773        41.849

Paramagnetic contribution to the shielding tensor (ppm): 
             3.654          4.435         1.368
             8.253         -8.248        -2.898
             0.287          6.690       -13.885

Total shielding tensor (ppm): 
            31.605         -1.005         1.015
            -1.361         33.068        -3.112
             0.558         -3.083        27.964


 Diagonalized sT*s matrix:
 
 sDSO            38.228           25.294           47.593  iso=      37.038
 sPSO           -11.734            5.752          -12.497  iso=      -6.160
        ---------------  ---------------  ---------------
 Total           26.494           31.047           35.096  iso=      30.879

 --------------
 Nucleus  72H :
 --------------

Diamagnetic contribution to the shielding tensor (ppm) : 
            36.492         -7.320        -8.217
            -9.054         23.976         5.679
           -16.539          1.017        37.264

Paramagnetic contribution to the shielding tensor (ppm): 
            -1.098          6.163         4.743
             7.563          3.628        -2.957
            12.675          2.558        -8.176

Total shielding tensor (ppm): 
            35.394         -1.157        -3.474
            -1.491         27.603         2.722
            -3.864          3.575        29.089


 Diagonalized sT*s matrix:
 
 sDSO            26.390           21.636           49.706  iso=      32.577
 sPSO            -1.462            7.785          -11.968  iso=      -1.882
        ---------------  ---------------  ---------------
 Total           24.929           29.420           37.737  iso=      30.695



--------------------------------
CHEMICAL SHIELDING SUMMARY (ppm)
--------------------------------


  Nucleus  Element    Isotropic     Anisotropy
  -------  -------  ------------   ------------
      3       H           29.366          6.467 
      4       H           29.046          7.402 
      8       H           29.564          7.961 
      9       H           29.331          5.442 
     10       H           30.101          8.320 
     11       H           29.855         10.228 
     13       H           27.731          7.765 
     16       H           26.784          4.692 
     17       H           26.500          4.808 
     19       H           25.404         10.427 
     21       H           25.581         14.677 
     24       H           28.909         10.138 
     25       H           30.049          9.525 
     27       H           30.243          6.982 
     28       H           30.111         11.775 
     30       H           29.730          8.483 
     31       H           30.469          6.834 
     33       H           29.838          4.326 
     35       H           30.160         14.736 
     37       H           30.327         10.792 
     38       H           30.177          9.964 
     40       H           29.861          9.823 
     41       H           30.220          8.086 
     42       H           30.782          5.041 
     45       H           31.226          7.345 
     46       H           31.010          8.068 
     47       H           31.277          9.256 
     48       H           29.761          3.084 
     52       H           26.027         13.492 
     53       H           26.144         12.321 
     57       H           29.596          6.978 
     58       H           30.342          8.430 
     61       H           30.566          5.662 
     62       H           30.925         10.440 
     63       H           30.627          9.248 
     64       H           30.825          8.623 
     65       H           31.323          6.207 
     66       H           31.148         11.145 
     67       H           30.681          9.617 
     68       H           30.655         11.071 
     69       H           30.674          6.614 
     70       H           30.295          6.686 
     71       H           30.879          6.326 
     72       H           30.695         10.563 



Maximum memory used throughout the entire EPRNMR-calculation: 140.6 MB

Timings for individual modules:

Sum of individual times         ...      142.145 sec (=   2.369 min)
GTO integral calculation        ...        0.860 sec (=   0.014 min)   0.6 %
SCF iterations                  ...       94.822 sec (=   1.580 min)  66.7 %
EPR/NMR calculation             ...       46.463 sec (=   0.774 min)  32.7 %
                             ****ORCA TERMINATED NORMALLY****
TOTAL RUN TIME: 0 days 0 hours 2 minutes 22 seconds 683 msec
