
                                 *****************
                                 * O   R   C   A *
                                 *****************

                                            #,                                       
                                            ###                                      
                                            ####                                     
                                            #####                                    
                                            ######                                   
                                           ########,                                 
                                     ,,################,,,,,                         
                               ,,#################################,,                 
                          ,,##########################################,,             
                       ,#########################################, ''#####,          
                    ,#############################################,,   '####,        
                  ,##################################################,,,,####,       
                ,###########''''           ''''###############################       
              ,#####''   ,,,,##########,,,,          '''####'''          '####       
            ,##' ,,,,###########################,,,                        '##       
           ' ,,###''''                  '''############,,,                           
         ,,##''                                '''############,,,,        ,,,,,,###''
      ,#''                                            '''#######################'''  
     '                                                          ''''####''''         
             ,#######,   #######,   ,#######,      ##                                
            ,#'     '#,  ##    ##  ,#'     '#,    #''#        ######   ,####,        
            ##       ##  ##   ,#'  ##            #'  '#       #        #'  '#        
            ##       ##  #######   ##           ,######,      #####,   #    #        
            '#,     ,#'  ##    ##  '#,     ,#' ,#      #,         ##   #,  ,#        
             '#######'   ##     ##  '#######'  #'      '#     #####' # '####'        



                  #######################################################
                  #                        -***-                        #
                  #          Department of theory and spectroscopy      #
                  #    Directorship and core code : Frank Neese         #
                  #        Max Planck Institute fuer Kohlenforschung    #
                  #                Kaiser Wilhelm Platz 1               #
                  #                 D-45470 Muelheim/Ruhr               #
                  #                      Germany                        #
                  #                                                     #
                  #                  All rights reserved                #
                  #                        -***-                        #
                  #######################################################


                         Program Version 5.0.2 -  RELEASE  -


 With contributions from (in alphabetic order):
   Daniel Aravena         : Magnetic Suceptibility
   Michael Atanasov       : Ab Initio Ligand Field Theory (pilot matlab implementation)
   Alexander A. Auer      : GIAO ZORA, VPT2 properties, NMR spectrum
   Ute Becker             : Parallelization
   Giovanni Bistoni       : ED, misc. LED, open-shell LED, HFLD
   Martin Brehm           : Molecular dynamics
   Dmytro Bykov           : SCF Hessian
   Vijay G. Chilkuri      : MRCI spin determinant printing, contributions to CSF-ICE
   Dipayan Datta          : RHF DLPNO-CCSD density
   Achintya Kumar Dutta   : EOM-CC, STEOM-CC
   Dmitry Ganyushin       : Spin-Orbit,Spin-Spin,Magnetic field MRCI
   Miquel Garcia          : C-PCM and meta-GGA Hessian, CC/C-PCM, Gaussian charge scheme
   Yang Guo               : DLPNO-NEVPT2, F12-NEVPT2, CIM, IAO-localization
   Andreas Hansen         : Spin unrestricted coupled pair/coupled cluster methods
   Benjamin Helmich-Paris : MC-RPA, TRAH-SCF, COSX integrals
   Lee Huntington         : MR-EOM, pCC
   Robert Izsak           : Overlap fitted RIJCOSX, COSX-SCS-MP3, EOM
   Marcus Kettner         : VPT2
   Christian Kollmar      : KDIIS, OOCD, Brueckner-CCSD(T), CCSD density, CASPT2, CASPT2-K
   Simone Kossmann        : Meta GGA functionals, TD-DFT gradient, OOMP2, MP2 Hessian
   Martin Krupicka        : Initial AUTO-CI
   Lucas Lang             : DCDCAS
   Marvin Lechner         : AUTO-CI (C++ implementation), FIC-MRCC
   Dagmar Lenk            : GEPOL surface, SMD
   Dimitrios Liakos       : Extrapolation schemes; Compound Job, initial MDCI parallelization
   Dimitrios Manganas     : Further ROCIS development; embedding schemes
   Dimitrios Pantazis     : SARC Basis sets
   Anastasios Papadopoulos: AUTO-CI, single reference methods and gradients
   Taras Petrenko         : DFT Hessian,TD-DFT gradient, ASA, ECA, R-Raman, ABS, FL, XAS/XES, NRVS
   Peter Pinski           : DLPNO-MP2, DLPNO-MP2 Gradient
   Christoph Reimann      : Effective Core Potentials
   Marius Retegan         : Local ZFS, SOC
   Christoph Riplinger    : Optimizer, TS searches, QM/MM, DLPNO-CCSD(T), (RO)-DLPNO pert. Triples
   Tobias Risthaus        : Range-separated hybrids, TD-DFT gradient, RPA, STAB
   Michael Roemelt        : Original ROCIS implementation
   Masaaki Saitow         : Open-shell DLPNO-CCSD energy and density
   Barbara Sandhoefer     : DKH picture change effects
   Avijit Sen             : IP-ROCIS
   Kantharuban Sivalingam : CASSCF convergence, NEVPT2, FIC-MRCI
   Bernardo de Souza      : ESD, SOC TD-DFT
   Georgi Stoychev        : AutoAux, RI-MP2 NMR, DLPNO-MP2 response
   Willem Van den Heuvel  : Paramagnetic NMR
   Boris Wezisla          : Elementary symmetry handling
   Frank Wennmohs         : Technical directorship


 We gratefully acknowledge several colleagues who have allowed us to
 interface, adapt or use parts of their codes:
   Stefan Grimme, W. Hujo, H. Kruse, P. Pracht,  : VdW corrections, initial TS optimization,
                  C. Bannwarth, S. Ehlert          DFT functionals, gCP, sTDA/sTD-DF
   Ed Valeev, F. Pavosevic, A. Kumar             : LibInt (2-el integral package), F12 methods
   Garnet Chan, S. Sharma, J. Yang, R. Olivares  : DMRG
   Ulf Ekstrom                                   : XCFun DFT Library
   Mihaly Kallay                                 : mrcc  (arbitrary order and MRCC methods)
   Jiri Pittner, Ondrej Demel                    : Mk-CCSD
   Frank Weinhold                                : gennbo (NPA and NBO analysis)
   Christopher J. Cramer and Donald G. Truhlar   : smd solvation model
   Lars Goerigk                                  : TD-DFT with DH, B97 family of functionals
   V. Asgeirsson, H. Jonsson                     : NEB implementation
   FAccTs GmbH                                   : IRC, NEB, NEB-TS, DLPNO-Multilevel, CI-OPT
                                                   MM, QMMM, 2- and 3-layer-ONIOM, Crystal-QMMM,
                                                   LR-CPCM, SF, NACMEs, symmetry and pop. for TD-DFT,
                                                   nearIR, NL-DFT gradient (VV10), updates on ESD,
                                                   ML-optimized integration grids
   S Lehtola, MJT Oliveira, MAL Marques          : LibXC Library
   Liviu Ungur et al                             : ANISO software


 Your calculation uses the libint2 library for the computation of 2-el integrals
 For citations please refer to: http://libint.valeyev.net

 Your ORCA version has been built with support for libXC version: 5.1.0
 For citations please refer to: https://tddft.org/programs/libxc/

 This ORCA versions uses:
   CBLAS   interface :  Fast vector & matrix operations
   LAPACKE interface :  Fast linear algebra routines
   SCALAPACK package :  Parallel linear algebra routines
   Shared memory     :  Shared parallel matrices
   BLAS/LAPACK       :  OpenBLAS 0.3.15  USE64BITINT DYNAMIC_ARCH NO_AFFINITY Zen SINGLE_THREADED
        Core in use  :  Zen
   Copyright (c) 2011-2014, The OpenBLAS Project


Your calculation utilizes the atom-pairwise dispersion correction
based on tight binding partial charges (D4)
Cite in your paper:
E.Caldeweyher, C.Bannwarth, S.Grimme, J.Chem.Phys., (2017), 147, 034112.
E.Caldeweyher, S.Ehlert, A.Hansen, H.Neugebauer, S.Grimme, J.Chem.Phys., (2018), in progress.
   

================================================================================

----- Orbital basis set information -----
Your calculation utilizes the basis: pcJ-0
   F. Jensen, Theor. Chem. Acc. 126, 371 (2010).

----- AuxJ basis set information -----
Your calculation utilizes the auxiliary basis: def2/J
   F. Weigend, Phys. Chem. Chem. Phys. 8, 1057 (2006).

================================================================================
                                        WARNINGS
                       Please study these warnings very carefully!
================================================================================


INFO   : the flag for use of the SHARK integral package has been found!

================================================================================
                                       INPUT FILE
================================================================================
NAME = inpJ
|  1> ! pbe0
|  2> ! D4
|  3> ! pcJ-0
|  4> ! def2/J RIJCOSX
|  5> ! DEFGRID2
|  6> ! scfconv7
|  7> ! smallprint printgap noloewdin
|  8> ! NOSOSCF
|  9> %MaxCore 4000
| 10> %output
| 11>        print[P_BondOrder_M] 1
| 12>        print[P_Mayer] 1
| 13>        print[P_basis] 2
| 14> end
| 15> %pal
| 16>     nprocs 4
| 17> end
| 18> ! CPCM(chloroform)
| 19> *xyz 0 1
| 20> C   -5.0189868000   0.2153575400  -0.4555325000
| 21> C   -6.4713089300  -0.1771372400  -0.5902152600
| 22> C   -7.3568136300   0.7430517200   0.2597138200
| 23> H   -6.6198451600  -1.2211845500  -0.2921013900
| 24> H   -6.7895759400  -0.0750919700  -1.6383337800
| 25> C   -4.7523207700   1.6405540300  -0.7511499700
| 26> C   -5.6624839400   2.6094187500  -0.0292511000
| 27> C   -7.1387248000   2.2027834800  -0.1415341400
| 28> H   -5.5124809200   3.6253343000  -0.4099132700
| 29> H   -5.3802899200   2.6204159700   1.0345772200
| 30> H   -7.4767889100   2.3297647200  -1.1790427500
| 31> H   -7.7568669600   2.8522232800   0.4890236200
| 32> O   -7.1093968800   0.5344082800   1.6601104500
| 33> H   -8.4104465200   0.4762734600   0.1108791000
| 34> C   -4.0883556000  -0.6724272300  -0.0312634500
| 35> C   -3.8142862100   2.0450549100  -1.6144406300
| 36> H   -3.1817854100   1.3324285900  -2.1370943900
| 37> H   -3.6655060700   3.1016479200  -1.8244402200
| 38> C   -2.6977009500  -0.3859854800   0.2366168300
| 39> H   -4.4386651000  -1.6874270700   0.1524641700
| 40> C   -1.7413368400  -1.2832335100   0.5573100600
| 41> H   -2.4117479500   0.6619634600   0.1812110200
| 42> C   -1.9309480300  -2.7754514000   0.6511310400
| 43> C   -0.9375824800  -3.5267959800  -0.2563812900
| 44> H   -2.9529442800  -3.0817588300   0.4124430600
| 45> H   -1.7377360800  -3.0768004600   1.6929594900
| 46> C    0.5152290400  -3.0827389000  -0.0387329100
| 47> H   -1.2218096500  -3.3684226400  -1.3044146400
| 48> H   -1.0237775500  -4.6041999900  -0.0694139800
| 49> C    0.6764686400  -1.5625706700  -0.1762952700
| 50> H    1.1583135800  -3.6181236400  -0.7445462400
| 51> H    0.8352757300  -3.3757661900   0.9725706800
| 52> C   -0.3197172300  -0.8953021800   0.8262759600
| 53> H   -0.0575203100  -1.3328036800   1.8069713400
| 54> C    0.1058757300   0.5691068600   0.8570189700
| 55> H   -6.1523213000   0.4558328000   1.7801931500
| 56> C    1.6466865900   0.5037865000   0.7169337400
| 57> H   -0.2171743400   1.0720715100   1.7743748700
| 58> H   -0.3304693600   1.1195828800   0.0162298500
| 59> C    2.0128352800  -0.9664276300   0.3484929800
| 60> H    2.1512541800   0.8078090000   1.6393130900
| 61> H    1.9894621300   1.1877587700  -0.0688301100
| 62> H    2.2558616800  -1.5088080300   1.2765411200
| 63> C    3.2702960000  -1.0448121700  -0.5512731800
| 64> C    0.3985125500  -1.1029485400  -1.6139589000
| 65> H    0.6181538900  -0.0388017300  -1.7466235700
| 66> H   -0.6498042900  -1.2556057300  -1.8887689300
| 67> H    1.0172482800  -1.6605137200  -2.3255264200
| 68> H    3.0442256400  -0.4704064900  -1.4651521300
| 69> C    3.6362724300  -2.4698454100  -0.9625123100
| 70> C    4.4045571400  -0.3236127800   0.1404010400
| 71> C    5.5177595700  -0.8803469300   0.6208710700
| 72> H    4.2581520700   0.7484257900   0.2638747600
| 73> H    5.6592222400  -1.9544891800   0.5044326400
| 74> C    6.6365009800  -0.1701112400   1.3379798400
| 75> C    6.3669549100   1.3115794800   1.5968649800
| 76> C    8.0075739300  -0.3918179100   0.6365778900
| 77> H    6.7344812500  -0.6602290200   2.3220080100
| 78> H    8.7471117700   0.1460676500   1.2492964100
| 79> C    8.0491598200   0.1898794700  -0.7776480500
| 80> C    8.4120161900  -1.8682625500   0.6160520700
| 81> H    6.2154916800   1.8710551700   0.6677394600
| 82> H    7.2138325000   1.7620536700   2.1257451700
| 83> H    5.4714334900   1.4460431900   2.2130503400
| 84> H    7.8413829400   1.2644380400  -0.7872787600
| 85> H    7.3085189400  -0.3032466300  -1.4186439000
| 86> H    9.0375149700   0.0373604900  -1.2254647100
| 87> H    8.3271551000  -2.3212668500   1.6108266100
| 88> H    9.4500689800  -1.9762957700   0.2825857500
| 89> H    7.7858198400  -2.4449455600  -0.0743049700
| 90> H    2.8877430000  -2.8896929100  -1.6373393800
| 91> H    3.7129917000  -3.1312668300  -0.0913560400
| 92> H    4.5994577200  -2.4840746300  -1.4842795600
| 93> *
| 94> %eprnmr
| 95>  Nuclei = all H { ssfc }
| 96>  SpinSpinRThresh 8.0
| 97> end
| 98> 
| 99>                          ****END OF INPUT****
================================================================================

                       ****************************
                       * Single Point Calculation *
                       ****************************

---------------------------------
CARTESIAN COORDINATES (ANGSTROEM)
---------------------------------
  C     -5.018987    0.215358   -0.455532
  C     -6.471309   -0.177137   -0.590215
  C     -7.356814    0.743052    0.259714
  H     -6.619845   -1.221185   -0.292101
  H     -6.789576   -0.075092   -1.638334
  C     -4.752321    1.640554   -0.751150
  C     -5.662484    2.609419   -0.029251
  C     -7.138725    2.202783   -0.141534
  H     -5.512481    3.625334   -0.409913
  H     -5.380290    2.620416    1.034577
  H     -7.476789    2.329765   -1.179043
  H     -7.756867    2.852223    0.489024
  O     -7.109397    0.534408    1.660110
  H     -8.410447    0.476273    0.110879
  C     -4.088356   -0.672427   -0.031263
  C     -3.814286    2.045055   -1.614441
  H     -3.181785    1.332429   -2.137094
  H     -3.665506    3.101648   -1.824440
  C     -2.697701   -0.385985    0.236617
  H     -4.438665   -1.687427    0.152464
  C     -1.741337   -1.283234    0.557310
  H     -2.411748    0.661963    0.181211
  C     -1.930948   -2.775451    0.651131
  C     -0.937582   -3.526796   -0.256381
  H     -2.952944   -3.081759    0.412443
  H     -1.737736   -3.076800    1.692959
  C      0.515229   -3.082739   -0.038733
  H     -1.221810   -3.368423   -1.304415
  H     -1.023778   -4.604200   -0.069414
  C      0.676469   -1.562571   -0.176295
  H      1.158314   -3.618124   -0.744546
  H      0.835276   -3.375766    0.972571
  C     -0.319717   -0.895302    0.826276
  H     -0.057520   -1.332804    1.806971
  C      0.105876    0.569107    0.857019
  H     -6.152321    0.455833    1.780193
  C      1.646687    0.503787    0.716934
  H     -0.217174    1.072072    1.774375
  H     -0.330469    1.119583    0.016230
  C      2.012835   -0.966428    0.348493
  H      2.151254    0.807809    1.639313
  H      1.989462    1.187759   -0.068830
  H      2.255862   -1.508808    1.276541
  C      3.270296   -1.044812   -0.551273
  C      0.398513   -1.102949   -1.613959
  H      0.618154   -0.038802   -1.746624
  H     -0.649804   -1.255606   -1.888769
  H      1.017248   -1.660514   -2.325526
  H      3.044226   -0.470406   -1.465152
  C      3.636272   -2.469845   -0.962512
  C      4.404557   -0.323613    0.140401
  C      5.517760   -0.880347    0.620871
  H      4.258152    0.748426    0.263875
  H      5.659222   -1.954489    0.504433
  C      6.636501   -0.170111    1.337980
  C      6.366955    1.311579    1.596865
  C      8.007574   -0.391818    0.636578
  H      6.734481   -0.660229    2.322008
  H      8.747112    0.146068    1.249296
  C      8.049160    0.189879   -0.777648
  C      8.412016   -1.868263    0.616052
  H      6.215492    1.871055    0.667739
  H      7.213832    1.762054    2.125745
  H      5.471433    1.446043    2.213050
  H      7.841383    1.264438   -0.787279
  H      7.308519   -0.303247   -1.418644
  H      9.037515    0.037360   -1.225465
  H      8.327155   -2.321267    1.610827
  H      9.450069   -1.976296    0.282586
  H      7.785820   -2.444946   -0.074305
  H      2.887743   -2.889693   -1.637339
  H      3.712992   -3.131267   -0.091356
  H      4.599458   -2.484075   -1.484280

----------------------------
CARTESIAN COORDINATES (A.U.)
----------------------------
  NO LB      ZA    FRAG     MASS         X           Y           Z
   0 C     6.0000    0    12.011   -9.484511    0.406967   -0.860832
   1 C     6.0000    0    12.011  -12.229002   -0.334741   -1.115345
   2 C     6.0000    0    12.011  -13.902363    1.404164    0.490788
   3 H     1.0000    0     1.008  -12.509694   -2.307704   -0.551992
   4 H     1.0000    0     1.008  -12.830439   -0.141903   -3.096002
   5 C     6.0000    0    12.011   -8.980585    3.100198   -1.419468
   6 C     6.0000    0    12.011  -10.700544    4.931087   -0.055277
   7 C     6.0000    0    12.011  -13.490235    4.162658   -0.267461
   8 H     1.0000    0     1.008  -10.417079    6.850889   -0.774624
   9 H     1.0000    0     1.008  -10.167274    4.951869    1.955068
  10 H     1.0000    0     1.008  -14.129083    4.402617   -2.228068
  11 H     1.0000    0     1.008  -14.658354    5.389921    0.924121
  12 O     8.0000    0    15.999  -13.434813    1.009885    3.137154
  13 H     1.0000    0     1.008  -15.893441    0.900026    0.209531
  14 C     6.0000    0    12.011   -7.725872   -1.270703   -0.059079
  15 C     6.0000    0    12.011   -7.207956    3.864594   -3.050851
  16 H     1.0000    0     1.008   -6.012703    2.517925   -4.038523
  17 H     1.0000    0     1.008   -6.926803    5.861265   -3.447692
  18 C     6.0000    0    12.011   -5.097916   -0.729407    0.447141
  19 H     1.0000    0     1.008   -8.387861   -3.188775    0.288116
  20 C     6.0000    0    12.011   -3.290650   -2.424960    1.053163
  21 H     1.0000    0     1.008   -4.557543    1.250930    0.342439
  22 C     6.0000    0    12.011   -3.648963   -5.244843    1.230459
  23 C     6.0000    0    12.011   -1.771774   -6.664679   -0.484490
  24 H     1.0000    0     1.008   -5.580256   -5.823680    0.779404
  25 H     1.0000    0     1.008   -3.283845   -5.814310    3.199230
  26 C     6.0000    0    12.011    0.973642   -5.825532   -0.073195
  27 H     1.0000    0     1.008   -2.308886   -6.365396   -2.464986
  28 H     1.0000    0     1.008   -1.934659   -8.700677   -0.131173
  29 C     6.0000    0    12.011    1.278340   -2.952831   -0.333150
  30 H     1.0000    0     1.008    2.188895   -6.837263   -1.406988
  31 H     1.0000    0     1.008    1.578442   -6.379274    1.837892
  32 C     6.0000    0    12.011   -0.604178   -1.691876    1.561435
  33 H     1.0000    0     1.008   -0.108698   -2.518634    3.414681
  34 C     6.0000    0    12.011    0.200076    1.075456    1.619531
  35 H     1.0000    0     1.008  -11.626202    0.861399    3.364078
  36 C     6.0000    0    12.011    3.111787    0.952019    1.354808
  37 H     1.0000    0     1.008   -0.410400    2.025922    3.353083
  38 H     1.0000    0     1.008   -0.624497    2.115705    0.030670
  39 C     6.0000    0    12.011    3.803707   -1.826284    0.658556
  40 H     1.0000    0     1.008    4.065281    1.526538    3.097853
  41 H     1.0000    0     1.008    3.759539    2.244539   -0.130070
  42 H     1.0000    0     1.008    4.262961   -2.851234    2.412313
  43 C     6.0000    0    12.011    6.179964   -1.974409   -1.041755
  44 C     6.0000    0    12.011    0.753080   -2.084271   -3.049940
  45 H     1.0000    0     1.008    1.168142   -0.073325   -3.300640
  46 H     1.0000    0     1.008   -1.227952   -2.372751   -3.569256
  47 H     1.0000    0     1.008    1.922321   -3.137916   -4.394608
  48 H     1.0000    0     1.008    5.752753   -0.888939   -2.768736
  49 C     6.0000    0    12.011    6.871559   -4.667331   -1.818885
  50 C     6.0000    0    12.011    8.323407   -0.611540    0.265320
  51 C     6.0000    0    12.011   10.427054   -1.663615    1.173276
  52 H     1.0000    0     1.008    8.046741    1.414320    0.498651
  53 H     1.0000    0     1.008   10.694380   -3.693449    0.953240
  54 C     6.0000    0    12.011   12.541169   -0.321464    2.528415
  55 C     6.0000    0    12.011   12.031801    2.478526    3.017637
  56 C     6.0000    0    12.011   15.132122   -0.740429    1.202958
  57 H     1.0000    0     1.008   12.726325   -1.247652    4.387959
  58 H     1.0000    0     1.008   16.529646    0.276028    2.360828
  59 C     6.0000    0    12.011   15.210708    0.358820   -1.469542
  60 C     6.0000    0    12.011   15.896407   -3.530505    1.164170
  61 H     1.0000    0     1.008   11.745577    3.535782    1.261845
  62 H     1.0000    0     1.008   13.632168    3.329799    4.017076
  63 H     1.0000    0     1.008   10.339511    2.732626    4.182059
  64 H     1.0000    0     1.008   14.818066    2.389442   -1.487741
  65 H     1.0000    0     1.008   13.811099   -0.573053   -2.680848
  66 H     1.0000    0     1.008   17.078428    0.070601   -2.315793
  67 H     1.0000    0     1.008   15.736043   -4.386559    3.044021
  68 H     1.0000    0     1.008   17.858042   -3.734658    0.534010
  69 H     1.0000    0     1.008   14.713067   -4.620278   -0.140416
  70 H     1.0000    0     1.008    5.457043   -5.460728   -3.094123
  71 H     1.0000    0     1.008    7.016537   -5.917237   -0.172638
  72 H     1.0000    0     1.008    8.691715   -4.694221   -2.804882

--------------------------------
INTERNAL COORDINATES (ANGSTROEM)
--------------------------------
 C      0   0   0     0.000000000000     0.00000000     0.00000000
 C      1   0   0     1.510440719610     0.00000000     0.00000000
 C      2   1   0     1.534029249023   110.47218563     0.00000000
 H      2   1   3     1.095887620437   110.70952143   237.85889500
 H      2   1   3     1.100117974924   109.81719660   118.74046596
 C      1   2   3     1.479758593566   113.93717462   306.13500359
 C      6   1   2     1.512690920245   114.40019513    49.80834959
 C      3   2   1     1.529503015469   110.17148666    56.73775129
 H      7   6   1     1.095211850927   110.23304057   188.70555502
 H      7   6   1     1.100674837636   108.26365898    72.03587022
 H      8   3   2     1.098560737331   108.31229505    64.42944452
 H      8   3   2     1.096118092401   109.52013987   181.43116844
 O      3   2   1     1.437309241100   110.69416909   292.70429365
 H      3   2   1     1.097025378365   109.47321296   177.18101007
 C      1   2   3     1.354341336239   121.21846913   122.88568970
 C      6   1   2     1.337460489629   123.13589302   231.76985575
 H     16   6   1     1.086766068112   121.35201799   359.00672301
 H     16   6   1     1.087485239734   120.96038045   178.40279465
 C     15   1   2     1.444897600566   126.12000706   185.22586648
 H     15   1   2     1.089356350944   116.27196419     3.15246875
 C     19  15   1     1.350011291065   126.44857834   185.61500856
 H     19  15   1     1.087674539023   115.75936351     6.34465066
 C     21  19  15     1.507139346875   125.71161236     2.31130987
 C     23  21  19     1.541062108717   111.40561146   124.46102361
 H     23  21  19     1.093285199975   112.42118087     0.83431514
 H     23  21  19     1.101611834003   107.91776537   242.96744723
 C     24  23  21     1.534672219159   112.68258854    51.26533990
 H     24  23  21     1.097379196860   108.97100867   289.12105720
 H     24  23  21     1.096898247726   109.13867187   173.18354199
 C     27  24  23     1.534872326612   111.92017710   306.26758372
 H     27  24  23     1.094699503159   108.85448691   182.69172904
 H     27  24  23     1.100468003902   109.18370222    66.27597839
 C     21  19  15     1.497943819939   122.87777217   180.30843407
 H     33  21  19     1.105404096117   106.37428356   127.34538453
 C     33  21  19     1.525309259363   121.13516935     4.80944505
 H     13   3   2     0.967774574335   107.63285801    42.44706872
 C     35  33  21     1.548544066983   103.60968833   197.02157408
 H     35  33  21     1.094932250937   112.06017970    75.03819691
 H     35  33  21     1.095603591849   110.84170064   315.40355449
 C     30  27  24     1.554562648459   116.09472397   166.00682743
 H     37  35  33     1.094441318066   111.76293557   248.89148520
 H     37  35  33     1.096694107269   110.45674693   130.32555871
 H     40  30  27     1.102048855341   106.56588602   320.59976836
 C     40  30  27     1.548202422532   118.85541964    80.85513769
 C     30  27  24     1.534727599080   111.19496618   294.05866091
 H     45  30  27     1.094646365790   111.61242036   186.28423167
 H     45  30  27     1.094437283390   111.52593095    66.27789407
 H     45  30  27     1.095463905862   110.71706908   306.15100543
 H     44  40  30     1.102825656276   106.78198708    61.85298779
 C     44  40  30     1.527670155650   113.46889059   302.76982001
 C     44  40  30     1.511651454689   108.62425395   176.38477159
 C     51  44  40     1.334175405883   126.28229343   113.16747037
 H     51  44  40     1.089011891404   114.87635443   294.70176575
 H     52  51  44     1.089656445041   118.76281505     1.06361653
 C     52  51  44     1.506738884415   126.45667042   181.46297953
 C     55  52  51     1.528098160885   113.99883872     4.55237131
 C     55  52  51     1.555943307839   111.87360802   236.59118808
 H     55  52  51     1.103687913740   106.31545420   122.39252827
 H     57  55  52     1.100754776142   105.75160666   181.20660389
 C     57  55  52     1.529750384054   112.73800946    63.29989328
 C     57  55  52     1.530974730668   112.10121442   298.10051369
 H     56  55  52     1.095092868052   112.08825829   299.63842537
 H     56  55  52     1.095373408329   110.13205890   179.56898932
 H     56  55  52     1.095318903728   111.01169980    59.93233417
 H     60  57  55     1.094504501041   112.10472786    58.32808538
 H     60  57  55     1.096630267385   110.54977996   297.83552263
 H     60  57  55     1.095740709641   110.45164159   178.45991114
 H     61  57  55     1.096353358113   111.46065408   310.15118756
 H     61  57  55     1.095638881213   110.45427324   190.10491064
 H     61  57  55     1.096028286794   111.40330924    70.92986962
 H     50  44  40     1.091769117184   111.15312169    67.89776007
 H     50  44  40     1.096484102933   111.44330933   307.51789831
 H     50  44  40     1.095522449221   110.54552324   187.39941487

---------------------------
INTERNAL COORDINATES (A.U.)
---------------------------
 C      0   0   0     0.000000000000     0.00000000     0.00000000
 C      1   0   0     2.854319301586     0.00000000     0.00000000
 C      2   1   0     2.898895162078   110.47218563     0.00000000
 H      2   1   3     2.070927476181   110.70952143   237.85889500
 H      2   1   3     2.078921687610   109.81719660   118.74046596
 C      1   2   3     2.796338486157   113.93717462   306.13500359
 C      6   1   2     2.858571564533   114.40019513    49.80834959
 C      3   2   1     2.890341820242   110.17148666    56.73775129
 H      7   6   1     2.069650456876   110.23304057   188.70555502
 H      7   6   1     2.079974005631   108.26365898    72.03587022
 H      8   3   2     2.075978935035   108.31229505    64.42944452
 H      8   3   2     2.071363005075   109.52013987   181.43116844
 O      3   2   1     2.716120835433   110.69416909   292.70429365
 H      3   2   1     2.073077527070   109.47321296   177.18101007
 C      1   2   3     2.559334217340   121.21846913   122.88568970
 C      6   1   2     2.527434040339   123.13589302   231.76985575
 H     16   6   1     2.053690240370   121.35201799   359.00672301
 H     16   6   1     2.055049277779   120.96038045   178.40279465
 C     15   1   2     2.730460756630   126.12000706   185.22586648
 H     15   1   2     2.058585165531   116.27196419     3.15246875
 C     19  15   1     2.551151617814   126.44857834   185.61500856
 H     19  15   1     2.055407001592   115.75936351     6.34465066
 C     21  19  15     2.848080611250   125.71161236     2.31130987
 C     23  21  19     2.912185340839   111.40561146   124.46102361
 H     23  21  19     2.066009614222   112.42118087     0.83431514
 H     23  21  19     2.081744672152   107.91776537   242.96744723
 C     24  23  21     2.900110199548   112.68258854    51.26533990
 H     24  23  21     2.073746147128   108.97100867   289.12105720
 H     24  23  21     2.072837284981   109.13867187   173.18354199
 C     27  24  23     2.900488347831   111.92017710   306.26758372
 H     27  24  23     2.068682259911   108.85448691   182.69172904
 H     27  24  23     2.079583146517   109.18370222    66.27597839
 C     21  19  15     2.830703583685   122.87777217   180.30843407
 H     33  21  19     2.088911008977   106.37428356   127.34538453
 C     33  21  19     2.882416769731   121.13516935     4.80944505
 H     13   3   2     1.828828904865   107.63285801    42.44706872
 C     35  33  21     2.926324192907   103.60968833   197.02157408
 H     35  33  21     2.069122089468   112.06017970    75.03819691
 H     35  33  21     2.070390739935   110.84170064   315.40355449
 C     30  27  24     2.937697663611   116.09472397   166.00682743
 H     37  35  33     2.068194360793   111.76293557   248.89148520
 H     37  35  33     2.072451515423   110.45674693   130.32555871
 H     40  30  27     2.082570522796   106.56588602   320.59976836
 C     40  30  27     2.925678578460   118.85541964    80.85513769
 C     30  27  24     2.900214852432   111.19496618   294.05866091
 H     45  30  27     2.068581844835   111.61242036   186.28423167
 H     45  30  27     2.068186736361   111.52593095    66.27789407
 H     45  30  27     2.070126771675   110.71706908   306.15100543
 H     44  40  30     2.084038463823   106.78198708    61.85298779
 C     44  40  30     2.886878217143   113.46889059   302.76982001
 C     44  40  30     2.856607259306   108.62425395   176.38477159
 C     51  44  40     2.521226131732   126.28229343   113.16747037
 H     51  44  40     2.057934231338   114.87635443   294.70176575
 H     52  51  44     2.059152261190   118.76281505     1.06361653
 C     52  51  44     2.847323846875   126.45667042   181.46297953
 C     55  52  51     2.887687029821   113.99883872     4.55237131
 C     55  52  51     2.940306731723   111.87360802   236.59118808
 H     55  52  51     2.085667894287   106.31545420   122.39252827
 H     57  55  52     2.080125067514   105.75160666   181.20660389
 C     57  55  52     2.890809279124   112.73800946    63.29989328
 C     57  55  52     2.893122958917   112.10121442   298.10051369
 H     56  55  52     2.069425611829   112.08825829   299.63842537
 H     56  55  52     2.069955756122   110.13205890   179.56898932
 H     56  55  52     2.069852757353   111.01169980    59.93233417
 H     60  57  55     2.068313759311   112.10472786    58.32808538
 H     60  57  55     2.072330875527   110.54977996   297.83552263
 H     60  57  55     2.070649855011   110.45164159   178.45991114
 H     61  57  55     2.071807592839   111.46065408   310.15118756
 H     61  57  55     2.070457427168   110.45427324   190.10491064
 H     61  57  55     2.071193297072   111.40330924    70.92986962
 H     50  44  40     2.063144632951   111.15312169    67.89776007
 H     50  44  40     2.072054664741   111.44330933   307.51789831
 H     50  44  40     2.070237402590   110.54552324   187.39941487

---------------------
BASIS SET INFORMATION
---------------------
There are 3 groups of distinct atoms

 Group   1 Type C   : 7s4p contracted to 4s3p pattern {4111/211}
 Group   2 Type H   : 5s contracted to 3s pattern {311}
 Group   3 Type O   : 7s4p contracted to 4s3p pattern {4111/211}

Atom   0C    basis set group =>   1
Atom   1C    basis set group =>   1
Atom   2C    basis set group =>   1
Atom   3H    basis set group =>   2
Atom   4H    basis set group =>   2
Atom   5C    basis set group =>   1
Atom   6C    basis set group =>   1
Atom   7C    basis set group =>   1
Atom   8H    basis set group =>   2
Atom   9H    basis set group =>   2
Atom  10H    basis set group =>   2
Atom  11H    basis set group =>   2
Atom  12O    basis set group =>   3
Atom  13H    basis set group =>   2
Atom  14C    basis set group =>   1
Atom  15C    basis set group =>   1
Atom  16H    basis set group =>   2
Atom  17H    basis set group =>   2
Atom  18C    basis set group =>   1
Atom  19H    basis set group =>   2
Atom  20C    basis set group =>   1
Atom  21H    basis set group =>   2
Atom  22C    basis set group =>   1
Atom  23C    basis set group =>   1
Atom  24H    basis set group =>   2
Atom  25H    basis set group =>   2
Atom  26C    basis set group =>   1
Atom  27H    basis set group =>   2
Atom  28H    basis set group =>   2
Atom  29C    basis set group =>   1
Atom  30H    basis set group =>   2
Atom  31H    basis set group =>   2
Atom  32C    basis set group =>   1
Atom  33H    basis set group =>   2
Atom  34C    basis set group =>   1
Atom  35H    basis set group =>   2
Atom  36C    basis set group =>   1
Atom  37H    basis set group =>   2
Atom  38H    basis set group =>   2
Atom  39C    basis set group =>   1
Atom  40H    basis set group =>   2
Atom  41H    basis set group =>   2
Atom  42H    basis set group =>   2
Atom  43C    basis set group =>   1
Atom  44C    basis set group =>   1
Atom  45H    basis set group =>   2
Atom  46H    basis set group =>   2
Atom  47H    basis set group =>   2
Atom  48H    basis set group =>   2
Atom  49C    basis set group =>   1
Atom  50C    basis set group =>   1
Atom  51C    basis set group =>   1
Atom  52H    basis set group =>   2
Atom  53H    basis set group =>   2
Atom  54C    basis set group =>   1
Atom  55C    basis set group =>   1
Atom  56C    basis set group =>   1
Atom  57H    basis set group =>   2
Atom  58H    basis set group =>   2
Atom  59C    basis set group =>   1
Atom  60C    basis set group =>   1
Atom  61H    basis set group =>   2
Atom  62H    basis set group =>   2
Atom  63H    basis set group =>   2
Atom  64H    basis set group =>   2
Atom  65H    basis set group =>   2
Atom  66H    basis set group =>   2
Atom  67H    basis set group =>   2
Atom  68H    basis set group =>   2
Atom  69H    basis set group =>   2
Atom  70H    basis set group =>   2
Atom  71H    basis set group =>   2
Atom  72H    basis set group =>   2

-------------------------
BASIS SET IN INPUT FORMAT
-------------------------

 # Basis set for element : H 
 NewGTO H 
 S 3 
   1    1357.7500000000      0.0012928364
   2      54.3100000000      0.0588280685
   3       4.3448000000      0.9761499708
 S 1 
   1       0.6604910000      1.0000000000
 S 1 
   1       0.1366870000      1.0000000000
  end;

 # Basis set for element : C 
 NewGTO C 
 S 4 
   1  139534.0000000000      0.0001655246
   2    5581.3600000000      0.0074486101
   3     446.5090000000      0.1285821065
   4      67.4620000000      0.9218029311
 S 1 
   1      15.0674000000      1.0000000000
 S 1 
   1       3.9387600000      1.0000000000
 S 1 
   1       0.2999150000      1.0000000000
 P 2 
   1      28.3900000000      0.0816325586
   2       4.3676900000      0.9660360576
 P 1 
   1       0.8698170000      1.0000000000
 P 1 
   1       0.1889340000      1.0000000000
  end;

 # Basis set for element : O 
 NewGTO O 
 S 4 
   1  253789.0000000000      0.0001641076
   2   10151.6000000000      0.0074010921
   3     812.1250000000      0.1277711901
   4     122.6930000000      0.9223372164
 S 1 
   1      27.5608000000      1.0000000000
 S 1 
   1       7.3172600000      1.0000000000
 S 1 
   1       0.5792400000      1.0000000000
 P 2 
   1      53.4157000000      0.0793786106
   2       8.2177900000      0.9670506337
 P 1 
   1       1.6754400000      1.0000000000
 P 1 
   1       0.3506720000      1.0000000000
  end;

---------------------------------
AUXILIARY/J BASIS SET INFORMATION
---------------------------------
There are 3 groups of distinct atoms

 Group   1 Type C   : 12s5p4d2f1g contracted to 6s4p3d1f1g pattern {711111/2111/211/2/1}
 Group   2 Type H   : 5s2p1d contracted to 3s1p1d pattern {311/2/1}
 Group   3 Type O   : 12s5p4d2f1g contracted to 6s4p3d1f1g pattern {711111/2111/211/2/1}

Atom   0C    basis set group =>   1
Atom   1C    basis set group =>   1
Atom   2C    basis set group =>   1
Atom   3H    basis set group =>   2
Atom   4H    basis set group =>   2
Atom   5C    basis set group =>   1
Atom   6C    basis set group =>   1
Atom   7C    basis set group =>   1
Atom   8H    basis set group =>   2
Atom   9H    basis set group =>   2
Atom  10H    basis set group =>   2
Atom  11H    basis set group =>   2
Atom  12O    basis set group =>   3
Atom  13H    basis set group =>   2
Atom  14C    basis set group =>   1
Atom  15C    basis set group =>   1
Atom  16H    basis set group =>   2
Atom  17H    basis set group =>   2
Atom  18C    basis set group =>   1
Atom  19H    basis set group =>   2
Atom  20C    basis set group =>   1
Atom  21H    basis set group =>   2
Atom  22C    basis set group =>   1
Atom  23C    basis set group =>   1
Atom  24H    basis set group =>   2
Atom  25H    basis set group =>   2
Atom  26C    basis set group =>   1
Atom  27H    basis set group =>   2
Atom  28H    basis set group =>   2
Atom  29C    basis set group =>   1
Atom  30H    basis set group =>   2
Atom  31H    basis set group =>   2
Atom  32C    basis set group =>   1
Atom  33H    basis set group =>   2
Atom  34C    basis set group =>   1
Atom  35H    basis set group =>   2
Atom  36C    basis set group =>   1
Atom  37H    basis set group =>   2
Atom  38H    basis set group =>   2
Atom  39C    basis set group =>   1
Atom  40H    basis set group =>   2
Atom  41H    basis set group =>   2
Atom  42H    basis set group =>   2
Atom  43C    basis set group =>   1
Atom  44C    basis set group =>   1
Atom  45H    basis set group =>   2
Atom  46H    basis set group =>   2
Atom  47H    basis set group =>   2
Atom  48H    basis set group =>   2
Atom  49C    basis set group =>   1
Atom  50C    basis set group =>   1
Atom  51C    basis set group =>   1
Atom  52H    basis set group =>   2
Atom  53H    basis set group =>   2
Atom  54C    basis set group =>   1
Atom  55C    basis set group =>   1
Atom  56C    basis set group =>   1
Atom  57H    basis set group =>   2
Atom  58H    basis set group =>   2
Atom  59C    basis set group =>   1
Atom  60C    basis set group =>   1
Atom  61H    basis set group =>   2
Atom  62H    basis set group =>   2
Atom  63H    basis set group =>   2
Atom  64H    basis set group =>   2
Atom  65H    basis set group =>   2
Atom  66H    basis set group =>   2
Atom  67H    basis set group =>   2
Atom  68H    basis set group =>   2
Atom  69H    basis set group =>   2
Atom  70H    basis set group =>   2
Atom  71H    basis set group =>   2
Atom  72H    basis set group =>   2

-------------------------------------
AUXILIARY/J BASIS SET IN INPUT FORMAT
-------------------------------------

 # Auxiliary/J basis set for element : H 
 NewAuxJGTO H 
 S 3 
   1      15.6752927000      0.1007184237
   2       3.6063578000      0.3404257499
   3       1.2080016000      0.6491996172
 S 1 
   1       0.4726794000      1.0000000000
 S 1 
   1       0.2018100000      1.0000000000
 P 2 
   1       2.0281365000      0.5596620919
   2       0.5358730000      0.5596620919
 D 1 
   1       2.2165124000      1.0000000000
  end;

 # Auxiliary/J basis set for element : C 
 NewAuxJGTO C 
 S 7 
   1    1861.0916331000      0.0134602335
   2     642.9939764000      0.0299160374
   3     235.1105725000      0.1008649584
   4      90.7028894000      0.2370970548
   5      36.7794552000      0.3924037254
   6      15.6046273000      0.3195862154
   7       6.8907294000      0.0530104441
 S 1 
   1       3.1478850000     -1.0000000000
 S 1 
   1       1.4777287000      1.0000000000
 S 1 
   1       0.7076466000      1.0000000000
 S 1 
   1       0.3430122000      1.0000000000
 S 1 
   1       0.1669453000      1.0000000000
 P 2 
   1      13.5472892000     -0.6769313712
   2       5.4669419000     -0.3779500978
 P 1 
   1       2.1751721000      1.0000000000
 P 1 
   1       0.8582194000      1.0000000000
 P 1 
   1       0.3376720000      1.0000000000
 D 2 
   1       5.9287253000     -0.3533329857
   2       1.9809209000     -0.7456525731
 D 1 
   1       0.8055417000     -1.0000000000
 D 1 
   1       0.3531244000     -1.0000000000
 F 2 
   1       1.6755626000      0.6311076882
   2       0.5997536000      0.4968166032
 G 1 
   1       1.0024600000     -1.0000000000
  end;

 # Auxiliary/J basis set for element : O 
 NewAuxJGTO O 
 S 7 
   1    2876.8216605000      0.0168151159
   2    1004.7443032000      0.0340137548
   3     369.7579954000      0.1194951309
   4     142.9442404000      0.2664627624
   5      57.8366425000      0.4202764046
   6      24.3864983000      0.2765077335
   7      10.6622662000      0.0057008815
 S 1 
   1       4.8070437000     -1.0000000000
 S 1 
   1       2.2210770000      1.0000000000
 S 1 
   1       1.0447795000      1.0000000000
 S 1 
   1       0.4968425000      1.0000000000
 S 1 
   1       0.2371384000      1.0000000000
 P 2 
   1      64.2613382000     -0.2731534179
   2      16.3006076000     -0.8168011598
 P 1 
   1       4.3550542000      1.0000000000
 P 1 
   1       1.2019554000      1.0000000000
 P 1 
   1       0.3354196000      1.0000000000
 D 2 
   1       9.2146611000     -0.4661230638
   2       2.8435251000     -0.6600908911
 D 1 
   1       0.9955759000     -1.0000000000
 D 1 
   1       0.3649441000     -1.0000000000
 F 2 
   1       2.6420115000      0.5931563945
   2       0.7345613000      0.5931563945
 G 1 
   1       1.3931000000     -1.0000000000
  end;



           ************************************************************
           *        Program running with 4 parallel MPI-processes     *
           *              working on a common directory               *
           ************************************************************
------------------------------------------------------------------------------
                           ORCA GTO INTEGRAL CALCULATION
                           -- RI-GTO INTEGRALS CHOSEN --
------------------------------------------------------------------------------
------------------------------------------------------------------------------
                   ___                                                        
                  /   \      - P O W E R E D   B Y -                         
                 /     \                                                     
                 |  |  |   _    _      __       _____    __    __             
                 |  |  |  | |  | |    /  \     |  _  \  |  |  /  |          
                  \  \/   | |  | |   /    \    | | | |  |  | /  /          
                 / \  \   | |__| |  /  /\  \   | |_| |  |  |/  /          
                |  |  |   |  __  | /  /__\  \  |    /   |      \           
                |  |  |   | |  | | |   __   |  |    \   |  |\   \          
                \     /   | |  | | |  |  |  |  | |\  \  |  | \   \       
                 \___/    |_|  |_| |__|  |__|  |_| \__\ |__|  \__/        
                                                                              
                      - O R C A' S   B I G   F R I E N D -                    
                                      &                                       
                       - I N T E G R A L  F E E D E R -                       
                                                                              
 v1 FN, 2020, v2 2021                                                         
------------------------------------------------------------------------------


Reading SHARK input file inpJ.SHARKINP.tmp ... ok
----------------------
SHARK INTEGRAL PACKAGE
----------------------

Number of atoms                             ...     73
Number of basis functions                   ...    509
Number of shells                            ...    335
Maximum angular momentum                    ...      1
Integral batch strategy                     ... SHARK/LIBINT Hybrid
RI-J (if used) integral strategy            ... SPLIT-RIJ (Revised 2003 algorithm where possible)
Printlevel                                  ...      1
Contraction scheme used                     ... SEGMENTED contraction
Coulomb Range Separation                    ... NOT USED
Exchange Range Separation                   ... NOT USED
Finite Nucleus Model                        ... NOT USED
Auxiliary Coulomb fitting basis             ... AVAILABLE
   # of basis functions in Aux-J            ...   1905
   # of shells in Aux-J                     ...    655
   Maximum angular momentum in Aux-J        ...      4
Auxiliary J/K fitting basis                 ... NOT available
Auxiliary Correlation fitting basis         ... NOT available
Auxiliary 'external' fitting basis          ... NOT available
Integral threshold                          ...     3.000000e-11
Primitive cut-off                           ...     1.000000e-12
Primitive pair pre-selection threshold      ...     1.000000e-12

Calculating pre-screening integrals         ... done (  0.0 sec) Dimension = 335
Organizing shell pair data                  ... done (  0.1 sec)
Shell pair information
Total number of shell pairs                 ...     56280
Shell pairs after pre-screening             ...     21758
Total number of primitive shell pairs       ...    145865
Primitive shell pairs kept                  ...     37420
          la=0 lb=0:  10941 shell pairs
          la=1 lb=0:   8957 shell pairs
          la=1 lb=1:   1860 shell pairs

Calculating one electron integrals          ... done (  0.0 sec)
Calculating RI/J V-Matrix + Cholesky decomp.... done (  0.2 sec)
Calculating Nuclear repulsion               ... done (  0.0 sec) ENN=   2777.068677506958 Eh

SHARK setup successfully completed in   0.5 seconds

Maximum memory used throughout the entire GTOINT-calculation: 46.2 MB


           ************************************************************
           *        Program running with 4 parallel MPI-processes     *
           *              working on a common directory               *
           ************************************************************
-------------------------------------------------------------------------------
                                 ORCA SCF
-------------------------------------------------------------------------------

------------
SCF SETTINGS
------------
Hamiltonian:
 Density Functional     Method          .... DFT(GTOs)
 Exchange Functional    Exchange        .... PBE
   PBE kappa parameter   XKappa         ....  0.804000
   PBE mue parameter    XMuePBE         ....  0.219520
 Correlation Functional Correlation     .... PBE
   PBE beta parameter  CBetaPBE         ....  0.066725
 LDA part of GGA corr.  LDAOpt          .... PW91-LDA
 Gradients option       PostSCFGGA      .... off
 Hybrid DFT is turned on
   Fraction HF Exchange ScalHFX         ....  0.250000
   Scaling of DF-GGA-X  ScalDFX         ....  0.750000
   Scaling of DF-GGA-C  ScalDFC         ....  1.000000
   Scaling of DF-LDA-C  ScalLDAC        ....  1.000000
   Perturbative correction              ....  0.000000
   Density functional embedding theory  .... OFF
   NL short-range parameter             ....  6.900000
 RI-approximation to the Coulomb term is turned on
   Number of AuxJ basis functions       .... 1905
   RIJ-COSX (HFX calculated with COS-X)).... on


General Settings:
 Integral files         IntName         .... inpJ
 Hartree-Fock type      HFTyp           .... RHF
 Total Charge           Charge          ....    0
 Multiplicity           Mult            ....    1
 Number of Electrons    NEL             ....  220
 Basis Dimension        Dim             ....  509
 Nuclear Repulsion      ENuc            ....   2777.0686775070 Eh

Convergence Acceleration:
 DIIS                   CNVDIIS         .... on
   Start iteration      DIISMaxIt       ....    12
   Startup error        DIISStart       ....  0.200000
   # of expansion vecs  DIISMaxEq       ....     5
   Bias factor          DIISBfac        ....   1.050
   Max. coefficient     DIISMaxC        ....  10.000
 Trust-Rad. Augm. Hess. CNVTRAH         .... auto
   Auto Start mean grad. ratio tolernc. ....  1.125000
   Auto Start start iteration           ....    20
   Auto Start num. interpolation iter.  ....    10
   Max. Number of Micro iterations      ....    16
   Max. Number of Macro iterations      .... Maxiter - #DIIS iter
   Number of Davidson start vectors     ....     2
   Converg. threshold I  (grad. norm)   ....   1.000e-04
   Converg. threshold II (energy diff.) ....   1.000e-07
   Grad. Scal. Fac. for Micro threshold ....   0.100
   Minimum threshold for Micro iter.    ....   0.010
   NR start threshold (gradient norm)   ....   0.001
   Initial trust radius                 ....   0.400
   Minimum AH scaling param. (alpha)    ....   1.000
   Maximum AH scaling param. (alpha)    .... 1000.000
   Orbital update algorithm             .... Taylor
   White noise on init. David. guess    .... on
   Maximum white noise                  ....   0.010
   Quad. conv. algorithm                .... NR
 SOSCF                  CNVSOSCF        .... off
 Level Shifting         CNVShift        .... on
   Level shift para.    LevelShift      ....    0.2500
   Turn off err/grad.   ShiftErr        ....    0.0010
 Zerner damping         CNVZerner       .... off
 Static damping         CNVDamp         .... on
   Fraction old density DampFac         ....    0.7000
   Max. Damping (<1)    DampMax         ....    0.9800
   Min. Damping (>=0)   DampMin         ....    0.0000
   Turn off err/grad.   DampErr         ....    0.1000
 Fernandez-Rico         CNVRico         .... off

SCF Procedure:
 Maximum # iterations   MaxIter         ....   125
 SCF integral mode      SCFMode         .... Direct
   Integral package                     .... SHARK and LIBINT hybrid scheme
 Reset frequency        DirectResetFreq ....    20
 Integral Threshold     Thresh          ....  3.000e-11 Eh
 Primitive CutOff       TCut            ....  1.000e-12 Eh

Convergence Tolerance:
 Convergence Check Mode ConvCheckMode   .... Total+1el-Energy
 Convergence forced     ConvForced      .... 0
 Energy Change          TolE            ....  1.000e-07 Eh
 1-El. energy change                    ....  1.000e-04 Eh
 DIIS Error             TolErr          ....  1.000e-07


Diagonalization of the overlap matrix:
Smallest eigenvalue                        ... 7.571e-03
Time for diagonalization                   ...    0.037 sec
Threshold for overlap eigenvalues          ... 1.000e-08
Number of eigenvalues below threshold      ... 0
Time for construction of square roots      ...    0.028 sec
Total time needed                          ...    0.066 sec

Time for model grid setup =    0.777 sec

------------------------------
INITIAL GUESS: MODEL POTENTIAL
------------------------------
Loading Hartree-Fock densities                     ... done
Calculating cut-offs                               ... done
Initializing the effective Hamiltonian             ... done
Setting up the integral package (SHARK)            ... done
Starting the Coulomb interaction                   ... done (   0.4 sec)
Reading the grid                                   ... done
Mapping shells                                     ... done
Starting the XC term evaluation                    ... done (   0.2 sec)
  promolecular density results
     # of electrons  =    219.971518153
     EX              =   -164.433593368
     EC              =     -7.328825899
     EX+EC           =   -171.762419267
Transforming the Hamiltonian                       ... done (   0.0 sec)
Diagonalizing the Hamiltonian                      ... done (   0.0 sec)
Back transforming the eigenvectors                 ... done (   0.0 sec)
Now organizing SCF variables                       ... done
                      ------------------
                      INITIAL GUESS DONE (   1.4 sec)
                      ------------------
-------------------
DFT GRID GENERATION
-------------------

General Integration Accuracy     IntAcc      ... 4.388
Radial Grid Type                 RadialGrid  ... OptM3 with GC (2021)
Angular Grid (max. ang.)         AngularGrid ... 4 (Lebedev-302)
Angular grid pruning method      GridPruning ... 4 (adaptive)
Weight generation scheme         WeightScheme... Becke
Basis function cutoff            BFCut       ... 1.0000e-11
Integration weight cutoff        WCut        ... 1.0000e-14
Angular grids for H and He will be reduced by one unit
Partially contracted basis set               ... off
Rotationally invariant grid construction     ... off

Total number of grid points                  ...   309857
Total number of batches                      ...     4880
Average number of points per batch           ...       63
Average number of grid points per atom       ...     4245
Time for grid setup =    3.153 sec

--------------------
COSX GRID GENERATION
--------------------

GRIDX 1
-------
General Integration Accuracy     IntAcc      ... 3.816
Radial Grid Type                 RadialGrid  ... OptM3 with GC (2021)
Angular Grid (max. ang.)         AngularGrid ... 1 (Lebedev-50)
Angular grid pruning method      GridPruning ... 4 (adaptive)
Weight generation scheme         WeightScheme... Becke
Basis function cutoff            BFCut       ... 1.0000e-11
Integration weight cutoff        WCut        ... 1.0000e-14
Angular grids for H and He will be reduced by one unit
Partially contracted basis set               ... on
Rotationally invariant grid construction     ... off

Total number of grid points                  ...    39420
Total number of batches                      ...      658
Average number of points per batch           ...       59
Average number of grid points per atom       ...      540
UseSFitting                                  ... on

GRIDX 2
-------
General Integration Accuracy     IntAcc      ... 4.020
Radial Grid Type                 RadialGrid  ... OptM3 with GC (2021)
Angular Grid (max. ang.)         AngularGrid ... 2 (Lebedev-110)
Angular grid pruning method      GridPruning ... 4 (adaptive)
Weight generation scheme         WeightScheme... Becke
Basis function cutoff            BFCut       ... 1.0000e-11
Integration weight cutoff        WCut        ... 1.0000e-14
Angular grids for H and He will be reduced by one unit
Partially contracted basis set               ... on
Rotationally invariant grid construction     ... off

Total number of grid points                  ...    81381
Total number of batches                      ...     1309
Average number of points per batch           ...       62
Average number of grid points per atom       ...     1115
UseSFitting                                  ... on

GRIDX 3
-------
General Integration Accuracy     IntAcc      ... 4.338
Radial Grid Type                 RadialGrid  ... OptM3 with GC (2021)
Angular Grid (max. ang.)         AngularGrid ... 3 (Lebedev-194)
Angular grid pruning method      GridPruning ... 4 (adaptive)
Weight generation scheme         WeightScheme... Becke
Basis function cutoff            BFCut       ... 1.0000e-11
Integration weight cutoff        WCut        ... 1.0000e-14
Angular grids for H and He will be reduced by one unit
Partially contracted basis set               ... on
Rotationally invariant grid construction     ... off

Total number of grid points                  ...   176190
Total number of batches                      ...     2789
Average number of points per batch           ...       63
Average number of grid points per atom       ...     2414
UseSFitting                                  ... on

Time for X-Grid setup             =    2.932 sec


--------------------
CPCM SOLVATION MODEL
--------------------
CPCM parameters:
  Epsilon                                         ...       4.9000
  Refrac                                          ...       1.4500
  Rsolv                                           ...       1.3000
  Surface type                                    ... GAUSSIAN VDW
  Epsilon function type                           ...         CPCM
Radii:
 Radius for C  used is    3.8550 Bohr (=   2.0400 Ang.)
 Radius for H  used is    2.4944 Bohr (=   1.3200 Ang.)
 Radius for O  used is    3.4469 Bohr (=   1.8240 Ang.)
Calculating surface                               ...        done! (  0.0s)
GEPOL surface points                              ...         3609
GEPOL Volume                                      ...    3580.2660
GEPOL Surface-area                                ...    1773.8396
Calculating surface distance matrix               ...        done! (  0.1s)
Performing Cholesky decomposition & store         ...        done! (  0.7s)
Overall time for CPCM initialization              ...                 0.8s
--------------
SCF ITERATIONS
--------------
ITER       Energy         Delta-E        Max-DP      RMS-DP      [F,P]     Damp
               ***  Starting incremental Fock matrix formation  ***

  HOMO= 109 E= -3.980 eV LUMO=  7.701 eV gap=  11.682 eV
  0  -1165.0091339986   0.000000000000 0.09741334  0.00106951  0.1964121 0.7000

  HOMO= 109 E= -4.847 eV LUMO=  7.017 eV gap=  11.864 eV
  1  -1165.2289739873  -0.219839988682 0.06535993  0.00078645  0.0951083 0.7000
                               ***Turning on DIIS***

  HOMO= 109 E= -5.446 eV LUMO=  6.468 eV gap=  11.915 eV
  2  -1165.3301272835  -0.101153296186 0.10336445  0.00138993  0.0375579 0.0000

  HOMO= 109 E= -6.003 eV LUMO=  5.939 eV gap=  11.943 eV
  3  -1165.4748113300  -0.144684046481 0.05140891  0.00057519  0.0460967 0.0000

  HOMO= 109 E= -6.073 eV LUMO=  5.868 eV gap=  11.941 eV
  4  -1165.5105748714  -0.035763541449 0.01167794  0.00013376  0.0059002 0.0000

  HOMO= 109 E= -6.022 eV LUMO=  5.926 eV gap=  11.948 eV
  5  -1165.5114268331  -0.000851961686 0.00250870  0.00003805  0.0051302 0.0000

  HOMO= 109 E= -6.008 eV LUMO=  5.941 eV gap=  11.949 eV
  6  -1165.5115056291  -0.000078796023 0.00118493  0.00001170  0.0010648 0.0000

  HOMO= 109 E= -6.010 eV LUMO= -0.864 eV gap=   5.146 eV
  7  -1165.5115107884  -0.000005159320 0.00050895  0.00000602  0.0002316 0.0000
               *** Restarting incremental Fock matrix formation ***
                                   *** Resetting DIIS ***

  HOMO= 109 E= -6.009 eV LUMO= -0.862 eV gap=   5.147 eV
  8  -1165.5115348954  -0.000024106943 0.00036252  0.00000287  0.0001183 0.0000

  HOMO= 109 E= -6.010 eV LUMO= -0.863 eV gap=   5.147 eV
  9  -1165.5115349265  -0.000000031122 0.00013480  0.00000131  0.0001587 0.0000

  HOMO= 109 E= -6.010 eV LUMO= -0.863 eV gap=   5.147 eV
 10  -1165.5115350495  -0.000000123048 0.00006391  0.00000039  0.0000327 0.0000

  HOMO= 109 E= -6.010 eV LUMO= -0.863 eV gap=   5.147 eV
 11  -1165.5115350753  -0.000000025756 0.00002599  0.00000018  0.0000193 0.0000

  HOMO= 109 E= -6.010 eV LUMO= -0.863 eV gap=   5.147 eV
 12  -1165.5115350644   0.000000010910 0.00000732  0.00000005  0.0000035 0.0000
                 **** Energy Check signals convergence ****

               *****************************************************
               *                     SUCCESS                       *
               *           SCF CONVERGED AFTER  13 CYCLES          *
               *****************************************************

Old exchange energy                            =    -42.068472504 Eh
New exchange energy                            =    -42.068438739 Eh
Exchange energy change after final integration =      0.000033765 Eh
Total energy after final integration           =  -1165.511501311 Eh
Final COS-X integration done in                =    13.143 sec

----------------
TOTAL SCF ENERGY
----------------

Total Energy       :        -1165.51150131 Eh          -31715.18032 eV

Components:
Nuclear Repulsion  :         2777.06867751 Eh           75567.88051 eV
Electronic Energy  :        -3942.58017882 Eh         -107283.06083 eV
One Electron Energy:        -7095.86652729 Eh         -193088.34463 eV
Two Electron Energy:         3153.28634847 Eh           85805.28380 eV
Max COSX asymmetry :            0.00000197 Eh               0.00005 eV
CPCM Dielectric    :           -0.01356684 Eh              -0.36917 eV

Virial components:
Potential Energy   :        -2322.40962702 Eh          -63195.97877 eV
Kinetic Energy     :         1156.89812571 Eh           31480.79845 eV
Virial Ratio       :            2.00744523


DFT components:
N(Alpha)           :      110.000061714559 electrons
N(Beta)            :      110.000061714559 electrons
N(Total)           :      220.000123429118 electrons
E(X)               :     -125.747490713683 Eh       
E(C)               :       -7.329204683929 Eh       
E(XC)              :     -133.076695397612 Eh       
DFET-embed. en.    :        0.000000000000 Eh       
CPCM Solvation Model Properties:
Surface-charge          :           -0.03445179
Charge-correction       :           -0.00008315 Eh              -0.00226 eV
Free-energy (cav+disp)  :  This term is not implemented in the current solvation scheme

---------------
SCF CONVERGENCE
---------------

  Last Energy change         ...   -1.1630e-08  Tolerance :   1.0000e-07
  Last MAX-Density change    ...    0.0000e+00  Tolerance :   1.0000e-05
  Last RMS-Density change    ...    0.0000e+00  Tolerance :   1.0000e-06
  Last DIIS Error            ...    2.3178e-06  Tolerance :   1.0000e-07

             **** THE GBW FILE WAS UPDATED (inpJ.gbw) ****
             **** DENSITY inpJ.scfp WAS UPDATED ****
             **** ENERGY FILE WAS UPDATED (inpJ.en.tmp) ****
             **** THE GBW FILE WAS UPDATED (inpJ.gbw) ****
             **** DENSITY inpJ.scfp WAS UPDATED ****
----------------
ORBITAL ENERGIES
----------------

  NO   OCC          E(Eh)            E(eV) 
   0   2.0000     -19.212471      -522.7979 
   1   2.0000     -10.300484      -280.2904 
   2   2.0000     -10.270459      -279.4734 
   3   2.0000     -10.268312      -279.4150 
   4   2.0000     -10.263831      -279.2930 
   5   2.0000     -10.257472      -279.1200 
   6   2.0000     -10.257409      -279.1183 
   7   2.0000     -10.251848      -278.9670 
   8   2.0000     -10.250767      -278.9375 
   9   2.0000     -10.249055      -278.8910 
  10   2.0000     -10.248149      -278.8663 
  11   2.0000     -10.247639      -278.8524 
  12   2.0000     -10.246823      -278.8302 
  13   2.0000     -10.246594      -278.8240 
  14   2.0000     -10.244710      -278.7727 
  15   2.0000     -10.242865      -278.7225 
  16   2.0000     -10.241843      -278.6947 
  17   2.0000     -10.241786      -278.6932 
  18   2.0000     -10.241452      -278.6841 
  19   2.0000     -10.241049      -278.6731 
  20   2.0000     -10.240143      -278.6485 
  21   2.0000     -10.235705      -278.5277 
  22   2.0000     -10.235337      -278.5177 
  23   2.0000     -10.234167      -278.4859 
  24   2.0000     -10.225052      -278.2378 
  25   2.0000     -10.224924      -278.2343 
  26   2.0000     -10.224229      -278.2154 
  27   2.0000     -10.222047      -278.1560 
  28   2.0000     -10.221271      -278.1349 
  29   2.0000      -1.043229       -28.3877 
  30   2.0000      -0.901971       -24.5439 
  31   2.0000      -0.882217       -24.0063 
  32   2.0000      -0.859858       -23.3979 
  33   2.0000      -0.846329       -23.0298 
  34   2.0000      -0.822413       -22.3790 
  35   2.0000      -0.814699       -22.1691 
  36   2.0000      -0.795968       -21.6594 
  37   2.0000      -0.795106       -21.6359 
  38   2.0000      -0.776150       -21.1201 
  39   2.0000      -0.758866       -20.6498 
  40   2.0000      -0.741713       -20.1830 
  41   2.0000      -0.730949       -19.8901 
  42   2.0000      -0.715464       -19.4688 
  43   2.0000      -0.703053       -19.1310 
  44   2.0000      -0.702854       -19.1256 
  45   2.0000      -0.696354       -18.9488 
  46   2.0000      -0.671232       -18.2651 
  47   2.0000      -0.665497       -18.1091 
  48   2.0000      -0.636466       -17.3191 
  49   2.0000      -0.622463       -16.9381 
  50   2.0000      -0.613737       -16.7006 
  51   2.0000      -0.607356       -16.5270 
  52   2.0000      -0.597736       -16.2652 
  53   2.0000      -0.582271       -15.8444 
  54   2.0000      -0.556774       -15.1506 
  55   2.0000      -0.541252       -14.7282 
  56   2.0000      -0.531327       -14.4581 
  57   2.0000      -0.529239       -14.4013 
  58   2.0000      -0.515332       -14.0229 
  59   2.0000      -0.509726       -13.8704 
  60   2.0000      -0.502739       -13.6802 
  61   2.0000      -0.493390       -13.4258 
  62   2.0000      -0.482641       -13.1333 
  63   2.0000      -0.481167       -13.0932 
  64   2.0000      -0.475235       -12.9318 
  65   2.0000      -0.467634       -12.7250 
  66   2.0000      -0.465149       -12.6573 
  67   2.0000      -0.462019       -12.5722 
  68   2.0000      -0.459453       -12.5023 
  69   2.0000      -0.453391       -12.3374 
  70   2.0000      -0.450666       -12.2632 
  71   2.0000      -0.444121       -12.0851 
  72   2.0000      -0.436994       -11.8912 
  73   2.0000      -0.434593       -11.8259 
  74   2.0000      -0.430225       -11.7070 
  75   2.0000      -0.427932       -11.6446 
  76   2.0000      -0.419866       -11.4251 
  77   2.0000      -0.414698       -11.2845 
  78   2.0000      -0.413062       -11.2400 
  79   2.0000      -0.403848       -10.9893 
  80   2.0000      -0.399917       -10.8823 
  81   2.0000      -0.397384       -10.8134 
  82   2.0000      -0.395393       -10.7592 
  83   2.0000      -0.388535       -10.5726 
  84   2.0000      -0.381778       -10.3887 
  85   2.0000      -0.376964       -10.2577 
  86   2.0000      -0.374553       -10.1921 
  87   2.0000      -0.370895       -10.0926 
  88   2.0000      -0.368246       -10.0205 
  89   2.0000      -0.364370        -9.9150 
  90   2.0000      -0.360965        -9.8224 
  91   2.0000      -0.358677        -9.7601 
  92   2.0000      -0.352922        -9.6035 
  93   2.0000      -0.345877        -9.4118 
  94   2.0000      -0.342343        -9.3156 
  95   2.0000      -0.339482        -9.2378 
  96   2.0000      -0.338140        -9.2013 
  97   2.0000      -0.334505        -9.1024 
  98   2.0000      -0.332740        -9.0543 
  99   2.0000      -0.330501        -8.9934 
 100   2.0000      -0.324781        -8.8377 
 101   2.0000      -0.324196        -8.8218 
 102   2.0000      -0.319811        -8.7025 
 103   2.0000      -0.319193        -8.6857 
 104   2.0000      -0.311304        -8.4710 
 105   2.0000      -0.301623        -8.2076 
 106   2.0000      -0.276705        -7.5295 
 107   2.0000      -0.275176        -7.4879 
 108   2.0000      -0.254749        -6.9321 
 109   2.0000      -0.220858        -6.0098 
 110   0.0000      -0.031701        -0.8626 
 111   0.0000       0.019319         0.5257 
 112   0.0000       0.030151         0.8204 
 113   0.0000       0.082010         2.2316 
 114   0.0000       0.092283         2.5111 
 115   0.0000       0.099227         2.7001 
 116   0.0000       0.103780         2.8240 
 117   0.0000       0.106315         2.8930 
 118   0.0000       0.108886         2.9629 
 119   0.0000       0.113042         3.0760 
 120   0.0000       0.117418         3.1951 
 121   0.0000       0.121082         3.2948 
 122   0.0000       0.123088         3.3494 
 123   0.0000       0.126907         3.4533 
 124   0.0000       0.133071         3.6210 
 125   0.0000       0.136020         3.7013 
 126   0.0000       0.139896         3.8068 
 127   0.0000       0.140534         3.8241 
 128   0.0000       0.143698         3.9102 
 129   0.0000       0.150865         4.1052 
 130   0.0000       0.152696         4.1551 
 131   0.0000       0.153556         4.1785 
 132   0.0000       0.159954         4.3526 
 133   0.0000       0.164716         4.4821 
 134   0.0000       0.166146         4.5211 
 135   0.0000       0.168890         4.5957 
 136   0.0000       0.174052         4.7362 
 137   0.0000       0.175710         4.7813 
 138   0.0000       0.177219         4.8224 
 139   0.0000       0.179652         4.8886 
 140   0.0000       0.182716         4.9720 
 141   0.0000       0.185921         5.0592 
 142   0.0000       0.188778         5.1369 
 143   0.0000       0.194960         5.3051 
 144   0.0000       0.196326         5.3423 
 145   0.0000       0.200196         5.4476 
 146   0.0000       0.201503         5.4832 
 147   0.0000       0.204152         5.5553 
 148   0.0000       0.206927         5.6308 
 149   0.0000       0.212800         5.7906 
 150   0.0000       0.214881         5.8472 
 151   0.0000       0.219045         5.9605 
 152   0.0000       0.222479         6.0540 
 153   0.0000       0.228589         6.2202 
 154   0.0000       0.232118         6.3163 
 155   0.0000       0.233508         6.3541 
 156   0.0000       0.240482         6.5439 
 157   0.0000       0.245649         6.6844 
 158   0.0000       0.248179         6.7533 
 159   0.0000       0.249114         6.7787 
 160   0.0000       0.254621         6.9286 
 161   0.0000       0.257381         7.0037 
 162   0.0000       0.262485         7.1426 
 163   0.0000       0.267194         7.2707 
 164   0.0000       0.269262         7.3270 
 165   0.0000       0.275065         7.4849 
 166   0.0000       0.275925         7.5083 
 167   0.0000       0.278952         7.5907 
 168   0.0000       0.282695         7.6925 
 169   0.0000       0.289291         7.8720 
 170   0.0000       0.294171         8.0048 
 171   0.0000       0.298665         8.1271 
 172   0.0000       0.302941         8.2434 
 173   0.0000       0.306640         8.3441 
 174   0.0000       0.308862         8.4046 
 175   0.0000       0.318567         8.6687 
 176   0.0000       0.319449         8.6927 
 177   0.0000       0.336586         9.1590 
 178   0.0000       0.348770         9.4905 
 179   0.0000       0.355291         9.6680 
 180   0.0000       0.363302         9.8859 
 181   0.0000       0.379564        10.3285 
 182   0.0000       0.381344        10.3769 
 183   0.0000       0.412055        11.2126 
 184   0.0000       0.422299        11.4913 
 185   0.0000       0.463187        12.6040 
 186   0.0000       0.482106        13.1188 
 187   0.0000       0.490409        13.3447 
 188   0.0000       0.503544        13.7021 
 189   0.0000       0.517117        14.0715 
 190   0.0000       0.521069        14.1790 
 191   0.0000       0.525671        14.3042 
 192   0.0000       0.545968        14.8565 
 193   0.0000       0.559500        15.2248 
 194   0.0000       0.569648        15.5009 
 195   0.0000       0.573309        15.6005 
 196   0.0000       0.578277        15.7357 
 197   0.0000       0.578995        15.7552 
 198   0.0000       0.590243        16.0613 
 199   0.0000       0.598601        16.2888 
 200   0.0000       0.617021        16.7900 
 201   0.0000       0.628178        17.0936 
 202   0.0000       0.630048        17.1445 
 203   0.0000       0.645591        17.5674 
 204   0.0000       0.649206        17.6658 
 205   0.0000       0.659023        17.9329 
 206   0.0000       0.661296        17.9948 
 207   0.0000       0.667526        18.1643 
 208   0.0000       0.668865        18.2007 
 209   0.0000       0.674608        18.3570 
 210   0.0000       0.679825        18.4990 
 211   0.0000       0.687745        18.7145 
 212   0.0000       0.691798        18.8248 
 213   0.0000       0.699512        19.0347 
 214   0.0000       0.707260        19.2455 
 215   0.0000       0.710736        19.3401 
 216   0.0000       0.715723        19.4758 
 217   0.0000       0.721114        19.6225 
 218   0.0000       0.722477        19.6596 
 219   0.0000       0.725335        19.7374 
 220   0.0000       0.731150        19.8956 
 221   0.0000       0.733358        19.9557 
 222   0.0000       0.739466        20.1219 
 223   0.0000       0.745453        20.2848 
 224   0.0000       0.748676        20.3725 
 225   0.0000       0.752568        20.4784 
 226   0.0000       0.757338        20.6082 
 227   0.0000       0.759666        20.6716 
 228   0.0000       0.763107        20.7652 
 229   0.0000       0.768849        20.9214 
 230   0.0000       0.773775        21.0555 
 231   0.0000       0.776514        21.1300 
 232   0.0000       0.779695        21.2166 
 233   0.0000       0.785939        21.3865 
 234   0.0000       0.789691        21.4886 
 235   0.0000       0.794866        21.6294 
 236   0.0000       0.799744        21.7621 
 237   0.0000       0.802116        21.8267 
 238   0.0000       0.810347        22.0507 
 239   0.0000       0.814370        22.1601 
 240   0.0000       0.822593        22.3839 
 241   0.0000       0.826828        22.4991 
 242   0.0000       0.836910        22.7735 
 243   0.0000       0.848738        23.0953 
 244   0.0000       0.852628        23.2012 
 245   0.0000       0.855591        23.2818 
 246   0.0000       0.857623        23.3371 
 247   0.0000       0.864623        23.5276 
 248   0.0000       0.866091        23.5675 
 249   0.0000       0.870985        23.7007 
 250   0.0000       0.872462        23.7409 
 251   0.0000       0.873621        23.7724 
 252   0.0000       0.877164        23.8689 
 253   0.0000       0.878234        23.8980 
 254   0.0000       0.879889        23.9430 
 255   0.0000       0.880629        23.9631 
 256   0.0000       0.884970        24.0813 
 257   0.0000       0.885666        24.1002 
 258   0.0000       0.890500        24.2317 
 259   0.0000       0.894884        24.3510 
 260   0.0000       0.897786        24.4300 
 261   0.0000       0.901435        24.5293 
 262   0.0000       0.904452        24.6114 
 263   0.0000       0.907119        24.6839 
 264   0.0000       0.913616        24.8607 
 265   0.0000       0.916452        24.9379 
 266   0.0000       0.921349        25.0712 
 267   0.0000       0.923522        25.1303 
 268   0.0000       0.925458        25.1830 
 269   0.0000       0.931414        25.3451 
 270   0.0000       0.936593        25.4860 
 271   0.0000       0.937226        25.5032 
 272   0.0000       0.944078        25.6897 
 273   0.0000       0.949695        25.8425 
 274   0.0000       0.956489        26.0274 
 275   0.0000       0.959541        26.1105 
 276   0.0000       0.963714        26.2240 
 277   0.0000       0.966492        26.2996 
 278   0.0000       0.970353        26.4046 
 279   0.0000       0.978911        26.6375 
 280   0.0000       0.979642        26.6574 
 281   0.0000       0.997364        27.1397 
 282   0.0000       1.004876        27.3441 
 283   0.0000       1.008073        27.4311 
 284   0.0000       1.014703        27.6115 
 285   0.0000       1.025792        27.9132 
 286   0.0000       1.030320        28.0364 
 287   0.0000       1.041325        28.3359 
 288   0.0000       1.060307        28.8524 
 289   0.0000       1.069836        29.1117 
 290   0.0000       1.071702        29.1625 
 291   0.0000       1.082419        29.4541 
 292   0.0000       1.087409        29.5899 
 293   0.0000       1.095608        29.8130 
 294   0.0000       1.102344        29.9963 
 295   0.0000       1.110786        30.2260 
 296   0.0000       1.114273        30.3209 
 297   0.0000       1.127296        30.6753 
 298   0.0000       1.139119        30.9970 
 299   0.0000       1.150694        31.3120 
 300   0.0000       1.163414        31.6581 
 301   0.0000       1.170731        31.8572 
 302   0.0000       1.196709        32.5641 
 303   0.0000       1.206416        32.8283 
 304   0.0000       1.233326        33.5605 
 305   0.0000       1.238430        33.6994 
 306   0.0000       1.241417        33.7807 
 307   0.0000       1.264902        34.4197 
 308   0.0000       1.293432        35.1961 
 309   0.0000       1.303412        35.4676 
 310   0.0000       1.330825        36.2136 
 311   0.0000       1.339738        36.4561 
 312   0.0000       1.361794        37.0563 
 313   0.0000       1.371306        37.3151 
 314   0.0000       1.410887        38.3922 
 315   0.0000       1.526207        41.5302 
 316   0.0000       1.529344        41.6156 
 317   0.0000       1.562363        42.5141 
 318   0.0000       1.591400        43.3042 
 319   0.0000       1.675077        45.5812 
 320   0.0000       6.202082       168.7672 
 321   0.0000       6.232105       169.5842 
 322   0.0000       6.245155       169.9393 
 323   0.0000       6.272883       170.6938 
 324   0.0000       6.275703       170.7706 
 325   0.0000       6.288402       171.1161 
 326   0.0000       6.302350       171.4957 
 327   0.0000       6.303364       171.5232 
 328   0.0000       6.317057       171.8959 
 329   0.0000       6.338098       172.4684 
 330   0.0000       6.342354       172.5842 
 331   0.0000       6.351376       172.8297 
 332   0.0000       6.362161       173.1232 
 333   0.0000       6.379197       173.5868 
 334   0.0000       6.387358       173.8088 
 335   0.0000       6.401030       174.1809 
 336   0.0000       6.407378       174.3536 
 337   0.0000       6.415277       174.5686 
 338   0.0000       6.418955       174.6687 
 339   0.0000       6.423509       174.7926 
 340   0.0000       6.436489       175.1458 
 341   0.0000       6.441010       175.2688 
 342   0.0000       6.447283       175.4395 
 343   0.0000       6.454248       175.6290 
 344   0.0000       6.467986       176.0028 
 345   0.0000       6.477749       176.2685 
 346   0.0000       6.485671       176.4841 
 347   0.0000       6.501070       176.9031 
 348   0.0000       6.511891       177.1976 
 349   0.0000       6.514613       177.2716 
 350   0.0000       6.525359       177.5641 
 351   0.0000       6.526480       177.5946 
 352   0.0000       6.537503       177.8945 
 353   0.0000       6.546213       178.1315 
 354   0.0000       6.549407       178.2184 
 355   0.0000       6.558575       178.4679 
 356   0.0000       6.562870       178.5848 
 357   0.0000       6.568061       178.7260 
 358   0.0000       6.572845       178.8562 
 359   0.0000       6.579888       179.0479 
 360   0.0000       6.583776       179.1536 
 361   0.0000       6.584600       179.1761 
 362   0.0000       6.588201       179.2741 
 363   0.0000       6.596209       179.4920 
 364   0.0000       6.602547       179.6644 
 365   0.0000       6.605817       179.7534 
 366   0.0000       6.610140       179.8710 
 367   0.0000       6.613927       179.9741 
 368   0.0000       6.616091       180.0330 
 369   0.0000       6.622273       180.2012 
 370   0.0000       6.625982       180.3021 
 371   0.0000       6.627721       180.3495 
 372   0.0000       6.632397       180.4767 
 373   0.0000       6.634482       180.5334 
 374   0.0000       6.637945       180.6277 
[...]
     69 H        0.000      0.000      0.000      0.000      0.000      0.000
     70 H        0.000      0.000      0.000     -0.001      0.001      0.019
     71 H        0.000      0.000      0.000      0.000      0.001      0.011
     72 H        0.000      0.000      0.000      0.000      0.002      0.034
                 25 H       27 H       28 H       30 H       31 H       33 H  
      3 H        0.073     -0.003      0.002      0.000      0.000      0.089
      4 H        2.281     -0.110      0.070      0.000      0.000      2.553
      8 H        0.119      0.000      0.000      0.000      0.000      0.111
      9 H       -0.256      0.014      0.000      0.000      0.000     -0.305
     10 H        0.000      0.000      0.000      0.000      0.000      0.000
     11 H        0.000      0.000      0.000      0.000      0.000      0.000
     13 H       -0.037      0.000      0.000      0.000      0.000      0.000
     16 H       -0.258      0.014     -0.005     -0.031     -0.002     -0.301
     17 H       -0.239      0.013      0.000      0.000      0.000     -0.297
     19 H        0.918     -0.046      0.077      0.064      0.005      0.971
     21 H       -2.814      0.191      0.665     -0.229     -0.027     -2.384
     24 H      -13.382      4.303      2.366      0.648     -0.496     -0.130
     25 H        0.000     12.982      5.179     -0.631     -0.356     -2.132
     27 H       12.982      0.000    -13.581      4.004     13.006      0.063
     28 H        5.179    -13.581      0.000      2.631      4.130      0.287
     30 H       -0.631      4.004      2.631      0.000    -13.023      0.034
     31 H       -0.356     13.006      4.130    -13.023      0.000     -0.324
     33 H       -2.132      0.063      0.287      0.034     -0.324      0.000
     35 H       -0.025      0.001     -0.001      0.000      0.000     -0.033
     37 H        0.277      0.004     -0.036      0.511     -0.036      6.540
     38 H        0.165      0.001     -0.028     -0.013      0.127     12.223
     40 H       -0.013      0.018      0.149     -0.003     -0.032     -0.248
     41 H        0.008      0.023     -0.025      0.014      0.077     -0.438
     42 H       -0.018      0.015     -0.018     -0.256     -0.371     -0.214
     45 H       -0.060     -0.123     -0.145     -0.153      1.829     -0.472
     46 H       -0.016     -0.223      0.001     -0.207     -0.480     -0.211
     47 H        0.013      0.049      0.066     -0.337      0.017      0.884
     48 H       -0.016      0.028      0.024      0.039      0.006     -0.019
     52 H        0.001      0.000      0.003     -0.014     -0.001      0.003
     53 H       -0.001     -0.000     -0.000     -0.002     -0.003     -0.007
     57 H        0.000      0.000      0.000      0.003      0.005      0.010
     58 H        0.000      0.000      0.000      0.000      0.000      0.000
     61 H        0.000      0.000      0.000     -0.000     -0.000      0.000
     62 H        0.000      0.000      0.000      0.000      0.000     -0.000
     63 H        0.000      0.000      0.000     -0.000     -0.000     -0.000
     64 H        0.000      0.000      0.000      0.000      0.000      0.000
     65 H        0.000      0.000      0.000      0.000      0.000      0.000
     66 H        0.000      0.000      0.000      0.000      0.000      0.000
     67 H        0.000      0.000      0.000     -0.000      0.000      0.000
     68 H        0.000      0.000      0.000      0.000      0.000      0.000
     69 H        0.000      0.000      0.000     -0.000     -0.000      0.000
     70 H        0.004     -0.008     -0.008     -0.463     -0.092      0.004
     71 H        0.000     -0.003     -0.004      0.062      0.006     -0.001
     72 H        0.000     -0.009     -0.011      0.081     -0.048      0.004
                 35 H       37 H       38 H       40 H       41 H       42 H  
      3 H       -0.269     -0.001     -0.001      0.000      0.000      0.000
      4 H       -0.648     -0.045     -0.015      0.000      0.000      0.000
      8 H       -0.030     -0.002     -0.002      0.000     -0.000      0.000
      9 H       -0.149      0.005      0.002      0.000      0.001      0.000
     10 H       -0.397     -0.000     -0.000      0.000      0.000      0.000
     11 H       -0.143     -0.002     -0.000      0.000      0.000      0.000
     13 H       12.464      0.000      0.000      0.000      0.000      0.000
     16 H       -0.003      0.004      0.003      0.001      0.001     -0.001
     17 H       -0.001      0.005      0.004     -0.000      0.001      0.000
     19 H        0.043     -0.020      0.080      0.013     -0.003      0.003
     21 H       -0.014      0.063     -0.577     -0.011      0.060     -0.023
     24 H       -0.001     -0.057     -0.080     -0.019      0.065     -0.024
     25 H       -0.025      0.277      0.165     -0.013      0.008     -0.018
     27 H        0.001      0.004      0.001      0.018      0.023      0.015
     28 H       -0.001     -0.036     -0.028      0.149     -0.025     -0.018
     30 H        0.000      0.511     -0.013     -0.003      0.014     -0.256
     31 H        0.000     -0.036      0.127     -0.032      0.077     -0.371
     33 H       -0.033      6.540     12.223     -0.248     -0.438     -0.214
     35 H        0.000      0.000     -0.000      0.000      0.000      0.000
     37 H        0.000      0.000    -12.262      9.560      2.658     -0.260
     38 H       -0.000    -12.262      0.000      6.563     11.592     -0.487
     40 H        0.000      9.560      6.563      0.000    -13.296      9.221
     41 H        0.000      2.658     11.592    -13.296      0.000      8.813
     42 H        0.000     -0.260     -0.487      9.221      8.813      0.000
     45 H       -0.000      0.066     -0.063     -0.111     -0.068     -0.084
     46 H        0.000      0.058      0.033     -0.086      0.006      1.142
     47 H        0.000     -0.174      0.012      0.055      0.040     -0.413
     48 H        0.000      0.112     -0.006     -0.195     -0.421     10.550
     52 H        0.000     -0.016     -0.014      0.214     -0.189     -0.172
     53 H        0.000     -0.004     -0.006     -0.018      0.099      0.122
     57 H        0.000     -0.003      0.001      0.061      0.003     -0.144
     58 H        0.000      0.000      0.000     -0.000     -0.001      0.006
     61 H        0.000     -0.000     -0.000     -0.001     -0.001     -0.000
     62 H        0.000     -0.000     -0.000     -0.002     -0.001      0.000
     63 H        0.000      0.000      0.000     -0.007     -0.003      0.002
     64 H        0.000      0.000      0.000      0.000     -0.000     -0.000
     65 H        0.000      0.000     -0.000     -0.000      0.000      0.001
     66 H        0.000      0.000      0.000     -0.000     -0.000      0.002
     67 H        0.000      0.000      0.000      0.001     -0.000     -0.001
     68 H        0.000      0.000      0.000      0.001      0.000      0.000
     69 H        0.000      0.000      0.000      0.000      0.000      0.001
     70 H        0.000     -0.006      0.000      0.084      0.030     -0.202
     71 H        0.000     -0.021      0.037      0.021     -0.046     -0.357
     72 H        0.000      0.064      0.016     -0.050      0.003     -0.453
                 45 H       46 H       47 H       48 H       52 H       53 H  
      3 H        0.001     -0.000     -0.001      0.000      0.000      0.000
      4 H        0.026     -0.018     -0.018      0.000      0.000      0.000
      8 H        0.001     -0.001      0.000      0.000      0.000      0.000
      9 H       -0.003      0.002      0.000      0.000      0.000      0.000
     10 H        0.000     -0.000      0.000      0.000      0.000      0.000
     11 H        0.000      0.000      0.000      0.000      0.000      0.000
     13 H        0.000      0.000      0.000      0.000      0.000      0.000
     16 H       -0.003      0.000      0.002     -0.002      0.000      0.000
     17 H       -0.004      0.000      0.001     -0.002      0.000      0.000
     19 H        0.010     -0.010     -0.008      0.006      0.000      0.000
     21 H       -0.018      0.041      0.011     -0.017      0.001      0.000
     24 H       -0.023     -0.023     -0.016      0.006      0.000      0.000
     25 H       -0.060     -0.016      0.013     -0.016      0.001     -0.001
     27 H       -0.123     -0.223      0.049      0.028      0.000     -0.000
     28 H       -0.145      0.001      0.066      0.024      0.003     -0.000
     30 H       -0.153     -0.207     -0.337      0.039     -0.014     -0.002
     31 H        1.829     -0.480      0.017      0.006     -0.001     -0.003
     33 H       -0.472     -0.211      0.884     -0.019      0.003     -0.007
     35 H       -0.000      0.000      0.000      0.000      0.000      0.000
     37 H        0.066      0.058     -0.174      0.112     -0.016     -0.004
     38 H       -0.063      0.033      0.012     -0.006     -0.014     -0.006
     40 H       -0.111     -0.086      0.055     -0.195      0.214     -0.018
     41 H       -0.068      0.006      0.040     -0.421     -0.189      0.099
     42 H       -0.084      1.142     -0.413     10.550     -0.172      0.122
     45 H        0.000    -13.646    -13.061     -0.206      0.006     -0.015
     46 H      -13.646      0.000    -13.047     -0.179      0.023     -0.039
     47 H      -13.061    -13.047      0.000     -0.114      0.005     -0.009
     48 H       -0.206     -0.179     -0.114      0.000      4.963     -2.290
     52 H        0.006      0.023      0.005      4.963      0.000     17.215
     53 H       -0.015     -0.039     -0.009     -2.290     17.215      0.000
     57 H        0.016      0.000      0.014      2.146     -2.817      4.356
     58 H        0.000      0.000      0.000      0.130      0.234     -0.421
     61 H       -0.000     -0.001     -0.000     -0.044     -0.327     -0.595
     62 H       -0.001      0.000      0.000     -0.060     -0.216      0.708
     63 H       -0.000     -0.001     -0.000     -0.028     -0.138     -0.537
     64 H        0.000      0.000      0.000      0.013     -0.008      0.030
     65 H       -0.000      0.000     -0.000     -0.018      0.017      0.003
     66 H        0.000      0.000      0.000     -0.024      0.022     -0.028
     67 H        0.000      0.000      0.000      0.022     -0.008      0.001
     68 H        0.000      0.000      0.000      0.012      0.168     -0.058
     69 H       -0.000      0.000     -0.000     -0.010      0.117     -0.208
     70 H       -0.018     -0.060     -0.239      5.164      0.705     -0.234
     71 H        0.031     -0.031     -0.042     12.564     -0.525     -0.232
     72 H       -0.011     -0.031     -0.022      1.966     -0.388     -0.263
                 57 H       58 H       61 H       62 H       63 H       64 H  
      3 H        0.000      0.000      0.000      0.000      0.000      0.000
      4 H        0.000      0.000      0.000      0.000      0.000      0.000
      8 H        0.000      0.000      0.000      0.000      0.000      0.000
      9 H        0.000      0.000      0.000      0.000      0.000      0.000
     10 H        0.000      0.000      0.000      0.000      0.000      0.000
     11 H        0.000      0.000      0.000      0.000      0.000      0.000
     13 H        0.000      0.000      0.000      0.000      0.000      0.000
     16 H        0.000      0.000      0.000      0.000      0.000      0.000
     17 H        0.000      0.000      0.000      0.000      0.000      0.000
     19 H        0.000      0.000      0.000      0.000      0.000      0.000
     21 H        0.000      0.000      0.000      0.000      0.000      0.000
     24 H        0.000      0.000      0.000      0.000      0.000      0.000
     25 H        0.000      0.000      0.000      0.000      0.000      0.000
     27 H        0.000      0.000      0.000      0.000      0.000      0.000
     28 H        0.000      0.000      0.000      0.000      0.000      0.000
     30 H        0.003      0.000     -0.000      0.000     -0.000      0.000
     31 H        0.005      0.000     -0.000      0.000     -0.000      0.000
     33 H        0.010      0.000      0.000     -0.000     -0.000      0.000
     35 H        0.000      0.000      0.000      0.000      0.000      0.000
     37 H       -0.003      0.000     -0.000     -0.000      0.000      0.000
     38 H        0.001      0.000     -0.000     -0.000      0.000      0.000
     40 H        0.061     -0.000     -0.001     -0.002     -0.007      0.000
     41 H        0.003     -0.001     -0.001     -0.001     -0.003     -0.000
     42 H       -0.144      0.006     -0.000      0.000      0.002     -0.000
     45 H        0.016      0.000     -0.000     -0.001     -0.000      0.000
     46 H        0.000      0.000     -0.001      0.000     -0.001      0.000
     47 H        0.014      0.000     -0.000      0.000     -0.000      0.000
     48 H        2.146      0.130     -0.044     -0.060     -0.028      0.013
     52 H       -2.817      0.234     -0.327     -0.216     -0.138     -0.008
     53 H        4.356     -0.421     -0.595      0.708     -0.537      0.030
     57 H        0.000      3.315     13.006      3.223      4.032     -0.442
     58 H        3.315      0.000     -0.263     -0.313     -0.107      3.595
     61 H       13.006     -0.263      0.000    -12.705    -12.709     -0.278
     62 H        3.223     -0.313    -12.705      0.000    -13.059      0.008
     63 H        4.032     -0.107    -12.709    -13.059      0.000     -0.095
     64 H       -0.442      3.595     -0.278      0.008     -0.095      0.000
     65 H       -0.455     13.115      0.043      0.041      0.066    -12.382
     66 H        0.688      3.161     -0.093      0.053     -0.086    -12.996
     67 H       -0.374      2.397      0.019      0.044      0.016      2.872
     68 H       -0.179      4.808     -0.039     -0.004      0.516     -0.181
     69 H       -0.274     13.137      0.038      0.052     -0.054     -0.211
     70 H       -0.089      0.007      0.016      0.132      0.016      0.001
     71 H       -0.049     -0.006     -0.007      0.008     -0.006      0.000
     72 H       -0.053      0.004     -0.005      0.027      0.007     -0.002
                 65 H       66 H       67 H       68 H       69 H       70 H  
      3 H        0.000      0.000      0.000      0.000      0.000      0.000
      4 H        0.000      0.000      0.000      0.000      0.000      0.000
      8 H        0.000      0.000      0.000      0.000      0.000      0.000
      9 H        0.000      0.000      0.000      0.000      0.000      0.000
     10 H        0.000      0.000      0.000      0.000      0.000      0.000
     11 H        0.000      0.000      0.000      0.000      0.000      0.000
     13 H        0.000      0.000      0.000      0.000      0.000      0.000
     16 H        0.000      0.000      0.000      0.000      0.000      0.000
     17 H        0.000      0.000      0.000      0.000      0.000      0.000
     19 H        0.000      0.000      0.000      0.000      0.000     -0.001
     21 H        0.000      0.000      0.000      0.000      0.000      0.001
     24 H        0.000      0.000      0.000      0.000      0.000      0.019
     25 H        0.000      0.000      0.000      0.000      0.000      0.004
     27 H        0.000      0.000      0.000      0.000      0.000     -0.008
     28 H        0.000      0.000      0.000      0.000      0.000     -0.008
     30 H        0.000      0.000     -0.000      0.000     -0.000     -0.463
     31 H        0.000      0.000      0.000      0.000     -0.000     -0.092
     33 H        0.000      0.000      0.000      0.000      0.000      0.004
     35 H        0.000      0.000      0.000      0.000      0.000      0.000
     37 H        0.000      0.000      0.000      0.000      0.000     -0.006
     38 H       -0.000      0.000      0.000      0.000      0.000      0.000
     40 H       -0.000     -0.000      0.001      0.001      0.000      0.084
     41 H        0.000     -0.000     -0.000      0.000      0.000      0.030
     42 H        0.001      0.002     -0.001      0.000      0.001     -0.202
     45 H       -0.000      0.000      0.000      0.000     -0.000     -0.018
     46 H        0.000      0.000      0.000      0.000      0.000     -0.060
     47 H       -0.000      0.000      0.000      0.000     -0.000     -0.239
     48 H       -0.018     -0.024      0.022      0.012     -0.010      5.164
     52 H        0.017      0.022     -0.008      0.168      0.117      0.705
     53 H        0.003     -0.028      0.001     -0.058     -0.208     -0.234
     57 H       -0.455      0.688     -0.374     -0.179     -0.274     -0.089
     58 H       13.115      3.161      2.397      4.808     13.137      0.007
     61 H        0.043     -0.093      0.019     -0.039      0.038      0.016
     62 H        0.041      0.053      0.044     -0.004      0.052      0.132
     63 H        0.066     -0.086      0.016      0.516     -0.054      0.016
     64 H      -12.382    -12.996      2.872     -0.181     -0.211      0.001
     65 H        0.000    -12.585     -0.318     -0.219     -0.335      0.000
     66 H      -12.585      0.000      0.087     -0.224     -0.200      0.002
     67 H       -0.318      0.087      0.000    -12.764    -11.990      0.000
     68 H       -0.219     -0.224    -12.764      0.000    -13.175     -0.001
     69 H       -0.335     -0.200    -11.990    -13.175      0.000     -0.001
     70 H        0.000      0.002      0.000     -0.001     -0.001      0.000
     71 H       -0.003      0.000      0.000     -0.001     -0.001    -12.744
     72 H       -0.006     -0.001     -0.002     -0.001     -0.002    -13.649
                 71 H       72 H  
      3 H        0.000      0.000
      4 H        0.000      0.000
      8 H        0.000      0.000
      9 H        0.000      0.000
     10 H        0.000      0.000
     11 H        0.000      0.000
     13 H        0.000      0.000
     16 H        0.000      0.000
     17 H        0.000      0.000
     19 H        0.000      0.000
     21 H        0.001      0.002
     24 H        0.011      0.034
     25 H        0.000      0.000
     27 H       -0.003     -0.009
     28 H       -0.004     -0.011
     30 H        0.062      0.081
     31 H        0.006     -0.048
     33 H       -0.001      0.004
     35 H        0.000      0.000
     37 H       -0.021      0.064
     38 H        0.037      0.016
     40 H        0.021     -0.050
     41 H       -0.046      0.003
     42 H       -0.357     -0.453
     45 H        0.031     -0.011
     46 H       -0.031     -0.031
     47 H       -0.042     -0.022
     48 H       12.564      1.966
     52 H       -0.525     -0.388
     53 H       -0.232     -0.263
     57 H       -0.049     -0.053
     58 H       -0.006      0.004
     61 H       -0.007     -0.005
     62 H        0.008      0.027
     63 H       -0.006      0.007
     64 H        0.000     -0.002
     65 H       -0.003     -0.006
     66 H        0.000     -0.001
     67 H        0.000     -0.002
     68 H       -0.001     -0.001
     69 H       -0.001     -0.002
     70 H      -12.744    -13.649
     71 H        0.000    -12.396
     72 H      -12.396      0.000

Maximum memory used throughout the entire EPRNMR-calculation: 987.0 MB

Timings for individual modules:

Sum of individual times         ...      406.182 sec (=   6.770 min)
GTO integral calculation        ...        0.761 sec (=   0.013 min)   0.2 %
SCF iterations                  ...      103.145 sec (=   1.719 min)  25.4 %
EPR/NMR calculation             ...      302.276 sec (=   5.038 min)  74.4 %
                             ****ORCA TERMINATED NORMALLY****
TOTAL RUN TIME: 0 days 0 hours 6 minutes 46 seconds 522 msec
