
                                 *****************
                                 * O   R   C   A *
                                 *****************

                                            #,                                       
                                            ###                                      
                                            ####                                     
                                            #####                                    
                                            ######                                   
                                           ########,                                 
                                     ,,################,,,,,                         
                               ,,#################################,,                 
                          ,,##########################################,,             
                       ,#########################################, ''#####,          
                    ,#############################################,,   '####,        
                  ,##################################################,,,,####,       
                ,###########''''           ''''###############################       
              ,#####''   ,,,,##########,,,,          '''####'''          '####       
            ,##' ,,,,###########################,,,                        '##       
           ' ,,###''''                  '''############,,,                           
         ,,##''                                '''############,,,,        ,,,,,,###''
      ,#''                                            '''#######################'''  
     '                                                          ''''####''''         
             ,#######,   #######,   ,#######,      ##                                
            ,#'     '#,  ##    ##  ,#'     '#,    #''#        ,####,   ,####,        
            ##       ##  ##   ,#'  ##            #'  '#       #'       #'  '#        
            ##       ##  #######   ##           ,######,      #####,   #    #        
            '#,     ,#'  ##    ##  '#,     ,#' ,#      #,     #,   #   #,  ,#        
             '#######'   ##     ##  '#######'  #'      '#     '####' # '####'        



                #########################################################
                #                        -***-                          #
                #          Department of theory and spectroscopy        #
                #                                                       #
                #                      Frank Neese                      #
                #                                                       #
                #     Directorship, Architecture, Infrastructure        #
                #                    SHARK, DRIVERS                     #
                #        Core code/Algorithms in most modules           #
                #                                                       #
                #        Max Planck Institute fuer Kohlenforschung      #
                #                Kaiser Wilhelm Platz 1                 #
                #                 D-45470 Muelheim/Ruhr                 #
                #                      Germany                          #
                #                                                       #
                #                  All rights reserved                  #
                #                        -***-                          #
                #########################################################


                         Program Version 6.0.0  -   RELEASE  -


 With contributions from (in alphabetic order):
   Daniel Aravena         : Magnetic Suceptibility
   Michael Atanasov       : Ab Initio Ligand Field Theory (pilot matlab implementation)
   Alexander A. Auer      : GIAO ZORA, VPT2 properties, NMR spectrum
   Ute Becker             : All parallelization in ORCA, NUMFREQ, NUMCALC
   Giovanni Bistoni       : ED, misc. LED, open-shell LED, HFLD
   Martin Brehm           : Molecular dynamics
   Dmytro Bykov           : pre 5.0 version of the SCF Hessian
   Marcos Casanova-Páez   : Triplet and SCS-CIS(D). UHF-(DLPNO)-IP/EA/STEOM-CCSD. UHF-CVS-IP/STEOM-CCSD
   Vijay G. Chilkuri      : MRCI spin determinant printing, contributions to CSF-ICE
   Pauline Colinet        : FMM embedding
   Dipayan Datta          : RHF DLPNO-CCSD density
   Achintya Kumar Dutta   : EOM-CC, STEOM-CC
   Nicolas Foglia         : Exact transition moments, OPA infrastructure, MCD improvements
   Dmitry Ganyushin       : Spin-Orbit,Spin-Spin,Magnetic field MRCI
   Miquel Garcia          : C-PCM and meta-GGA Hessian, CCSD/C-PCM, Gaussian charge scheme
   Tiago L. C. Gouveia    : GS-ROHF, GS-ROCIS
   Yang Guo               : DLPNO-NEVPT2, F12-NEVPT2, CIM, IAO-localization
   Andreas Hansen         : Spin unrestricted coupled pair/coupled cluster methods
   Ingolf Harden          : AUTO-CI MPn and infrastructure 
   Benjamin Helmich-Paris : MC-RPA, TRAH-(SCF,CASSCF), AVAS, COSX integrals, SCF dyn. polar.
   Lee Huntington         : MR-EOM, pCC
   Robert Izsak           : Overlap fitted RIJCOSX, COSX-SCS-MP3, EOM
   Riya Kayal             : Wick's Theorem for AUTO-CI, AUTO-CI UHF-CCSDT
   Emily Kempfer          : AUTO-CI, RHF CISDT and CCSDT
   Christian Kollmar      : KDIIS, OOCD, Brueckner-CCSD(T), CCSD density, CASPT2, CASPT2-K, improved NEVPT2
   Axel Koslowski         : Symmetry handling
   Simone Kossmann        : Meta GGA functionals, TD-DFT gradient, OOMP2, (MP2 Hessian; deprecated post 5.0)
   Lucas Lang             : DCDCAS
   Marvin Lechner         : AUTO-CI (C++ implementation), FIC-MRCC
   Spencer Leger          : CASSCF response
   Dagmar Lenk            : GEPOL surface, SMD, ORCA-2-JSON
   Dimitrios Liakos       : Extrapolation schemes; Compound Job, initial MDCI parallelization
   Dimitrios Manganas     : Further ROCIS development; embedding schemes. LFT, Crystal Embedding
   Dimitrios Pantazis     : SARC Basis sets
   Anastasios Papadopoulos: AUTO-CI, single reference methods and gradients
   Taras Petrenko         : pre 6.0 DFT Hessian and TD-DFT gradient, (ASA, deprecated), ECA, 1-Electron XAS/XES, NRVS
   Peter Pinski           : DLPNO-MP2, DLPNO-MP2 Gradient
   Christoph Reimann      : Effective Core Potentials
   Marius Retegan         : Local ZFS, SOC
   Christoph Riplinger    : Optimizer, TS searches, QM/MM, DLPNO-CCSD(T), (RO)-DLPNO pert. Triples
   Michael Roemelt        : Original ROCIS implementation
   Masaaki Saitow         : Open-shell DLPNO-CCSD energy and density
   Barbara Sandhoefer     : DKH picture change effects
   Kantharuban Sivalingam : CASSCF convergence/infrastructure, NEVPT2 and variants, FIC-MRCI
   Bernardo de Souza      : ESD, SOC TD-DFT
   Georgi Stoychev        : AutoAux, RI-MP2 NMR, DLPNO-MP2 response, X2C
   Van Anh Tran           : RI-MP2 g-tensors
   Willem Van den Heuvel  : Paramagnetic NMR
   Zikuan Wang            : NOTCH, Electric field optimization 
   Frank Wennmohs         : Technical directorship and infrastructure
   Hang Xu                : AUTO-CI-Response properties 


 We gratefully acknowledge several colleagues who have allowed us to
 interface, adapt or use parts of their codes:
   Stefan Grimme, W. Hujo, H. Kruse, P. Pracht,  : VdW corrections, initial TS optimization,
                  C. Bannwarth, S. Ehlert,         DFT functionals, gCP, sTDA/sTD-DF
                  L. Wittmann, M. Mueller
   Ed Valeev, F. Pavosevic, A. Kumar             : LibInt (2-el integral package), F12 methods
   Garnet Chan, S. Sharma, J. Yang, R. Olivares  : DMRG
   Ulf Ekstrom                                   : XCFun DFT Library
   Mihaly Kallay                                 : mrcc  (arbitrary order and MRCC methods)
   Frank Weinhold                                : gennbo (NPA and NBO analysis)
   Simon Mueller                                 : openCOSMO-RS
   Christopher J. Cramer and Donald G. Truhlar   : smd solvation model
   Lars Goerigk                                  : TD-DFT with DH, B97 family of functionals
   V. Asgeirsson, H. Jonsson                     : NEB implementation
   FAccTs GmbH                                   : IRC, NEB, NEB-TS, DLPNO-Multilevel, CI-OPT
                                                   MM, QMMM, 2- and 3-layer-ONIOM, Crystal-QMMM,
                                                   LR-CPCM, SF, NACMEs, symmetry and pop. for TD-DFT,
                                                   nearIR, NL-DFT gradient (VV10), updates on ESD,
                                                   ML-optimized integration grids, MBIS, APM,
                                                   GOAT, DOCKER, SOLVATOR, interface openCOSMO-RS
   S Lehtola, MJT Oliveira, MAL Marques          : LibXC Library
   Liviu Ungur et al                             : ANISO software


 Your calculation uses the libint2 library for the computation of 2-el integrals
 For citations please refer to: http://libint.valeyev.net

 Your ORCA version has been built with support for libXC version: 6.2.2
 For citations please refer to: https://libxc.gitlab.io

 This ORCA versions uses:
   CBLAS   interface :  Fast vector & matrix operations
   LAPACKE interface :  Fast linear algebra routines
   SCALAPACK package :  Parallel linear algebra routines
   Shared memory     :  Shared parallel matrices
   BLAS/LAPACK       :  OpenBLAS 0.3.27  USE64BITINT DYNAMIC_ARCH NO_AFFINITY Zen SINGLE_THREADED
        Core in use  :  Zen
   Copyright (c) 2011-2014, The OpenBLAS Project


NOTE: MaxCore=8000 MB was set to SCF,MP2,MDCI,CIPSI,MRCI and CIS
      => If you want to overwrite this, your respective input block should be placed after the MaxCore statement
Your calculation utilizes the atom-pairwise dispersion correction
based on EEQ partial charges (D4)


================================================================================

----- Orbital basis set information -----
Your calculation utilizes the basis: pcJ-0
   F. Jensen, Theor. Chem. Acc. 126, 371 (2010).

----- AuxJ basis set information -----
Your calculation utilizes the auxiliary basis: def2/J
   F. Weigend, Phys. Chem. Chem. Phys. 8, 1057 (2006).

================================================================================
                                        WARNINGS
                       Please study these warnings very carefully!
================================================================================


================================================================================
                                       INPUT FILE
================================================================================
NAME = inpJ
|  1> ! pbe0
|  2> ! D4
|  3> ! pcJ-0
|  4> ! def2/J RIJCOSX
|  5> ! DEFGRID2
|  6> ! scfconv7
|  7> ! smallprint printgap noloewdin
|  8> ! NOSOSCF
|  9> %MaxCore 8000
| 10> %output
| 11>        print[P_BondOrder_M] 1
| 12>        print[P_Mayer] 1
| 13>        print[P_basis] 2
| 14> end
| 15> %pal
| 16>     nprocs 4
| 17> end
| 18> ! CPCM(chloroform)
| 19> *xyz 0 1
| 20> C   -5.1502148600   0.2952668500   0.1456356600
| 21> C   -6.5246443400  -0.2036851700  -0.2335344400
| 22> C   -7.0293595900   0.4507320400  -1.5255744300
| 23> H   -7.2408970900   0.0554060700   0.5645863300
| 24> H   -6.5246590800  -1.2938069800  -0.3420204400
| 25> C   -5.0252149700   1.7684203300   0.1636922100
| 26> C   -5.5770220300   2.4574265100  -1.0637968900
| 27> C   -6.9928185300   1.9696656100  -1.4002359200
| 28> H   -4.9193541400   2.2275961000  -1.9159010800
| 29> H   -5.5653795000   3.5437427000  -0.9258905100
| 30> H   -7.3395277600   2.4261032500  -2.3348181700
| 31> H   -7.6874202300   2.2736406500  -0.6025978300
| 32> O   -8.3374801500  -0.0239238500  -1.8699992200
| 33> H   -6.3860993900   0.1381008300  -2.3600123300
| 34> C   -4.1383470300  -0.5702636300   0.3912508100
| 35> C   -4.5118512500   2.4505756700   1.1936784300
| 36> H   -4.1436850600   1.9435587300   2.0812325700
| 37> H   -4.4586189500   3.5365653500   1.1743910300
| 38> C   -2.7623165900  -0.2256453600   0.6635586800
| 39> H   -4.3868419300  -1.6291195500   0.3338312500
| 40> C   -1.7671475000  -1.0834770300   0.9759004100
| 41> H   -2.5131893300   0.8307368600   0.5929391700
| 42> C   -1.9142184800  -2.5720630700   1.1651110900
| 43> C   -0.9067968200  -3.3618998300   0.3078232100
| 44> H   -2.9307334900  -2.9185041200   0.9592776100
| 45> H   -1.7117643900  -2.7972563800   2.2245765400
| 46> C    0.5342525300  -2.8615429400   0.4776273100
| 47> H   -1.2015162700  -3.2930464500  -0.7469556400
| 48> H   -0.9606093000  -4.4239173400   0.5771319400
| 49> C    0.6484962100  -1.3518966500   0.2228770900
| 50> H    1.1898021900  -3.4300185800  -0.1902042400
| 51> H    0.8691038000  -3.0656385500   1.5058792200
| 52> C   -0.3523349800  -0.6391899700   1.1863641800
| 53> H   -0.0622949500  -0.9890167300   2.1948039800
| 54> C    0.0322482400   0.8328101200   1.0930838400
| 55> H   -8.9378383900   0.2366950300  -1.1587214800
| 56> C    1.5755215900   0.7922204300   0.9792408600
| 57> H   -0.3136795600   1.4072783300   1.9590284900
| 58> H   -0.4099923400   1.2931063500   0.2023363800
| 59> C    1.9787031900  -0.6861864500   0.6799028300
| 60> H    2.0496568700   1.1452760800   1.8987929000
| 61> H    1.9314199900   1.4488832200   0.1764259500
| 62> H    2.2493819500  -1.1797895300   1.6267278100
| 63> C    3.1889923000  -0.7703706300  -0.2604096300
| 64> C    0.3290223900  -1.0130452500  -1.2396655900
| 65> H   -0.7248650800  -1.1977995700  -1.4697066000
| 66> H    0.9333568100  -1.6204300100  -1.9217461000
| 67> H    0.5313727500   0.0388242300  -1.4651886800
| 68> H    2.9228713400  -0.2391350500  -1.1881020800
| 69> C    3.5849782300  -2.2065868800  -0.6507654700
| 70> C    4.4295786300  -0.0960222500   0.2856793600
| 71> C    4.7111434000   0.1556823000   1.5641461800
| 72> H    5.1788447600   0.1318963200  -0.4744901700
| 73> H    3.9670087800  -0.0834447600   2.3221869400
| 74> C    6.0000999600   0.7333414700   2.0964045900
| 75> C    6.8303771600   1.4416564400   1.0235675700
| 76> C    6.8256877800  -0.3569542300   2.8374681400
| 77> H    5.7246080700   1.4798638100   2.8613129800
| 78> H    7.1209317800  -1.0989065200   2.0784569200
| 79> C    6.0001335600  -1.0726712800   3.9116706000
| 80> C    8.0937813000   0.2246391400   3.4700237800
| 81> H    6.2086540200   2.1322861800   0.4446887600
| 82> H    7.2782941000   0.7230407000   0.3265080300
| 83> H    7.6419074400   2.0199435100   1.4722377400
| 84> H    6.6246066500  -1.7862536500   4.4600120500
| 85> H    5.1579331100  -1.6257273400   3.4858267200
| 86> H    5.6011280500  -0.3509399800   4.6365367000
| 87> H    7.8376478900   1.0383822000   4.1610398800
| 88> H    8.7897421900   0.6182014400   2.7241678600
| 89> H    8.6220301200  -0.5458795300   4.0423298400
| 90> H    4.5329583300  -2.2035020800  -1.2004255800
| 91> H    2.8343484700  -2.6826222500  -1.2868973700
| 92> H    3.7207918500  -2.8201312400   0.2477287600
| 93> *
| 94> %eprnmr
| 95>  Nuclei = all C { ssfc }
| 96>  SpinSpinRThresh 8.0
| 97> end
| 98> 
| 99>                          ****END OF INPUT****
================================================================================

                       ****************************
                       * Single Point Calculation *
                       ****************************

---------------------------------
CARTESIAN COORDINATES (ANGSTROEM)
---------------------------------
  C     -5.150215    0.295267    0.145636
  C     -6.524644   -0.203685   -0.233534
  C     -7.029360    0.450732   -1.525574
  H     -7.240897    0.055406    0.564586
  H     -6.524659   -1.293807   -0.342020
  C     -5.025215    1.768420    0.163692
  C     -5.577022    2.457427   -1.063797
  C     -6.992819    1.969666   -1.400236
  H     -4.919354    2.227596   -1.915901
  H     -5.565379    3.543743   -0.925891
  H     -7.339528    2.426103   -2.334818
  H     -7.687420    2.273641   -0.602598
  O     -8.337480   -0.023924   -1.869999
  H     -6.386099    0.138101   -2.360012
  C     -4.138347   -0.570264    0.391251
  C     -4.511851    2.450576    1.193678
  H     -4.143685    1.943559    2.081233
  H     -4.458619    3.536565    1.174391
  C     -2.762317   -0.225645    0.663559
  H     -4.386842   -1.629120    0.333831
  C     -1.767147   -1.083477    0.975900
  H     -2.513189    0.830737    0.592939
  C     -1.914218   -2.572063    1.165111
  C     -0.906797   -3.361900    0.307823
  H     -2.930733   -2.918504    0.959278
  H     -1.711764   -2.797256    2.224577
  C      0.534253   -2.861543    0.477627
  H     -1.201516   -3.293046   -0.746956
  H     -0.960609   -4.423917    0.577132
  C      0.648496   -1.351897    0.222877
  H      1.189802   -3.430019   -0.190204
  H      0.869104   -3.065639    1.505879
  C     -0.352335   -0.639190    1.186364
  H     -0.062295   -0.989017    2.194804
  C      0.032248    0.832810    1.093084
  H     -8.937838    0.236695   -1.158721
  C      1.575522    0.792220    0.979241
  H     -0.313680    1.407278    1.959028
  H     -0.409992    1.293106    0.202336
  C      1.978703   -0.686186    0.679903
  H      2.049657    1.145276    1.898793
  H      1.931420    1.448883    0.176426
  H      2.249382   -1.179790    1.626728
  C      3.188992   -0.770371   -0.260410
  C      0.329022   -1.013045   -1.239666
  H     -0.724865   -1.197800   -1.469707
  H      0.933357   -1.620430   -1.921746
  H      0.531373    0.038824   -1.465189
  H      2.922871   -0.239135   -1.188102
  C      3.584978   -2.206587   -0.650765
  C      4.429579   -0.096022    0.285679
  C      4.711143    0.155682    1.564146
  H      5.178845    0.131896   -0.474490
  H      3.967009   -0.083445    2.322187
  C      6.000100    0.733341    2.096405
  C      6.830377    1.441656    1.023568
  C      6.825688   -0.356954    2.837468
  H      5.724608    1.479864    2.861313
  H      7.120932   -1.098907    2.078457
  C      6.000134   -1.072671    3.911671
  C      8.093781    0.224639    3.470024
  H      6.208654    2.132286    0.444689
  H      7.278294    0.723041    0.326508
  H      7.641907    2.019944    1.472238
  H      6.624607   -1.786254    4.460012
  H      5.157933   -1.625727    3.485827
  H      5.601128   -0.350940    4.636537
  H      7.837648    1.038382    4.161040
  H      8.789742    0.618201    2.724168
  H      8.622030   -0.545880    4.042330
  H      4.532958   -2.203502   -1.200426
  H      2.834348   -2.682622   -1.286897
  H      3.720792   -2.820131    0.247729

----------------------------
CARTESIAN COORDINATES (A.U.)
----------------------------
  NO LB      ZA    FRAG     MASS         X           Y           Z
   0 C     6.0000    0    12.011   -9.732496    0.557973    0.275212
   1 C     6.0000    0    12.011  -12.329791   -0.384909   -0.441316
   2 C     6.0000    0    12.011  -13.283565    0.851760   -2.882918
   3 H     1.0000    0     1.008  -13.683312    0.104702    1.066914
   4 H     1.0000    0     1.008  -12.329819   -2.444941   -0.646325
   5 C     6.0000    0    12.011   -9.496280    3.341830    0.309333
   6 C     6.0000    0    12.011  -10.539044    4.643863   -2.010285
   7 C     6.0000    0    12.011  -13.214512    3.722129   -2.646062
   8 H     1.0000    0     1.008   -9.296232    4.209547   -3.620528
   9 H     1.0000    0     1.008  -10.517043    6.696703   -1.749679
  10 H     1.0000    0     1.008  -13.869697    4.584671   -4.412167
  11 H     1.0000    0     1.008  -14.527119    4.296558   -1.138745
  12 O     8.0000    0    15.999  -15.755554   -0.045210   -3.533786
  13 H     1.0000    0     1.008  -12.067979    0.260973   -4.459777
  14 C     6.0000    0    12.011   -7.820343   -1.077642    0.739357
  15 C     6.0000    0    12.011   -8.526163    4.630917    2.255725
  16 H     1.0000    0     1.008   -7.830430    3.672794    3.932960
  17 H     1.0000    0     1.008   -8.425569    6.683140    2.219277
  18 C     6.0000    0    12.011   -5.220022   -0.426408    1.253944
  19 H     1.0000    0     1.008   -8.289930   -3.078590    0.630850
  20 C     6.0000    0    12.011   -3.339425   -2.047475    1.844185
  21 H     1.0000    0     1.008   -4.749240    1.569865    1.120493
  22 C     6.0000    0    12.011   -3.617349   -4.860495    2.201741
  23 C     6.0000    0    12.011   -1.713598   -6.353070    0.581702
  24 H     1.0000    0     1.008   -5.538284   -5.515174    1.812772
  25 H     1.0000    0     1.008   -3.234766   -5.286048    4.203840
  26 C     6.0000    0    12.011    1.009591   -5.407532    0.902585
  27 H     1.0000    0     1.008   -2.270537   -6.222956   -1.411542
  28 H     1.0000    0     1.008   -1.815288   -8.359992    1.090621
  29 C     6.0000    0    12.011    1.225480   -2.554714    0.421177
  30 H     1.0000    0     1.008    2.248400   -6.481796   -0.359434
  31 H     1.0000    0     1.008    1.642368   -5.793217    2.845699
  32 C     6.0000    0    12.011   -0.665817   -1.207894    2.241903
  33 H     1.0000    0     1.008   -0.117720   -1.868971    4.147578
  34 C     6.0000    0    12.011    0.060940    1.573783    2.065629
  35 H     1.0000    0     1.008  -16.890067    0.447289   -2.189666
  36 C     6.0000    0    12.011    2.977304    1.497080    1.850497
  37 H     1.0000    0     1.008   -0.592768    2.659371    3.702027
  38 H     1.0000    0     1.008   -0.774773    2.443617    0.382360
  39 C     6.0000    0    12.011    3.739207   -1.296704    1.284830
  40 H     1.0000    0     1.008    3.873290    2.164258    3.588199
  41 H     1.0000    0     1.008    3.649855    2.737992    0.333397
  42 H     1.0000    0     1.008    4.250716   -2.229479    3.074070
  43 C     6.0000    0    12.011    6.026322   -1.455790   -0.492103
  44 C     6.0000    0    12.011    0.621762   -1.914378   -2.342628
  45 H     1.0000    0     1.008   -1.369796   -2.263513   -2.777343
  46 H     1.0000    0     1.008    1.763789   -3.062169   -3.631574
  47 H     1.0000    0     1.008    1.004149    0.073367   -2.768805
  48 H     1.0000    0     1.008    5.523426   -0.451900   -2.245188
  49 C     6.0000    0    12.011    6.774627   -4.169845   -1.229769
  50 C     6.0000    0    12.011    8.370690   -0.181456    0.539856
  51 C     6.0000    0    12.011    8.902771    0.294197    2.955808
  52 H     1.0000    0     1.008    9.786598    0.249248   -0.896656
  53 H     1.0000    0     1.008    7.496560   -0.157688    4.388297
  54 C     6.0000    0    12.011   11.338546    1.385815    3.961631
  55 C     6.0000    0    12.011   12.907542    2.724336    1.934262
  56 C     6.0000    0    12.011   12.898681   -0.674546    5.362038
  57 H     1.0000    0     1.008   10.817941    2.796537    5.407098
  58 H     1.0000    0     1.008   13.456611   -2.076632    3.927714
  59 C     6.0000    0    12.011   11.338609   -2.027055    7.391986
  60 C     6.0000    0    12.011   15.295030    0.424506    6.557395
  61 H     1.0000    0     1.008   11.732656    4.029437    0.840340
  62 H     1.0000    0     1.008   13.753983    1.366349    0.617011
  63 H     1.0000    0     1.008   14.441112    3.817140    2.782126
  64 H     1.0000    0     1.008   12.518692   -3.375530    8.428201
  65 H     1.0000    0     1.008    9.747081   -3.072179    6.587258
  66 H     1.0000    0     1.008   10.584598   -0.663180    8.761785
  67 H     1.0000    0     1.008   14.811008    1.962258    7.863226
  68 H     1.0000    0     1.008   16.610206    1.168231    5.147931
  69 H     1.0000    0     1.008   16.293276   -1.031563    7.638896
  70 H     1.0000    0     1.008    8.566050   -4.164015   -2.268476
  71 H     1.0000    0     1.008    5.356142   -5.069421   -2.431884
  72 H     1.0000    0     1.008    7.031278   -5.329276    0.468140

--------------------------------
INTERNAL COORDINATES (ANGSTROEM)
--------------------------------
 C      0   0   0     0.000000000000     0.00000000     0.00000000
 C      1   0   0     1.510556016336     0.00000000     0.00000000
 C      2   1   0     1.533742711176   111.71183943     0.00000000
 H      2   1   3     1.103242056864   109.36325402   241.49978661
 H      2   1   3     1.095506628483   110.70498518   122.89242354
 C      1   2   3     1.478557468323   114.14777802    50.57783531
 C      6   1   2     1.511935857820   114.41079211   311.85294861
 C      3   2   1     1.524534086607   110.36300904   305.05508405
 H      7   6   1     1.100650090407   108.37869426   290.12234344
 H      7   6   1     1.095096608891   110.23908508   172.89680203
 H      8   3   2     1.096351490805   109.70220900   179.05572440
 H      8   3   2     1.100499372651   108.64243634   296.49167916
 O      3   2   1     1.433564107172   111.18617593   180.38428528
 H      3   2   1     1.099003442818   109.00354888    65.19834935
 C      1   2   3     1.354011196079   120.95426756   232.84563564
 C      6   1   2     1.337815319950   123.35895515   129.60654637
 H     16   6   1     1.086445982245   121.40178274     0.71536208
 H     16   6   1     1.087464604770   120.95334133   181.36470288
 C     15   1   2     1.444428295170   126.41361967   175.08504737
 H     15   1   2     1.089138457918   116.19280274   357.87672349
 C     19  15   1     1.350479192008   126.44551819   176.35943836
 H     19  15   1     1.087655690740   115.95643554   355.43207989
 C     21  19  15     1.507752948287   125.75178263   356.95381355
 C     23  21  19     1.540676156004   111.87166838   127.75479629
 H     23  21  19     1.093476834766   112.32458963     3.58101181
 H     23  21  19     1.101892338285   107.72866568   246.38432765
 C     24  23  21     1.534866013332   112.65821825    50.64520597
 H     24  23  21     1.097341680860   109.09100179   288.49639719
 H     24  23  21     1.096952217102   109.12581562   172.54466421
 C     27  24  23     1.535246303992   111.84308223   306.24614859
 H     27  24  23     1.094946980075   108.98879892   182.63677206
 H     27  24  23     1.100491881597   109.18300425    66.14720448
 C     21  19  15     1.497791860345   122.69417184   177.34510987
 H     33  21  19     1.106098011588   106.37881816   124.10039203
 C     33  21  19     1.524266951651   121.07679410     1.67405190
 H     13   3   2     0.966575522330   107.49924570    62.60723781
 C     35  33  21     1.547998830700   103.33921124   195.12217149
 H     35  33  21     1.095235090735   112.23798643    73.35983931
 H     35  33  21     1.095846881388   110.70497401   313.68210417
 C     30  27  24     1.556114779522   115.82002567   166.50668398
 H     37  35  33     1.093173595549   111.22734503   251.59906477
 H     37  35  33     1.096531563892   111.20569789   133.25062652
 H     40  30  27     1.101539166100   105.71192876   322.00895712
 C     40  30  27     1.534950887937   118.07568495    82.86953051
 C     30  27  24     1.534898981617   111.08220629   294.75793061
 H     45  30  27     1.094409349587   111.31236502    67.43806445
 H     45  30  27     1.095157595965   110.86456459   307.35917877
 H     45  30  27     1.094639545819   111.71412452   187.33423635
 H     44  40  30     1.101655521747   107.39437954    62.54333223
 C     44  40  30     1.540097287623   114.15147069   303.65355363
 C     44  40  30     1.513939683340   113.62325073   180.26454152
 C     51  44  40     1.333083384503   127.09286462    22.94407608
 H     51  44  40     1.091423072166   113.84958339   198.53657856
 H     52  51  44     1.088826835327   118.80695988   356.11802198
 C     52  51  44     1.509436366750   126.21339240   174.97140540
 C     55  52  51     1.530375639197   113.15471829    18.70770233
 C     55  52  51     1.555479073183   110.66980514   252.41079814
 H     55  52  51     1.103755512180   106.86202363   137.38496962
 H     57  55  52     1.101707879730   106.62240787    65.42890407
 C     57  55  52     1.532221129893   112.05222651   307.18960202
 C     57  55  52     1.531808950617   111.71509803   183.88569337
 H     56  55  52     1.094810384154   110.76532471    48.52584491
 H     56  55  52     1.096781732716   111.33691265   288.31941449
 H     56  55  52     1.092841366409   111.09908338   168.25529046
 H     60  57  55     1.095374266950   110.37044833   183.74945921
 H     60  57  55     1.093853561322   112.21478587    63.58778383
 H     60  57  55     1.097967362602   110.58489774   302.88557750
 H     61  57  55     1.097854881975   110.37737747    57.15599866
 H     61  57  55     1.093413873055   112.45129688   296.32367516
 H     61  57  55     1.095572938221   110.35553925   176.15741316
 H     50  44  40     1.095811125383   110.30041379   188.08169130
 H     50  44  40     1.093031794728   112.15298510    68.08967598
 H     50  44  40     1.096436912188   110.24168842   306.99862984

---------------------------
INTERNAL COORDINATES (A.U.)
---------------------------
 C      0   0   0     0.000000000000     0.00000000     0.00000000
 C      1   0   0     2.854537180822     0.00000000     0.00000000
 C      2   1   0     2.898353684021   111.71183943     0.00000000
 H      2   1   3     2.084825346896   109.36325402   241.49978661
 H      2   1   3     2.070207505729   110.70498518   122.89242354
 C      1   2   3     2.794068688395   114.14777802    50.57783531
 C      6   1   2     2.857144703336   114.41079211   311.85294861
 C      3   2   1     2.880951905516   110.36300904   305.05508405
 H      7   6   1     2.079927240145   108.37869426   290.12234344
 H      7   6   1     2.069432680991   110.23908508   172.89680203
 H      8   3   2     2.071804064138   109.70220900   179.05572440
 H      8   3   2     2.079642424862   108.64243634   296.49167916
 O      3   2   1     2.709043557975   111.18617593   180.38428528
 H      3   2   1     2.076815527163   109.00354888    65.19834935
 C      1   2   3     2.558710342853   120.95426756   232.84563564
 C      6   1   2     2.528104572470   123.35895515   129.60654637
 H     16   6   1     2.053085365743   121.40178274     0.71536208
 H     16   6   1     2.055010283349   120.95334133   181.36470288
 C     15   1   2     2.729573897958   126.41361967   175.08504737
 H     15   1   2     2.058173407386   116.19280274   357.87672349
 C     19  15   1     2.552035822454   126.44551819   176.35943836
 H     19  15   1     2.055371383500   115.95643554   355.43207989
 C     21  19  15     2.849240149874   125.75178263   356.95381355
 C     23  21  19     2.911455995910   111.87166838   127.75479629
 H     23  21  19     2.066371751494   112.32458963     3.58101181
 H     23  21  19     2.082274748424   107.72866568   246.38432765
 C     24  23  21     2.900476417462   112.65821825    50.64520597
 H     24  23  21     2.073675252163   109.09100179   288.49639719
 H     24  23  21     2.072939272320   109.12581562   172.54466421
 C     27  24  23     2.901195062659   111.84308223   306.24614859
 H     27  24  23     2.069149923506   108.98879892   182.63677206
 H     27  24  23     2.079628268822   109.18300425    66.14720448
 C     21  19  15     2.830416421668   122.69417184   177.34510987
 H     33  21  19     2.090222319176   106.37881816   124.10039203
 C     33  21  19     2.880447093608   121.07679410     1.67405190
 H     13   3   2     1.826563024956   107.49924570    62.60723781
 C     35  33  21     2.925293845654   103.33921124   195.12217149
 H     35  33  21     2.069694373749   112.23798643    73.35983931
 H     35  33  21     2.070850490535   110.70497401   313.68210417
 C     30  27  24     2.940630766244   115.82002567   166.50668398
 H     37  35  33     2.065798712422   111.22734503   251.59906477
 H     37  35  33     2.072144352956   111.20569789   133.25062652
 H     40  30  27     2.081607349717   105.71192876   322.00895712
 C     40  30  27     2.900636807220   118.07568495    82.86953051
 C     30  27  24     2.900538718491   111.08220629   294.75793061
 H     45  30  27     2.068133949122   111.31236502    67.43806445
 H     45  30  27     2.069547929857   110.86456459   307.35917877
 H     45  30  27     2.068568956958   111.71412452   187.33423635
 H     44  40  30     2.081827230024   107.39437954    62.54333223
 C     44  40  30     2.910362093203   114.15147069   303.65355363
 C     44  40  30     2.860931384787   113.62325073   180.26454152
 C     51  44  40     2.519162510391   127.09286462    22.94407608
 H     51  44  40     2.062490702637   113.84958339   198.53657856
 H     52  51  44     2.057584526032   118.80695988   356.11802198
 C     52  51  44     2.852421349739   126.21339240   174.97140540
 C     55  52  51     2.891990840108   113.15471829    18.70770233
 C     55  52  51     2.939429455361   110.66980514   252.41079814
 H     55  52  51     2.085795636826   106.86202363   137.38496962
 H     57  55  52     2.081926172272   106.62240787    65.42890407
 C     57  55  52     2.895478312105   112.05222651   307.18960202
 C     57  55  52     2.894699406155   111.71509803   183.88569337
 H     56  55  52     2.068891794624   110.76532471    48.52584491
 H     56  55  52     2.072617103521   111.33691265   288.31941449
 H     56  55  52     2.065170890333   111.09908338   168.25529046
 H     60  57  55     2.069957378681   110.37044833   183.74945921
 H     60  57  55     2.067083661513   112.21478587    63.58778383
 H     60  57  55     2.074857619302   110.58489774   302.88557750
 H     61  57  55     2.074645061721   110.37737747    57.15599866
 H     61  57  55     2.066252771105   112.45129688   296.32367516
 H     61  57  55     2.070332812974   110.35553925   176.15741316
 H     50  44  40     2.070782921477   110.30041379   188.08169130
 H     50  44  40     2.065530747704   112.15298510    68.08967598
 H     50  44  40     2.071965487158   110.24168842   306.99862984

---------------------
BASIS SET INFORMATION
---------------------
There are 3 groups of distinct atoms

 Group   1 Type C   : 7s4p contracted to 4s3p pattern {4111/211}
 Group   2 Type H   : 5s contracted to 3s pattern {311}
 Group   3 Type O   : 7s4p contracted to 4s3p pattern {4111/211}

Atom   0C    basis set group =>   1
Atom   1C    basis set group =>   1
Atom   2C    basis set group =>   1
Atom   3H    basis set group =>   2
Atom   4H    basis set group =>   2
Atom   5C    basis set group =>   1
Atom   6C    basis set group =>   1
Atom   7C    basis set group =>   1
Atom   8H    basis set group =>   2
Atom   9H    basis set group =>   2
Atom  10H    basis set group =>   2
Atom  11H    basis set group =>   2
Atom  12O    basis set group =>   3
Atom  13H    basis set group =>   2
Atom  14C    basis set group =>   1
Atom  15C    basis set group =>   1
Atom  16H    basis set group =>   2
Atom  17H    basis set group =>   2
Atom  18C    basis set group =>   1
Atom  19H    basis set group =>   2
Atom  20C    basis set group =>   1
Atom  21H    basis set group =>   2
Atom  22C    basis set group =>   1
Atom  23C    basis set group =>   1
Atom  24H    basis set group =>   2
Atom  25H    basis set group =>   2
Atom  26C    basis set group =>   1
Atom  27H    basis set group =>   2
Atom  28H    basis set group =>   2
Atom  29C    basis set group =>   1
Atom  30H    basis set group =>   2
Atom  31H    basis set group =>   2
Atom  32C    basis set group =>   1
Atom  33H    basis set group =>   2
Atom  34C    basis set group =>   1
Atom  35H    basis set group =>   2
Atom  36C    basis set group =>   1
Atom  37H    basis set group =>   2
Atom  38H    basis set group =>   2
Atom  39C    basis set group =>   1
Atom  40H    basis set group =>   2
Atom  41H    basis set group =>   2
Atom  42H    basis set group =>   2
Atom  43C    basis set group =>   1
Atom  44C    basis set group =>   1
Atom  45H    basis set group =>   2
Atom  46H    basis set group =>   2
Atom  47H    basis set group =>   2
Atom  48H    basis set group =>   2
Atom  49C    basis set group =>   1
Atom  50C    basis set group =>   1
Atom  51C    basis set group =>   1
Atom  52H    basis set group =>   2
Atom  53H    basis set group =>   2
Atom  54C    basis set group =>   1
Atom  55C    basis set group =>   1
Atom  56C    basis set group =>   1
Atom  57H    basis set group =>   2
Atom  58H    basis set group =>   2
Atom  59C    basis set group =>   1
Atom  60C    basis set group =>   1
Atom  61H    basis set group =>   2
Atom  62H    basis set group =>   2
Atom  63H    basis set group =>   2
Atom  64H    basis set group =>   2
Atom  65H    basis set group =>   2
Atom  66H    basis set group =>   2
Atom  67H    basis set group =>   2
Atom  68H    basis set group =>   2
Atom  69H    basis set group =>   2
Atom  70H    basis set group =>   2
Atom  71H    basis set group =>   2
Atom  72H    basis set group =>   2

-------------------------
BASIS SET IN INPUT FORMAT
-------------------------

 # Basis set for element : H 
 NewGTO H 
 S 3 
   1    1357.7500000000      0.0012928364
   2      54.3100000000      0.0588280685
   3       4.3448000000      0.9761499708
 S 1 
   1       0.6604910000      1.0000000000
 S 1 
   1       0.1366870000      1.0000000000
  end;

 # Basis set for element : C 
 NewGTO C 
 S 4 
   1  139534.0000000000      0.0001655246
   2    5581.3600000000      0.0074486101
   3     446.5090000000      0.1285821065
   4      67.4620000000      0.9218029311
 S 1 
   1      15.0674000000      1.0000000000
 S 1 
   1       3.9387600000      1.0000000000
 S 1 
   1       0.2999150000      1.0000000000
 P 2 
   1      28.3900000000      0.0816325586
   2       4.3676900000      0.9660360576
 P 1 
   1       0.8698170000      1.0000000000
 P 1 
   1       0.1889340000      1.0000000000
  end;

 # Basis set for element : O 
 NewGTO O 
 S 4 
   1  253789.0000000000      0.0001641076
   2   10151.6000000000      0.0074010921
   3     812.1250000000      0.1277711901
   4     122.6930000000      0.9223372164
 S 1 
   1      27.5608000000      1.0000000000
 S 1 
   1       7.3172600000      1.0000000000
 S 1 
   1       0.5792400000      1.0000000000
 P 2 
   1      53.4157000000      0.0793786106
   2       8.2177900000      0.9670506337
 P 1 
   1       1.6754400000      1.0000000000
 P 1 
   1       0.3506720000      1.0000000000
  end;

---------------------------------
AUXILIARY/J BASIS SET INFORMATION
---------------------------------
There are 3 groups of distinct atoms

 Group   1 Type C   : 12s5p4d2f1g contracted to 6s4p3d1f1g pattern {711111/2111/211/2/1}
 Group   2 Type H   : 5s2p1d contracted to 3s1p1d pattern {311/2/1}
 Group   3 Type O   : 12s5p4d2f1g contracted to 6s4p3d1f1g pattern {711111/2111/211/2/1}

Atom   0C    basis set group =>   1
Atom   1C    basis set group =>   1
Atom   2C    basis set group =>   1
Atom   3H    basis set group =>   2
Atom   4H    basis set group =>   2
Atom   5C    basis set group =>   1
Atom   6C    basis set group =>   1
Atom   7C    basis set group =>   1
Atom   8H    basis set group =>   2
Atom   9H    basis set group =>   2
Atom  10H    basis set group =>   2
Atom  11H    basis set group =>   2
Atom  12O    basis set group =>   3
Atom  13H    basis set group =>   2
Atom  14C    basis set group =>   1
Atom  15C    basis set group =>   1
Atom  16H    basis set group =>   2
Atom  17H    basis set group =>   2
Atom  18C    basis set group =>   1
Atom  19H    basis set group =>   2
Atom  20C    basis set group =>   1
Atom  21H    basis set group =>   2
Atom  22C    basis set group =>   1
Atom  23C    basis set group =>   1
Atom  24H    basis set group =>   2
Atom  25H    basis set group =>   2
Atom  26C    basis set group =>   1
Atom  27H    basis set group =>   2
Atom  28H    basis set group =>   2
Atom  29C    basis set group =>   1
Atom  30H    basis set group =>   2
Atom  31H    basis set group =>   2
Atom  32C    basis set group =>   1
Atom  33H    basis set group =>   2
Atom  34C    basis set group =>   1
Atom  35H    basis set group =>   2
Atom  36C    basis set group =>   1
Atom  37H    basis set group =>   2
Atom  38H    basis set group =>   2
Atom  39C    basis set group =>   1
Atom  40H    basis set group =>   2
Atom  41H    basis set group =>   2
Atom  42H    basis set group =>   2
Atom  43C    basis set group =>   1
Atom  44C    basis set group =>   1
Atom  45H    basis set group =>   2
Atom  46H    basis set group =>   2
Atom  47H    basis set group =>   2
Atom  48H    basis set group =>   2
Atom  49C    basis set group =>   1
Atom  50C    basis set group =>   1
Atom  51C    basis set group =>   1
Atom  52H    basis set group =>   2
Atom  53H    basis set group =>   2
Atom  54C    basis set group =>   1
Atom  55C    basis set group =>   1
Atom  56C    basis set group =>   1
Atom  57H    basis set group =>   2
Atom  58H    basis set group =>   2
Atom  59C    basis set group =>   1
Atom  60C    basis set group =>   1
Atom  61H    basis set group =>   2
Atom  62H    basis set group =>   2
Atom  63H    basis set group =>   2
Atom  64H    basis set group =>   2
Atom  65H    basis set group =>   2
Atom  66H    basis set group =>   2
Atom  67H    basis set group =>   2
Atom  68H    basis set group =>   2
Atom  69H    basis set group =>   2
Atom  70H    basis set group =>   2
Atom  71H    basis set group =>   2
Atom  72H    basis set group =>   2

-------------------------------------
AUXILIARY/J BASIS SET IN INPUT FORMAT
-------------------------------------

 # Auxiliary/J basis set for element : H 
 NewAuxJGTO H 
 S 3 
   1      15.6752927000      0.1007184237
   2       3.6063578000      0.3404257499
   3       1.2080016000      0.6491996172
 S 1 
   1       0.4726794000      1.0000000000
 S 1 
   1       0.2018100000      1.0000000000
 P 2 
   1       2.0281365000      0.5596620919
   2       0.5358730000      0.5596620919
 D 1 
   1       2.2165124000      1.0000000000
  end;

 # Auxiliary/J basis set for element : C 
 NewAuxJGTO C 
 S 7 
   1    1861.0916331000      0.0134602335
   2     642.9939764000      0.0299160374
   3     235.1105725000      0.1008649584
   4      90.7028894000      0.2370970548
   5      36.7794552000      0.3924037254
   6      15.6046273000      0.3195862154
   7       6.8907294000      0.0530104441
 S 1 
   1       3.1478850000     -1.0000000000
 S 1 
   1       1.4777287000      1.0000000000
 S 1 
   1       0.7076466000      1.0000000000
 S 1 
   1       0.3430122000      1.0000000000
 S 1 
   1       0.1669453000      1.0000000000
 P 2 
   1      13.5472892000     -0.6769313712
   2       5.4669419000     -0.3779500978
 P 1 
   1       2.1751721000      1.0000000000
 P 1 
   1       0.8582194000      1.0000000000
 P 1 
   1       0.3376720000      1.0000000000
 D 2 
   1       5.9287253000     -0.3533329857
   2       1.9809209000     -0.7456525731
 D 1 
   1       0.8055417000     -1.0000000000
 D 1 
   1       0.3531244000     -1.0000000000
 F 2 
   1       1.6755626000      0.6311076882
   2       0.5997536000      0.4968166032
 G 1 
   1       1.0024600000     -1.0000000000
  end;

 # Auxiliary/J basis set for element : O 
 NewAuxJGTO O 
 S 7 
   1    2876.8216605000      0.0168151159
   2    1004.7443032000      0.0340137548
   3     369.7579954000      0.1194951309
   4     142.9442404000      0.2664627624
   5      57.8366425000      0.4202764046
   6      24.3864983000      0.2765077335
   7      10.6622662000      0.0057008815
 S 1 
   1       4.8070437000     -1.0000000000
 S 1 
   1       2.2210770000      1.0000000000
 S 1 
   1       1.0447795000      1.0000000000
 S 1 
   1       0.4968425000      1.0000000000
 S 1 
   1       0.2371384000      1.0000000000
 P 2 
   1      64.2613382000     -0.2731534179
   2      16.3006076000     -0.8168011598
 P 1 
   1       4.3550542000      1.0000000000
 P 1 
   1       1.2019554000      1.0000000000
 P 1 
   1       0.3354196000      1.0000000000
 D 2 
   1       9.2146611000     -0.4661230638
   2       2.8435251000     -0.6600908911
 D 1 
   1       0.9955759000     -1.0000000000
 D 1 
   1       0.3649441000     -1.0000000000
 F 2 
   1       2.6420115000      0.5931563945
   2       0.7345613000      0.5931563945
 G 1 
   1       1.3931000000     -1.0000000000
  end;



           ************************************************************
           *        Program running with 4 parallel MPI-processes     *
           *              working on a common directory               *
           ************************************************************
------------------------------------------------------------------------------
                             ORCA STARTUP CALCULATIONS
                           -- RI-GTO INTEGRALS CHOSEN --
------------------------------------------------------------------------------
------------------------------------------------------------------------------
                   ___                                                        
                  /   \      - P O W E R E D   B Y -                         
                 /     \                                                     
                 |  |  |   _    _      __       _____    __    __             
                 |  |  |  | |  | |    /  \     |  _  \  |  |  /  |          
                  \  \/   | |  | |   /    \    | | | |  |  | /  /          
                 / \  \   | |__| |  /  /\  \   | |_| |  |  |/  /          
                |  |  |   |  __  | /  /__\  \  |    /   |      \           
                |  |  |   | |  | | |   __   |  |    \   |  |\   \          
                \     /   | |  | | |  |  |  |  | |\  \  |  | \   \       
                 \___/    |_|  |_| |__|  |__|  |_| \__\ |__|  \__/        
                                                                              
                      - O R C A' S   B I G   F R I E N D -                    
                                      &                                       
                       - I N T E G R A L  F E E D E R -                       
                                                                              
 v1 FN, 2020, v2 2021, v3 2022-2024                                           
------------------------------------------------------------------------------


----------------------
SHARK INTEGRAL PACKAGE
----------------------

Number of atoms                             ...     73
Number of basis functions                   ...    509
Number of shells                            ...    335
Maximum angular momentum                    ...      1
Integral batch strategy                     ... SHARK/LIBINT Hybrid
RI-J (if used) integral strategy            ... SPLIT-RIJ (Revised 2003 algorithm where possible)
Printlevel                                  ...      1
Contraction scheme used                     ... SEGMENTED contraction
Prescreening option                         ... SCHWARTZ
   Thresh                                   ... 3.000e-11
   Tcut                                     ... 1.000e-12
   Tpresel                                  ... 1.000e-12 
Coulomb Range Separation                    ... NOT USED
Exchange Range Separation                   ... NOT USED
Multipole approximations                    ... NOT USED
Finite Nucleus Model                        ... NOT USED
CABS basis                                  ... NOT available
Auxiliary Coulomb fitting basis             ... AVAILABLE
   # of basis functions in Aux-J            ...   1905
   # of shells in Aux-J                     ...    655
   Maximum angular momentum in Aux-J        ...      4
Auxiliary J/K fitting basis                 ... NOT available
Auxiliary Correlation fitting basis         ... NOT available
Auxiliary 'external' fitting basis          ... NOT available

Checking pre-screening integrals            ... done (  0.0 sec) Dimension = 335
Check shell pair data                       ... done (  0.0 sec)
Shell pair information
Shell pair cut-off parameter TPreSel        ...   1.0e-12
Total number of shell pairs                 ...     56280
Shell pairs after pre-screening             ...     21797
Total number of primitive shell pairs       ...    145865
Primitive shell pairs kept                  ...     37478
          la=0 lb=0:  10981 shell pairs
          la=1 lb=0:   8951 shell pairs
          la=1 lb=1:   1865 shell pairs

Calculating one electron integrals          ... done (  0.0 sec)
Calculating RI/J V-Matrix + Cholesky decomp.... done (  0.2 sec)
Calculating Nuclear repulsion               ... done (  0.0 sec) ENN=   2770.491745335373 Eh

Diagonalization of the overlap matrix:
Smallest eigenvalue                        ... 7.556e-03
Time for diagonalization                   ...    0.032 sec
Threshold for overlap eigenvalues          ... 1.000e-07
Number of eigenvalues below threshold      ... 0
Time for construction of square roots      ...    0.018 sec
Total time needed                          ...    0.053 sec

-------------------
DFT GRID GENERATION
-------------------

General Integration Accuracy     IntAcc      ... 4.388
Radial Grid Type                 RadialGrid  ... OptM3 with GC (2021)
Angular Grid (max. ang.)         AngularGrid ... 4 (Lebedev-302)
Angular grid pruning method      GridPruning ... 4 (adaptive)
Weight generation scheme         WeightScheme... mBecke (2022)
Basis function cutoff            BFCut       ... 1.0000e-11
Integration weight cutoff        WCut        ... 1.0000e-14
Partially contracted basis set               ... off
Rotationally invariant grid construction     ... off
Angular grids for H and He will be reduced by one unit

Total number of grid points                  ...   309941
Total number of batches                      ...     4882
Average number of points per batch           ...       63
Average number of grid points per atom       ...     4246

--------------------
COSX GRID GENERATION
--------------------

GRIDX 1
-------
General Integration Accuracy     IntAcc      ... 3.816
Radial Grid Type                 RadialGrid  ... OptM3 with GC (2021)
Angular Grid (max. ang.)         AngularGrid ... 1 (Lebedev-50)
Angular grid pruning method      GridPruning ... 4 (adaptive)
Weight generation scheme         WeightScheme... mBecke (2022)
Basis function cutoff            BFCut       ... 1.0000e-11
Integration weight cutoff        WCut        ... 1.0000e-14
Partially contracted basis set               ... on
Rotationally invariant grid construction     ... off
Angular grids for H and He will be reduced by one unit

Total number of grid points                  ...    39390
Total number of batches                      ...      352
Average number of points per batch           ...      111
Average number of grid points per atom       ...      540
UseSFitting                                  ... on

GRIDX 2
-------
General Integration Accuracy     IntAcc      ... 4.020
Radial Grid Type                 RadialGrid  ... OptM3 with GC (2021)
Angular Grid (max. ang.)         AngularGrid ... 2 (Lebedev-110)
Angular grid pruning method      GridPruning ... 4 (adaptive)
Weight generation scheme         WeightScheme... mBecke (2022)
Basis function cutoff            BFCut       ... 1.0000e-11
Integration weight cutoff        WCut        ... 1.0000e-14
Partially contracted basis set               ... on
Rotationally invariant grid construction     ... off
Angular grids for H and He will be reduced by one unit

Total number of grid points                  ...    81384
Total number of batches                      ...      675
Average number of points per batch           ...      120
Average number of grid points per atom       ...     1115
UseSFitting                                  ... on

GRIDX 3
-------
General Integration Accuracy     IntAcc      ... 4.338
Radial Grid Type                 RadialGrid  ... OptM3 with GC (2021)
Angular Grid (max. ang.)         AngularGrid ... 3 (Lebedev-194)
Angular grid pruning method      GridPruning ... 4 (adaptive)
Weight generation scheme         WeightScheme... mBecke (2022)
Basis function cutoff            BFCut       ... 1.0000e-11
Integration weight cutoff        WCut        ... 1.0000e-14
Partially contracted basis set               ... on
Rotationally invariant grid construction     ... off
Angular grids for H and He will be reduced by one unit

Total number of grid points                  ...   176337
Total number of batches                      ...     1421
Average number of points per batch           ...      124
Average number of grid points per atom       ...     2416
UseSFitting                                  ... on
Initializing property integral containers    ... done (  0.0 sec)

SHARK setup successfully completed in   4.0 seconds

Maximum memory used throughout the entire STARTUP-calculation: 85.4 MB


           ************************************************************
           *        Program running with 4 parallel MPI-processes     *
           *              working on a common directory               *
           ************************************************************
-------------------------------------------------------------------------------
                                 ORCA GUESS
                   Start orbitals & Density for SCF / CASSCF
-------------------------------------------------------------------------------

------------
SCF SETTINGS
------------
Hamiltonian:
 Density Functional     Method          .... DFT(GTOs)
 Exchange Functional    Exchange        .... PBE
   PBE kappa parameter   XKappa         ....  0.804000
   PBE mue parameter    XMuePBE         ....  0.219520
 Correlation Functional Correlation     .... PBE
   PBE beta parameter  CBetaPBE         ....  0.066725
 LDA part of GGA corr.  LDAOpt          .... PW91-LDA
 Gradients option       PostSCFGGA      .... off
 Hybrid DFT is turned on
   Fraction HF Exchange ScalHFX         ....  0.250000
   Scaling of DF-GGA-X  ScalDFX         ....  0.750000
   Scaling of DF-GGA-C  ScalDFC         ....  1.000000
   Scaling of DF-LDA-C  ScalLDAC        ....  1.000000
   Perturbative correction              ....  0.000000
   NL short-range parameter             ....  6.900000
 RI-approximation to the Coulomb term is turned on
   Number of AuxJ basis functions       .... 1905
   RIJ-COSX (HFX calculated with COS-X)).... on


General Settings:
 Integral files         IntName         .... inpJ
 Hartree-Fock type      HFTyp           .... RHF
 Total Charge           Charge          ....    0
 Multiplicity           Mult            ....    1
 Number of Electrons    NEL             ....  220
 Basis Dimension        Dim             ....  509
 Nuclear Repulsion      ENuc            ....   2770.4917453354 Eh

Convergence Acceleration:
 AO-DIIS                CNVDIIS         .... on
   Start iteration      DIISMaxIt       ....    12
   Startup error        DIISStart       ....  0.200000
   # of expansion vecs  DIISMaxEq       ....     5
   Bias factor          DIISBfac        ....   1.050
   Max. coefficient     DIISMaxC        ....  10.000
 MO-DIIS                CNVKDIIS        .... off
 Trust-Rad. Augm. Hess. CNVTRAH         .... auto
   Auto Start mean grad. ratio tolernc. ....  1.125000
   Auto Start start iteration           ....    50
   Auto Start num. interpolation iter.  ....    10
   Max. Number of Micro iterations      ....    24
   Max. Number of Macro iterations      .... Maxiter - #DIIS iter
   Number of Davidson start vectors     ....     2
   Converg. threshold    (grad. norm)   ....   1.000e-04
   Grad. Scal. Fac. for Micro threshold ....   0.100
   Minimum threshold for Micro iter.    ....   1.000e-02
   NR start threshold (gradient norm)   ....   1.000e-04
   Initial trust radius                 ....   0.400
   Minimum AH scaling param. (alpha)    ....   1.000
   Maximum AH scaling param. (alpha)    .... 1000.000
   Quad. conv. algorithm                .... NR
   White noise on init. David. guess    .... on
   Maximum white noise                  ....   0.010
   Pseudo random numbers                .... off
   Inactive MOs                         .... canonical
   Orbital update algorithm             .... Taylor
   Preconditioner                       .... Diag
   Full preconditioner red. dimension   ....   250
 SOSCF                  CNVSOSCF        .... off
 Level Shifting         CNVShift        .... on
   Level shift para.    LevelShift      ....    0.2500
   Turn off err/grad.   ShiftErr        ....    0.0010
 Zerner damping         CNVZerner       .... off
 Static damping         CNVDamp         .... on
   Fraction old density DampFac         ....    0.7000
   Max. Damping (<1)    DampMax         ....    0.9800
   Min. Damping (>=0)   DampMin         ....    0.0000
   Turn off err/grad.   DampErr         ....    0.1000

SCF Procedure:
 Maximum # iterations   MaxIter         ....   125
 SCF integral mode      SCFMode         .... Direct
   Integral package                     .... SHARK and LIBINT hybrid scheme
 Reset frequency        DirectResetFreq ....    20
 Integral Threshold     Thresh          ....  3.000e-11 Eh
 Primitive CutOff       TCut            ....  1.000e-12 Eh

Convergence Tolerance:
 Convergence Check Mode ConvCheckMode   .... Total+1el-Energy
 Convergence forced     ConvForced      .... 0
 Energy Change          TolE            ....  1.000e-07 Eh
 1-El. energy change                    ....  1.000e-04 Eh
 DIIS Error             TolErr          ....  1.000e-07

------------------------------
INITIAL GUESS: MODEL POTENTIAL
------------------------------
Loading Hartree-Fock densities                     ... done
Calculating cut-offs                               ... done
Initializing the effective Hamiltonian             ... done
Setting up the integral package (SHARK)            ... done
Starting the Coulomb interaction                   ... done (   0.4 sec)
Making the grid                                    ... done (   0.4 sec)
Mapping shells                                     ... done
Starting the XC term evaluation                    ... done (   0.1 sec)
  promolecular density results
     # of electrons  =    219.981870277
     EX              =   -164.433298977
     EC              =     -7.327172441
     EX+EC           =   -171.760471417
Transforming the Hamiltonian                       ... done (   0.0 sec)
Diagonalizing the Hamiltonian                      ... done (   0.0 sec)
Back transforming the eigenvectors                 ... done (   0.0 sec)
Now organizing SCF variables                       ... done
                      ------------------
                      INITIAL GUESS DONE (   1.0 sec)
                      ------------------
             **** ENERGY FILE WAS UPDATED (inpJ.en.tmp) ****
Finished Guess after   1.1 sec
Maximum memory used throughout the entire GUESS-calculation: 45.6 MB


           ************************************************************
           *        Program running with 4 parallel MPI-processes     *
           *              working on a common directory               *
           ************************************************************

-------------------------------------------------------------------------------------------
                                      ORCA LEAN-SCF
                              memory conserving SCF solver
-------------------------------------------------------------------------------------------

--------------------
CPCM SOLVATION MODEL
--------------------
CPCM parameters:
  Epsilon                                         ...       4.8030
  Refrac                                          ...       1.4459
  Rsolv                                           ...       1.3000
  Surface type                                    ... GAUSSIAN VDW
  Discretization scheme                           ... Constant charge density
    Threshold for H atoms                         ...       5.0000 (charges/Ang^2)
    Threshold for non-H atoms                     ...       5.0000 (charges/Ang^2)
  Epsilon function type                           ...         CPCM
Solvent:                                          ... CHLOROFORM
Radii:
  Scheme                                          ... Element-dependent radii
  Radius for C  used is    3.8550 Bohr (=   2.0400 Ang.)
  Radius for H  used is    2.4944 Bohr (=   1.3200 Ang.)
  Radius for O  used is    3.4469 Bohr (=   1.8240 Ang.)
Calculating surface                               ...        done! (  0.0s)
Cavity surface points                             ...         5420
Cavity Volume                                     ...    3605.4518
Cavity Surface-area                               ...    1792.3494
Calculating surface distance matrix               ...        done! (  0.3s)
Performing Cholesky decomposition & store         ...        done! (  0.9s)
Overall time for CPCM initialization              ...                 1.3s

----------------------------------------D-I-I-S--------------------------------------------
Iteration    Energy (Eh)           Delta-E    RMSDP     MaxDP     DIISErr   Damp  Time(sec)
-------------------------------------------------------------------------------------------
               ***  Starting incremental Fock matrix formation  ***
    1    -1165.0073361286472391     0.00e+00  1.50e-03  9.76e-02  1.92e-01  0.700   6.7

  HOMO= 109 E= -3.904 eV LUMO=  7.784 eV gap=  11.687 eV
    2    -1165.2251391687123032    -2.18e-01  1.10e-03  6.55e-02  9.33e-02  0.700   3.8

  HOMO= 109 E= -4.746 eV LUMO=  7.091 eV gap=  11.837 eV
                               ***Turning on AO-DIIS***
    3    -1165.3258590159093728    -1.01e-01  4.54e-04  2.23e-02  3.77e-02  0.700   3.9

  HOMO= 109 E= -5.748 eV LUMO=  6.148 eV gap=  11.896 eV
    4    -1165.3836608957581120    -5.78e-02  7.65e-04  3.23e-02  2.69e-02  0.000   3.7

  HOMO= 109 E= -5.913 eV LUMO=  5.986 eV gap=  11.899 eV
    5    -1165.5059689500008062    -1.22e-01  1.07e-04  6.28e-03  3.31e-03  0.000   3.7

  HOMO= 109 E= -5.962 eV LUMO=  5.942 eV gap=  11.904 eV
    6    -1165.5061908410930300    -2.22e-04  3.17e-05  2.00e-03  9.05e-04  0.000   3.4

  HOMO= 109 E= -5.927 eV LUMO=  5.981 eV gap=  11.908 eV
               *** Restarting incremental Fock matrix formation ***
                             ****Resetting DIIS****
    7    -1165.5062978742421365    -1.07e-04  1.53e-05  1.14e-03  2.97e-04  0.000   6.8

  HOMO= 109 E= -5.920 eV LUMO= -0.814 eV gap=   5.106 eV
    8    -1165.5062991830945975    -1.31e-06  7.02e-06  6.87e-04  4.21e-04  0.000   4.1

  HOMO= 109 E= -5.922 eV LUMO= -0.816 eV gap=   5.107 eV
    9    -1165.5063001351422827    -9.52e-07  2.70e-06  2.50e-04  1.87e-04  0.000   3.3

  HOMO= 109 E= -5.923 eV LUMO= -0.816 eV gap=   5.107 eV
   10    -1165.5063003226582623    -1.88e-07  8.86e-07  8.58e-05  5.46e-05  0.000   3.0

  HOMO= 109 E= -5.922 eV LUMO= -0.815 eV gap=   5.107 eV
   11    -1165.5063003232689880    -6.11e-10  2.72e-07  2.94e-05  1.29e-05  0.000   2.9
                 **** Energy Check signals convergence ****

  HOMO= 109 E= -5.922 eV LUMO= -0.815 eV gap=   5.107 eV

               *****************************************************
               *                     SUCCESS                       *
               *           SCF CONVERGED AFTER  11 CYCLES          *
               *****************************************************

Recomputing exchange energy using gridx3       ... done (    8.114 sec)
Old exchange energy                            :    -42.067561262 Eh
New exchange energy                            :    -42.067600200 Eh
Exchange energy change after final integration :     -0.000038938 Eh
Total energy after final integration           :  -1165.506339261 Eh
             **** ENERGY FILE WAS UPDATED (inpJ.en.tmp) ****

----------------
TOTAL SCF ENERGY
----------------

Total Energy       :      -1165.50633926083628 Eh          -31715.03985 eV

Components:
Nuclear Repulsion  :       2770.49174533537325 Eh           75388.91309 eV
Electronic Energy  :      -3935.98248949489061 Eh         -107103.52858 eV
One Electron Energy:      -7083.05692683014968 Eh         -192739.77768 eV
Two Electron Energy:       3147.07443733525906 Eh           85636.24910 eV
CPCM Dielectric    :         -0.01555616375154 Eh              -0.42330 eV

Virial components:
Potential Energy   :      -2322.40710297513760 Eh          -63195.91009 eV
Kinetic Energy     :       1156.90076371430109 Eh           31480.87024 eV
Virial Ratio       :          2.00743847339067

DFT components:
N(Alpha)           :      110.000211058210 electrons
N(Beta)            :      110.000211058210 electrons
N(Total)           :      220.000422116420 electrons
E(X)               :     -125.745749165486 Eh       
E(C)               :       -7.327694339961 Eh       
E(XC)              :     -133.073443505448 Eh       

CPCM Solvation Model Properties:
Surface-charge          :         -0.03327315850323
Corrected charge        :          0.00000000000000
Outlying charge corr.   :          0.00003857962094 Eh               0.00105 eV
Free-energy (cav+disp)  :  This term is not implemented in the current solvation scheme

---------------
SCF CONVERGENCE
---------------

  Last Energy change         ...    6.1073e-10  Tolerance :   1.0000e-07
  Last MAX-Density change    ...    2.9353e-05  Tolerance :   1.0000e-05
  Last RMS-Density change    ...    2.7242e-07  Tolerance :   1.0000e-06
  Last DIIS Error            ...    1.2898e-05  Tolerance :   1.0000e-07


----------------
ORBITAL ENERGIES
----------------

  NO   OCC          E(Eh)            E(eV) 
   0   2.0000     -19.215137      -522.8705 
   1   2.0000     -10.301405      -280.3155 
   2   2.0000     -10.269493      -279.4471 
   3   2.0000     -10.266784      -279.3734 
   4   2.0000     -10.261674      -279.2344 
   5   2.0000     -10.256246      -279.0866 
   6   2.0000     -10.253414      -279.0096 
   7   2.0000     -10.251594      -278.9601 
   8   2.0000     -10.251438      -278.9558 
   9   2.0000     -10.250448      -278.9289 
  10   2.0000     -10.249255      -278.8964 
  11   2.0000     -10.246150      -278.8119 
  12   2.0000     -10.245003      -278.7807 
  13   2.0000     -10.243969      -278.7526 
  14   2.0000     -10.243921      -278.7513 
  15   2.0000     -10.243441      -278.7382 
  16   2.0000     -10.243026      -278.7269 
  17   2.0000     -10.241991      -278.6988 
  18   2.0000     -10.241510      -278.6857 
  19   2.0000     -10.241091      -278.6743 
  20   2.0000     -10.239140      -278.6212 
  21   2.0000     -10.233456      -278.4665 
  22   2.0000     -10.233372      -278.4642 
  23   2.0000     -10.232374      -278.4370 
  24   2.0000     -10.226873      -278.2874 
  25   2.0000     -10.224752      -278.2296 
  26   2.0000     -10.224705      -278.2284 
  27   2.0000     -10.224608      -278.2257 
  28   2.0000     -10.220008      -278.1006 
  29   2.0000      -1.045958       -28.4620 
  30   2.0000      -0.900616       -24.5070 
  31   2.0000      -0.883692       -24.0465 
  32   2.0000      -0.860025       -23.4025 
  33   2.0000      -0.845360       -23.0034 
  34   2.0000      -0.821967       -22.3669 
  35   2.0000      -0.813663       -22.1409 
  36   2.0000      -0.794933       -21.6312 
  37   2.0000      -0.794736       -21.6259 
  38   2.0000      -0.777416       -21.1546 
  39   2.0000      -0.757391       -20.6097 
  40   2.0000      -0.738968       -20.1083 
  41   2.0000      -0.733186       -19.9510 
  42   2.0000      -0.713719       -19.4213 
  43   2.0000      -0.702339       -19.1116 
  44   2.0000      -0.699399       -19.0316 
  45   2.0000      -0.693521       -18.8717 
  46   2.0000      -0.668855       -18.2005 
  47   2.0000      -0.663239       -18.0477 
  48   2.0000      -0.631525       -17.1847 
  49   2.0000      -0.621784       -16.9196 
  50   2.0000      -0.619414       -16.8551 
  51   2.0000      -0.608440       -16.5565 
  52   2.0000      -0.596667       -16.2361 
  53   2.0000      -0.587071       -15.9750 
  54   2.0000      -0.567040       -15.4299 
  55   2.0000      -0.541779       -14.7426 
  56   2.0000      -0.531182       -14.4542 
  57   2.0000      -0.528585       -14.3835 
  58   2.0000      -0.515008       -14.0141 
  59   2.0000      -0.511363       -13.9149 
  60   2.0000      -0.498719       -13.5708 
  61   2.0000      -0.492587       -13.4040 
  62   2.0000      -0.480586       -13.0774 
  63   2.0000      -0.477378       -12.9901 
  64   2.0000      -0.475891       -12.9497 
  65   2.0000      -0.469145       -12.7661 
  66   2.0000      -0.464064       -12.6278 
  67   2.0000      -0.460708       -12.5365 
  68   2.0000      -0.456909       -12.4331 
  69   2.0000      -0.450091       -12.2476 
  70   2.0000      -0.448218       -12.1966 
  71   2.0000      -0.440660       -11.9910 
  72   2.0000      -0.439297       -11.9539 
  73   2.0000      -0.432544       -11.7701 
  74   2.0000      -0.430193       -11.7061 
  75   2.0000      -0.418404       -11.3853 
  76   2.0000      -0.416476       -11.3329 
  77   2.0000      -0.414878       -11.2894 
  78   2.0000      -0.406799       -11.0696 
  79   2.0000      -0.403855       -10.9894 
  80   2.0000      -0.401380       -10.9221 
  81   2.0000      -0.399480       -10.8704 
  82   2.0000      -0.394786       -10.7427 
  83   2.0000      -0.390028       -10.6132 
  84   2.0000      -0.388910       -10.5828 
  85   2.0000      -0.384895       -10.4735 
  86   2.0000      -0.378054       -10.2874 
  87   2.0000      -0.369071       -10.0429 
  88   2.0000      -0.367305        -9.9949 
  89   2.0000      -0.365745        -9.9524 
  90   2.0000      -0.361615        -9.8401 
  91   2.0000      -0.360833        -9.8188 
  92   2.0000      -0.354361        -9.6427 
  93   2.0000      -0.344114        -9.3638 
  94   2.0000      -0.340977        -9.2785 
  95   2.0000      -0.337434        -9.1820 
  96   2.0000      -0.336611        -9.1597 
  97   2.0000      -0.332326        -9.0430 
  98   2.0000      -0.331115        -9.0101 
  99   2.0000      -0.328028        -8.9261 
 100   2.0000      -0.326263        -8.8781 
 101   2.0000      -0.325242        -8.8503 
 102   2.0000      -0.316972        -8.6252 
 103   2.0000      -0.315053        -8.5730 
 104   2.0000      -0.310814        -8.4577 
 105   2.0000      -0.299714        -8.1556 
 106   2.0000      -0.279940        -7.6176 
 107   2.0000      -0.274761        -7.4766 
 108   2.0000      -0.255539        -6.9536 
 109   2.0000      -0.217643        -5.9224 
 110   0.0000      -0.029961        -0.8153 
 111   0.0000       0.021374         0.5816 
 112   0.0000       0.027809         0.7567 
 113   0.0000       0.080746         2.1972 
 114   0.0000       0.090890         2.4732 
 115   0.0000       0.101986         2.7752 
 116   0.0000       0.105527         2.8715 
 117   0.0000       0.107002         2.9117 
 118   0.0000       0.108303         2.9471 
 119   0.0000       0.118470         3.2237 
 120   0.0000       0.119070         3.2401 
*Only the first 10 virtual orbitals were printed.

                    ********************************
                    * MULLIKEN POPULATION ANALYSIS *
                    ********************************

-----------------------
MULLIKEN ATOMIC CHARGES
-----------------------
   0 C :    0.107360
   1 C :   -0.499846
   2 C :   -0.054766
   3 H :    0.207218
   4 H :    0.222115
   5 C :    0.135551
   6 C :   -0.475597
   7 C :   -0.451692
   8 H :    0.214201
   9 H :    0.223997
  10 H :    0.229135
  11 H :    0.204633
  12 O :   -0.487332
  13 H :    0.233858
  14 C :   -0.283317
  15 C :   -0.516400
  16 H :    0.201283
  17 H :    0.196627
  18 C :   -0.259462
  19 H :    0.217593
  20 C :    0.150134
  21 H :    0.219347
  22 C :   -0.480216
  23 C :   -0.427277
  24 H :    0.211500
  25 H :    0.206455
  26 C :   -0.396515
  27 H :    0.207882
  28 H :    0.216737
  29 C :    0.004738
  30 H :    0.222493
  31 H :    0.194128
  32 C :   -0.229098
  33 H :    0.226779
  34 C :   -0.434299
  35 H :    0.343174
  36 C :   -0.418272
  37 H :    0.207117
  38 H :    0.198260
  39 C :   -0.200265
  40 H :    0.210493
  41 H :    0.204242
  42 H :    0.209131
  43 C :   -0.240000
  44 C :   -0.629234
  45 H :    0.209255
  46 H :    0.201481
  47 H :    0.205024
  48 H :    0.219747
  49 C :   -0.619695
  50 C :   -0.180077
  51 C :   -0.183381
  52 H :    0.217194
  53 H :    0.221288
  54 C :   -0.232132
  55 C :   -0.632363
  56 C :   -0.198540
  57 H :    0.210850
  58 H :    0.212314
  59 C :   -0.612744
  60 C :   -0.613226
  61 H :    0.203956
  62 H :    0.191374
  63 H :    0.213376
  64 H :    0.206198
  65 H :    0.208599
  66 H :    0.192136
  67 H :    0.192552
  68 H :    0.209965
  69 H :    0.205619
  70 H :    0.204476
  71 H :    0.208445
  72 H :    0.195716
Sum of atomic charges:    0.0000000

--------------------------------
MULLIKEN REDUCED ORBITAL CHARGES
--------------------------------
  0 C s       :     3.355831  s :     3.355831
      pz      :     1.005584  p :     2.536809
      px      :     0.798030
      py      :     0.733195

  1 C s       :     3.383622  s :     3.383622
      pz      :     0.999480  p :     3.116224
      px      :     0.961605
      py      :     1.155139

  2 C s       :     3.306314  s :     3.306314
      pz      :     1.039399  p :     2.748451
      px      :     0.815747
      py      :     0.893306

  3 H s       :     0.792782  s :     0.792782

  4 H s       :     0.777885  s :     0.777885

  5 C s       :     3.345153  s :     3.345153
      pz      :     0.820116  p :     2.519296
      px      :     0.950607
      py      :     0.748573

  6 C s       :     3.368328  s :     3.368328
      pz      :     1.005604  p :     3.107269
      px      :     0.960213
      py      :     1.141452

  7 C s       :     3.340443  s :     3.340443
      pz      :     1.193499  p :     3.111249
      px      :     0.996461
      py      :     0.921289

  8 H s       :     0.785799  s :     0.785799

  9 H s       :     0.776003  s :     0.776003

 10 H s       :     0.770865  s :     0.770865

 11 H s       :     0.795367  s :     0.795367

 12 O s       :     3.685551  s :     3.685551
      pz      :     1.676160  p :     4.801782
      px      :     1.272882
      py      :     1.852740

 13 H s       :     0.766142  s :     0.766142

 14 C s       :     3.392483  s :     3.392483
      pz      :     1.001253  p :     2.890833
      px      :     0.801815
      py      :     1.087766

 15 C s       :     3.386665  s :     3.386665
      pz      :     1.010211  p :     3.129736
      px      :     1.016994
      py      :     1.102531

 16 H s       :     0.798717  s :     0.798717

 17 H s       :     0.803373  s :     0.803373

 18 C s       :     3.396909  s :     3.396909
      pz      :     1.021155  p :     2.862553
      px      :     0.753288
      py      :     1.088111

 19 H s       :     0.782407  s :     0.782407

 20 C s       :     3.350595  s :     3.350595
      pz      :     0.949520  p :     2.499271
      px      :     0.754981
      py      :     0.794770

 21 H s       :     0.780653  s :     0.780653

 22 C s       :     3.372599  s :     3.372599
      pz      :     1.110731  p :     3.107617
      px      :     1.112733
      py      :     0.884153

 23 C s       :     3.327191  s :     3.327191
      pz      :     1.105874  p :     3.100086
      px      :     0.892318
      py      :     1.101894

 24 H s       :     0.788500  s :     0.788500

 25 H s       :     0.793545  s :     0.793545

 26 C s       :     3.349417  s :     3.349417
      pz      :     1.170138  p :     3.047098
      px      :     0.965707
      py      :     0.911253

 27 H s       :     0.792118  s :     0.792118

 28 H s       :     0.783263  s :     0.783263

 29 C s       :     3.317542  s :     3.317542
      pz      :     0.871286  p :     2.677720
      px      :     0.903966
      py      :     0.902468

 30 H s       :     0.777507  s :     0.777507

 31 H s       :     0.805872  s :     0.805872

 32 C s       :     3.362220  s :     3.362220
      pz      :     1.085896  p :     2.866878
      px      :     0.868929
      py      :     0.912053

 33 H s       :     0.773221  s :     0.773221

 34 C s       :     3.343888  s :     3.343888
      pz      :     1.188436  p :     3.090411
      px      :     0.938590
      py      :     0.963385

 35 H s       :     0.656826  s :     0.656826

 36 C s       :     3.338471  s :     3.338471
      pz      :     1.173702  p :     3.079802
      px      :     0.930647
      py      :     0.975452

 37 H s       :     0.792883  s :     0.792883

 38 H s       :     0.801740  s :     0.801740

 39 C s       :     3.342443  s :     3.342443
      pz      :     1.072938  p :     2.857822
      px      :     0.866386
      py      :     0.918498

 40 H s       :     0.789507  s :     0.789507

 41 H s       :     0.795758  s :     0.795758

 42 H s       :     0.790869  s :     0.790869

 43 C s       :     3.347125  s :     3.347125
      pz      :     1.058928  p :     2.892875
      px      :     0.884573
      py      :     0.949373

 44 C s       :     3.366354  s :     3.366354
      pz      :     0.951975  p :     3.262880
      px      :     1.160182
      py      :     1.150724

 45 H s       :     0.790745  s :     0.790745

 46 H s       :     0.798519  s :     0.798519

 47 H s       :     0.794976  s :     0.794976

 48 H s       :     0.780253  s :     0.780253

 49 C s       :     3.348381  s :     3.348381
      pz      :     1.153563  p :     3.271314
      px      :     1.152734
      py      :     0.965017

 50 C s       :     3.347514  s :     3.347514
      pz      :     0.893119  p :     2.832562
      px      :     0.965601
      py      :     0.973842

 51 C s       :     3.350608  s :     3.350608
      pz      :     0.895981  p :     2.832773
      px      :     0.954245
      py      :     0.982547

 52 H s       :     0.782806  s :     0.782806

 53 H s       :     0.778712  s :     0.778712

 54 C s       :     3.339447  s :     3.339447
      pz      :     0.994618  p :     2.892685
      px      :     0.902284
      py      :     0.995783

 55 C s       :     3.348133  s :     3.348133
      pz      :     1.059074  p :     3.284230
      px      :     1.107727
      py      :     1.117429

 56 C s       :     3.311398  s :     3.311398
      pz      :     0.998457  p :     2.887142
      px      :     0.896867
      py      :     0.991818

 57 H s       :     0.789150  s :     0.789150

 58 H s       :     0.787686  s :     0.787686

 59 C s       :     3.341602  s :     3.341602
      pz      :     1.051246  p :     3.271142
      px      :     1.103992
      py      :     1.115904

 60 C s       :     3.341985  s :     3.341985
      pz      :     1.125057  p :     3.271241
      px      :     1.014325
      py      :     1.131859

 61 H s       :     0.796044  s :     0.796044

 62 H s       :     0.808626  s :     0.808626

 63 H s       :     0.786624  s :     0.786624

 64 H s       :     0.793802  s :     0.793802

 65 H s       :     0.791401  s :     0.791401

 66 H s       :     0.807864  s :     0.807864

 67 H s       :     0.807448  s :     0.807448

 68 H s       :     0.790035  s :     0.790035

 69 H s       :     0.794381  s :     0.794381

 70 H s       :     0.795524  s :     0.795524

 71 H s       :     0.791555  s :     0.791555

 72 H s       :     0.804284  s :     0.804284


------------------------
MULLIKEN OVERLAP CHARGES
------------------------
B(  0-C ,  1-C ) :   0.4962 B(  0-C ,  2-C ) :  -0.1307 B(  0-C ,  3-H ) :  -0.0876 
B(  0-C ,  4-H ) :  -0.0672 B(  0-C ,  5-C ) :   0.4215 B(  0-C ,  6-C ) :  -0.1566 
B(  0-C , 14-C ) :   0.9467 B(  0-C , 15-C ) :  -0.2027 B(  0-C , 18-C ) :  -0.1837 
B(  0-C , 19-H ) :  -0.0750 B(  1-C ,  2-C ) :   0.5270 B(  1-C ,  3-H ) :   0.7957 
B(  1-C ,  4-H ) :   0.8137 B(  1-C ,  5-C ) :  -0.1487 B(  1-C ,  7-C ) :  -0.1688 
[...]
        0.0000         1.1261        0.0000
        0.0000         0.0000        1.1261

 Diagonalized JT*J matrix:
 
 J[55,60](FC)             1.126            1.126            1.126  iso=      1.126
                ---------------  ---------------  ---------------  ---------------
 J[55,60](Total)          1.126            1.126            1.126  iso=      1.126



-----------------------------------------------------------
 NUCLEUS A = C   56 NUCLEUS B = C   59 
 ( 13C  gnA =  1.405  13C  gnB =  1.405) r(AB) =     1.5322
-----------------------------------------------------------

Fermi-contact contribution to J (Hz):
       27.1488         0.0000        0.0000
        0.0000        27.1488        0.0000
        0.0000         0.0000       27.1488

Total spin-spin coupling tensor J (Hz):
       27.1488         0.0000        0.0000
        0.0000        27.1488        0.0000
        0.0000         0.0000       27.1488

 Diagonalized JT*J matrix:
 
 J[56,59](FC)            27.149           27.149           27.149  iso=     27.149
                ---------------  ---------------  ---------------  ---------------
 J[56,59](Total)         27.149           27.149           27.149  iso=     27.149



-----------------------------------------------------------
 NUCLEUS A = C   56 NUCLEUS B = C   60 
 ( 13C  gnA =  1.405  13C  gnB =  1.405) r(AB) =     1.5318
-----------------------------------------------------------

Fermi-contact contribution to J (Hz):
       26.5316         0.0000        0.0000
        0.0000        26.5316        0.0000
        0.0000         0.0000       26.5316

Total spin-spin coupling tensor J (Hz):
       26.5316         0.0000        0.0000
        0.0000        26.5316        0.0000
        0.0000         0.0000       26.5316

 Diagonalized JT*J matrix:
 
 J[56,60](FC)            26.532           26.532           26.532  iso=     26.532
                ---------------  ---------------  ---------------  ---------------
 J[56,60](Total)         26.532           26.532           26.532  iso=     26.532



-----------------------------------------------------------
 NUCLEUS A = C   59 NUCLEUS B = C   60 
 ( 13C  gnA =  1.405  13C  gnB =  1.405) r(AB) =     2.5023
-----------------------------------------------------------

Fermi-contact contribution to J (Hz):
       -0.9545         0.0000        0.0000
        0.0000        -0.9545        0.0000
        0.0000         0.0000       -0.9545

Total spin-spin coupling tensor J (Hz):
       -0.9545         0.0000        0.0000
        0.0000        -0.9545        0.0000
        0.0000         0.0000       -0.9545

 Diagonalized JT*J matrix:
 
 J[59,60](FC)            -0.955           -0.955           -0.955  iso=     -0.955
                ---------------  ---------------  ---------------  ---------------
 J[59,60](Total)         -0.955           -0.955           -0.955  iso=     -0.955



-----------------------------------------------------------------------------
                SUMMARY OF ISOTROPIC COUPLING CONSTANTS J (Hz)                
-----------------------------------------------------------------------------
                  0 C        1 C        2 C        5 C        6 C        7 C  
      0 C        0.000     32.380     -2.387     42.149     -0.181      0.876
      1 C       32.380      0.000     25.326     -1.187      0.385     -0.398
      2 C       -2.387     25.326      0.000      2.031     -1.362     25.839
      5 C       42.149     -1.187      2.031      0.000     31.016     -2.888
      6 C       -0.181      0.385     -1.362     31.016      0.000     23.038
      7 C        0.876     -0.398     25.839     -2.888     23.038      0.000
     14 C       70.307     -0.389      3.561     -3.175      2.734     -0.704
     15 C       -3.279      2.719     -0.838     64.339     -0.905      2.829
     18 C       -2.620      4.220     -1.080      3.275     -1.015      0.205
     20 C        6.950     -1.149      1.262     -1.498      0.781     -0.145
     22 C       -0.948      0.333     -0.383      0.444     -0.237      0.046
     23 C        0.794     -0.269      0.294     -0.331      0.189      0.000
     26 C       -0.077      0.030      0.000      0.041      0.000      0.000
     29 C        1.125     -0.359      0.000     -0.484      0.258      0.000
     32 C       -1.152      0.556     -0.418      0.512     -0.278      0.058
     34 C        0.021     -0.015      0.015     -0.017      0.009     -0.002
     36 C       -0.013      0.000      0.000      0.015     -0.009      0.000
     39 C       -0.078      0.000      0.000      0.033      0.000      0.000
     43 C        0.000      0.000      0.000      0.000      0.000      0.000
     44 C        0.010     -0.004      0.006     -0.007      0.004     -0.001
     49 C        0.000      0.000      0.000      0.000      0.000      0.000
     50 C        0.000      0.000      0.000      0.000      0.000      0.000
     51 C        0.000      0.000      0.000      0.000      0.000      0.000
     54 C        0.000      0.000      0.000      0.000      0.000      0.000
     55 C        0.000      0.000      0.000      0.000      0.000      0.000
     56 C        0.000      0.000      0.000      0.000      0.000      0.000
     59 C        0.000      0.000      0.000      0.000      0.000      0.000
     60 C        0.000      0.000      0.000      0.000      0.000      0.000
                 14 C       15 C       18 C       20 C       22 C       23 C  
      0 C       70.307     -3.279     -2.620      6.950     -0.948      0.794
      1 C       -0.389      2.719      4.220     -1.149      0.333     -0.269
      2 C        3.561     -0.838     -1.080      1.262     -0.383      0.294
      5 C       -3.175     64.339      3.275     -1.498      0.444     -0.331
      6 C        2.734     -0.905     -1.015      0.781     -0.237      0.189
      7 C       -0.704      2.829      0.205     -0.145      0.046      0.000
     14 C        0.000      3.063     54.456     -2.778      3.847     -0.893
     15 C        3.063      0.000     -1.128      1.065     -0.275      0.237
     18 C       54.456     -1.128      0.000     70.046     -2.179      2.471
     20 C       -2.778      1.065     70.046      0.000     32.219     -2.859
     22 C        3.847     -0.275     -2.179     32.219      0.000     24.459
     23 C       -0.893      0.237      2.471     -2.859     24.459      0.000
     26 C        0.113     -0.020     -0.366      1.026     -1.924     25.420
     29 C       -1.152      0.340      2.402     -2.352      1.106     -2.192
     32 C        4.410     -0.337     -1.320     37.067     -0.243      1.504
     34 C        0.066      0.005      2.447     -1.319      1.598     -0.254
     36 C        0.013     -0.014     -0.157      3.545      0.057      0.174
     39 C        0.266     -0.023     -0.040      2.945     -0.338      2.562
     43 C        0.009      0.000      0.300      0.189      0.003     -0.110
     44 C       -0.001      0.004     -0.066      0.703     -0.135      0.615
     49 C       -0.001      0.000     -0.010     -0.035      0.138      0.039
     50 C        0.000      0.000      0.033      0.148     -0.009      0.135
     51 C        0.000      0.000     -0.006      0.042     -0.002     -0.007
     54 C        0.000      0.000      0.000      0.000      0.000      0.000
     55 C        0.000      0.000      0.000      0.000      0.000      0.000
     56 C        0.000      0.000      0.000      0.000      0.000      0.000
     59 C        0.000      0.000      0.000      0.000      0.000      0.000
     60 C        0.000      0.000      0.000      0.000      0.000      0.000
                 26 C       29 C       32 C       34 C       36 C       39 C  
      0 C       -0.077      1.125     -1.152      0.021     -0.013     -0.078
      1 C        0.030     -0.359      0.556     -0.015      0.000      0.000
      2 C        0.000      0.000     -0.418      0.015      0.000      0.000
      5 C        0.041     -0.484      0.512     -0.017      0.015      0.033
      6 C        0.000      0.258     -0.278      0.009     -0.009      0.000
      7 C        0.000      0.000      0.058     -0.002      0.000      0.000
     14 C        0.113     -1.152      4.410      0.066      0.013      0.266
     15 C       -0.020      0.340     -0.337      0.005     -0.014     -0.023
     18 C       -0.366      2.402     -1.320      2.447     -0.157     -0.040
     20 C        1.026     -2.352     37.067     -1.319      3.545      2.945
     22 C       -1.924      1.106     -0.243      1.598      0.057     -0.338
     23 C       25.420     -2.192      1.504     -0.254      0.174      2.562
     26 C        0.000     27.804     -0.953      2.321      3.030     -0.581
     29 C       27.804      0.000     23.388      0.911      0.546     28.907
     32 C       -0.953     23.388      0.000     27.908      1.330      3.509
     34 C        2.321      0.911     27.908      0.000     25.923      0.043
     36 C        3.030      0.546      1.330     25.923      0.000     26.305
     39 C       -0.581     28.907      3.509      0.043     26.305      0.000
     43 C       -0.009     -0.682      2.721      1.652      0.231     30.539
     44 C       -0.560     27.320     -0.935      0.831      0.244     -1.223
     49 C        0.363      0.227      0.001     -0.003      3.179     -1.040
     50 C       -0.090      3.314      0.010     -0.059      0.555     -1.678
     51 C        0.021     -0.111      0.038      0.011      0.140      2.064
     54 C        0.004      0.002     -0.004     -0.003      0.028     -0.126
     55 C       -0.002      0.046      0.001     -0.002     -0.003      0.061
     56 C        0.002     -0.032      0.005      0.003     -0.046      0.099
     59 C       -0.000     -0.000      0.001     -0.001     -0.004      0.010
     60 C        0.000      0.000      0.000      0.000      0.003     -0.002
                 43 C       44 C       49 C       50 C       51 C       54 C  
      0 C        0.000      0.010      0.000      0.000      0.000      0.000
      1 C        0.000     -0.004      0.000      0.000      0.000      0.000
      2 C        0.000      0.006      0.000      0.000      0.000      0.000
      5 C        0.000     -0.007      0.000      0.000      0.000      0.000
      6 C        0.000      0.004      0.000      0.000      0.000      0.000
      7 C        0.000     -0.001      0.000      0.000      0.000      0.000
     14 C        0.009     -0.001     -0.001      0.000      0.000      0.000
     15 C        0.000      0.004      0.000      0.000      0.000      0.000
     18 C        0.300     -0.066     -0.010      0.033     -0.006      0.000
     20 C        0.189      0.703     -0.035      0.148      0.042      0.000
     22 C        0.003     -0.135      0.138     -0.009     -0.002      0.000
     23 C       -0.110      0.615      0.039      0.135     -0.007      0.000
     26 C       -0.009     -0.560      0.363     -0.090      0.021      0.004
     29 C       -0.682     27.320      0.227      3.314     -0.111      0.002
     32 C        2.721     -0.935      0.001      0.010      0.038     -0.004
     34 C        1.652      0.831     -0.003     -0.059      0.011     -0.003
     36 C        0.231      0.244      3.179      0.555      0.140      0.028
     39 C       30.539     -1.223     -1.040     -1.678      2.064     -0.126
     43 C        0.000      1.482     24.906     35.523     -1.583      3.426
     44 C        1.482      0.000     -0.077     -0.147      0.134      0.023
     49 C       24.906     -0.077      0.000     -3.424      3.513     -1.053
     50 C       35.523     -0.147     -3.424      0.000     68.285     -1.720
     51 C       -1.583      0.134      3.513     68.285      0.000     36.653
     54 C        3.426      0.023     -1.053     -1.720     36.653      0.000
     55 C       -0.061      0.002      0.147      3.066     -1.926     27.985
     56 C       -0.827      0.021      1.676      2.985     -2.758     25.230
     59 C       -0.035     -0.000      0.042      0.148      1.614     -0.808
     60 C        0.169      0.000      0.043      0.068      2.933     -0.645
                 55 C       56 C       59 C       60 C  
      0 C        0.000      0.000      0.000      0.000
      1 C        0.000      0.000      0.000      0.000
      2 C        0.000      0.000      0.000      0.000
      5 C        0.000      0.000      0.000      0.000
      6 C        0.000      0.000      0.000      0.000
      7 C        0.000      0.000      0.000      0.000
     14 C        0.000      0.000      0.000      0.000
     15 C        0.000      0.000      0.000      0.000
     18 C        0.000      0.000      0.000      0.000
     20 C        0.000      0.000      0.000      0.000
     22 C        0.000      0.000      0.000      0.000
     23 C        0.000      0.000      0.000      0.000
     26 C       -0.002      0.002     -0.000      0.000
     29 C        0.046     -0.032     -0.000      0.000
     32 C        0.001      0.005      0.001      0.000
     34 C       -0.002      0.003     -0.001      0.000
     36 C       -0.003     -0.046     -0.004      0.003
     39 C        0.061      0.099      0.010     -0.002
     43 C       -0.061     -0.827     -0.035      0.169
     44 C        0.002      0.021     -0.000      0.000
     49 C        0.147      1.676      0.042      0.043
     50 C        3.066      2.985      0.148      0.068
     51 C       -1.926     -2.758      1.614      2.933
     54 C       27.985     25.230     -0.808     -0.645
     55 C        0.000     -0.771      2.669      1.126
     56 C       -0.771      0.000     27.149     26.532
     59 C        2.669     27.149      0.000     -0.955
     60 C        1.126     26.532     -0.955      0.000

NMR spin-spin coupling calculation done in   0.3 sec 

Maximum memory used throughout the entire PROP-calculation: 34.1 MB

--------------------------------
SUGGESTED CITATIONS FOR THIS RUN
--------------------------------

Below you find a list of papers that are relevant to this ORCA run
We neither can nor want to force you to cite these papers, but we appreciate if you do
You receive ORCA, which is the product of decades of hard work by many enthusiastic individuals, for free
The only thing we kindly ask in return is that you cite our papers,
We deeply appreciate it, if you show your appreciation for ORCA by not just citing the generic ORCA reference.

Please note that relegating all ORCA citations to the supporting information does *not* help us.
SI sections are not indexed - citations you put there will not count into any citation statistics
But we need these citations in order to attract the funding resources that allow us to do what we are doing

Therefore, if you are a happy ORCA user, please consider citing a few of the papers listed below in the main body of your paper

In addition to the list printed below, the program has created the file inpJ.bibtex that contains the list in bibtex format
You can import this file easily into all common literature databanks and citation aid programs


List of essential papers. We consider these as the minimum necessary citations

  1. Neese,F.
     Software update: the ORCA program system, version 5.0
     WIRES Comput. Molec. Sci., 2022 12(1)e1606
     doi.org/10.1002/wcms.1606

List of papers to cite with high priority. The work reported in these papers was absolutely
necessary for this run to complete.
Our perspective: the developers of density functionals and basis sets usually get cited in chemistry papers
Good! But without the algorithms to do something with them, the functionals or basis sets would not do anything.
Hence, in our opinion, the algorithm design and method developments papers are equally worthy of getting cited

  1. Neese,F.
     An improvement of the resolution of the identity approximation for the formation of the Coulomb matrix
     J. Comp. Chem., 2003 24(14)1740-1747
     doi.org/10.1002/jcc.10318
  2. Neese,F.; Wennmohs,F.; Hansen,A.; Becker,U.
     Efficient, approximate and parallel Hartree-Fock and hybrid DFT calculations. A 'chain-of-spheres' algorithm for the Hartree-Fock exchange
     Chem. Phys., 2009 356(1-3)98-109
     doi.org/10.1016/j.chemphys.2008.10.036
  3. Stoychev,G.L.; Auer,A.A.; Izsak,R.; Neese,F.
     Self-Consistent Field Calculation of Nuclear Magnetic Resonance Chemical Shielding Constants Using Gauge-Including Atomic Orbitals and Approximate Two-Electron Integrals
     J. Chem. Theory Comput., 2018 14(2)619-637
     doi.org/10.1021/acs.jctc.7b01006
  4. Garcia-Rates,M.; Neese,F.
     Effect of the Solute Cavity on the Solvation Energy and its Derivatives within the Framework of the Gaussian Charge Scheme
     J. Comput. Chem., 2020 41 922-939
     doi.org/10.1002/jcc.26139
  5. Helmich-Paris,B.; de Souza,B.; Neese,F.; Izsák,R.
     An improved chain of spheres for exchange algorithm
     J. Chem. Phys., 2021 155 104109
     doi.org/doi: 10.1063/5.0058766.
  6. Neese,F.
     The SHARK Integral Generation and Digestion System
     J. Comp. Chem., 2022  1-16
     doi.org/10.1002/jcc.26942
  7. Grimme,S.; Bannwarth,C.; Dohm,S.; Hansen,A.; Pisarek,J.; Pracht,P.; Seibert,J.; Neese,F.
     Fully Automated Quantum-Chemistry-Based Computation of Spin-Spin-Coupled Nuclear Magnetic Resonance Spectra
     Angew. Chem., Int. Ed., 2017 56 14763-14769
     doi.org/10.1002/anie.201708266
  8. Caldeweyher,E.; Bannwarth,C.; Grimme,S.
     Extension of the D3 dispersion coefficient model
     J. Chem. Phys., 2017 147 034112-XXXX
     doi.org/10.1063/1.4993215
  9. Caldeweyher,E.; Ehlert,S.; Hansen,A.; Neugebauer,H.; Spicher,S.; Bannwarth,C.; Grimme,S.
     A generally applicable atomic-charge dependent London dispersion correction
     J. Chem. Phys., 2019 150 154122-XXXX
     doi.org/10.1063/1.5090222
 10. Caldeweyher,E.; Mewes,J.; Ehlert,S.; Grimme,S.
     Extension and evaluation of the D4 London-dispersion model for periodic systems
     Phys. Chem. Chem. Phys., 2020 22(16)8499-8512
     doi.org/10.1039/D0CP00502A

List of suggested additional citations. These are papers that are important in the 'surrounding' of 
of this run, or papers that preceded the highly important papers. If you like your results we are grateful for a citation.

  1. Izsak,R.; Neese,F.
     An overlap fitted chain of spheres exchange method
     J. Chem. Phys., 2011 135 144105
     doi.org/10.1063/1.3646921
  2. Izsak,R.; Hansen,A.; Neese,F.
     The resolution of identity and chain of spheres approximations for the LPNO-CCSD singles Fock term
     Molec. Phys., 2012 110 2413-2417
     doi.org/10.1080/00268976.2012.687466
  3. Neese,F.
     The ORCA program system
     WIRES Comput. Molec. Sci., 2012 2(1)73-78
     doi.org/10.1002/wcms.81
  4. Izsak,R.; Neese,F.; Klopper,W.
     Robust fitting techniques in the chain of spheres approximation to the Fock exchange: The role of the complementary space
     J. Chem. Phys., 2013 139 
     doi.org/10.1063/1.4819264
  5. Neese,F.
     Software update: the ORCA program system, version 4.0
     WIRES Comput. Molec. Sci., 2018 8(1)1-6
     doi.org/10.1002/wcms.1327
  6. Neese,F.; Wennmohs,F.; Becker,U.; Riplinger,C.
     The ORCA quantum chemistry program package
     J. Chem. Phys., 2020 152 Art. No. L224108
     doi.org/10.1063/5.0004608

Timings for individual modules:

Sum of individual times          ...      157.689 sec (=   2.628 min)
Startup calculation              ...        4.227 sec (=   0.070 min)   2.7 %
SCF iterations                   ...       56.957 sec (=   0.949 min)  36.1 %
Property integrals               ...        0.647 sec (=   0.011 min)   0.4 %
SCF Response                     ...       95.236 sec (=   1.587 min)  60.4 %
Property calculations            ...        0.622 sec (=   0.010 min)   0.4 %
                             ****ORCA TERMINATED NORMALLY****
TOTAL RUN TIME: 0 days 0 hours 2 minutes 38 seconds 17 msec
