
                                 *****************
                                 * O   R   C   A *
                                 *****************

                                            #,                                       
                                            ###                                      
                                            ####                                     
                                            #####                                    
                                            ######                                   
                                           ########,                                 
                                     ,,################,,,,,                         
                               ,,#################################,,                 
                          ,,##########################################,,             
                       ,#########################################, ''#####,          
                    ,#############################################,,   '####,        
                  ,##################################################,,,,####,       
                ,###########''''           ''''###############################       
              ,#####''   ,,,,##########,,,,          '''####'''          '####       
            ,##' ,,,,###########################,,,                        '##       
           ' ,,###''''                  '''############,,,                           
         ,,##''                                '''############,,,,        ,,,,,,###''
      ,#''                                            '''#######################'''  
     '                                                          ''''####''''         
             ,#######,   #######,   ,#######,      ##                                
            ,#'     '#,  ##    ##  ,#'     '#,    #''#        ,####,   ,####,        
            ##       ##  ##   ,#'  ##            #'  '#       #'       #'  '#        
            ##       ##  #######   ##           ,######,      #####,   #    #        
            '#,     ,#'  ##    ##  '#,     ,#' ,#      #,     #,   #   #,  ,#        
             '#######'   ##     ##  '#######'  #'      '#     '####' # '####'        



                #########################################################
                #                        -***-                          #
                #          Department of theory and spectroscopy        #
                #                                                       #
                #                      Frank Neese                      #
                #                                                       #
                #     Directorship, Architecture, Infrastructure        #
                #                    SHARK, DRIVERS                     #
                #        Core code/Algorithms in most modules           #
                #                                                       #
                #        Max Planck Institute fuer Kohlenforschung      #
                #                Kaiser Wilhelm Platz 1                 #
                #                 D-45470 Muelheim/Ruhr                 #
                #                      Germany                          #
                #                                                       #
                #                  All rights reserved                  #
                #                        -***-                          #
                #########################################################


                         Program Version 6.0.0  -   RELEASE  -


 With contributions from (in alphabetic order):
   Daniel Aravena         : Magnetic Suceptibility
   Michael Atanasov       : Ab Initio Ligand Field Theory (pilot matlab implementation)
   Alexander A. Auer      : GIAO ZORA, VPT2 properties, NMR spectrum
   Ute Becker             : All parallelization in ORCA, NUMFREQ, NUMCALC
   Giovanni Bistoni       : ED, misc. LED, open-shell LED, HFLD
   Martin Brehm           : Molecular dynamics
   Dmytro Bykov           : pre 5.0 version of the SCF Hessian
   Marcos Casanova-Páez   : Triplet and SCS-CIS(D). UHF-(DLPNO)-IP/EA/STEOM-CCSD. UHF-CVS-IP/STEOM-CCSD
   Vijay G. Chilkuri      : MRCI spin determinant printing, contributions to CSF-ICE
   Pauline Colinet        : FMM embedding
   Dipayan Datta          : RHF DLPNO-CCSD density
   Achintya Kumar Dutta   : EOM-CC, STEOM-CC
   Nicolas Foglia         : Exact transition moments, OPA infrastructure, MCD improvements
   Dmitry Ganyushin       : Spin-Orbit,Spin-Spin,Magnetic field MRCI
   Miquel Garcia          : C-PCM and meta-GGA Hessian, CCSD/C-PCM, Gaussian charge scheme
   Tiago L. C. Gouveia    : GS-ROHF, GS-ROCIS
   Yang Guo               : DLPNO-NEVPT2, F12-NEVPT2, CIM, IAO-localization
   Andreas Hansen         : Spin unrestricted coupled pair/coupled cluster methods
   Ingolf Harden          : AUTO-CI MPn and infrastructure 
   Benjamin Helmich-Paris : MC-RPA, TRAH-(SCF,CASSCF), AVAS, COSX integrals, SCF dyn. polar.
   Lee Huntington         : MR-EOM, pCC
   Robert Izsak           : Overlap fitted RIJCOSX, COSX-SCS-MP3, EOM
   Riya Kayal             : Wick's Theorem for AUTO-CI, AUTO-CI UHF-CCSDT
   Emily Kempfer          : AUTO-CI, RHF CISDT and CCSDT
   Christian Kollmar      : KDIIS, OOCD, Brueckner-CCSD(T), CCSD density, CASPT2, CASPT2-K, improved NEVPT2
   Axel Koslowski         : Symmetry handling
   Simone Kossmann        : Meta GGA functionals, TD-DFT gradient, OOMP2, (MP2 Hessian; deprecated post 5.0)
   Lucas Lang             : DCDCAS
   Marvin Lechner         : AUTO-CI (C++ implementation), FIC-MRCC
   Spencer Leger          : CASSCF response
   Dagmar Lenk            : GEPOL surface, SMD, ORCA-2-JSON
   Dimitrios Liakos       : Extrapolation schemes; Compound Job, initial MDCI parallelization
   Dimitrios Manganas     : Further ROCIS development; embedding schemes. LFT, Crystal Embedding
   Dimitrios Pantazis     : SARC Basis sets
   Anastasios Papadopoulos: AUTO-CI, single reference methods and gradients
   Taras Petrenko         : pre 6.0 DFT Hessian and TD-DFT gradient, (ASA, deprecated), ECA, 1-Electron XAS/XES, NRVS
   Peter Pinski           : DLPNO-MP2, DLPNO-MP2 Gradient
   Christoph Reimann      : Effective Core Potentials
   Marius Retegan         : Local ZFS, SOC
   Christoph Riplinger    : Optimizer, TS searches, QM/MM, DLPNO-CCSD(T), (RO)-DLPNO pert. Triples
   Michael Roemelt        : Original ROCIS implementation
   Masaaki Saitow         : Open-shell DLPNO-CCSD energy and density
   Barbara Sandhoefer     : DKH picture change effects
   Kantharuban Sivalingam : CASSCF convergence/infrastructure, NEVPT2 and variants, FIC-MRCI
   Bernardo de Souza      : ESD, SOC TD-DFT
   Georgi Stoychev        : AutoAux, RI-MP2 NMR, DLPNO-MP2 response, X2C
   Van Anh Tran           : RI-MP2 g-tensors
   Willem Van den Heuvel  : Paramagnetic NMR
   Zikuan Wang            : NOTCH, Electric field optimization 
   Frank Wennmohs         : Technical directorship and infrastructure
   Hang Xu                : AUTO-CI-Response properties 


 We gratefully acknowledge several colleagues who have allowed us to
 interface, adapt or use parts of their codes:
   Stefan Grimme, W. Hujo, H. Kruse, P. Pracht,  : VdW corrections, initial TS optimization,
                  C. Bannwarth, S. Ehlert,         DFT functionals, gCP, sTDA/sTD-DF
                  L. Wittmann, M. Mueller
   Ed Valeev, F. Pavosevic, A. Kumar             : LibInt (2-el integral package), F12 methods
   Garnet Chan, S. Sharma, J. Yang, R. Olivares  : DMRG
   Ulf Ekstrom                                   : XCFun DFT Library
   Mihaly Kallay                                 : mrcc  (arbitrary order and MRCC methods)
   Frank Weinhold                                : gennbo (NPA and NBO analysis)
   Simon Mueller                                 : openCOSMO-RS
   Christopher J. Cramer and Donald G. Truhlar   : smd solvation model
   Lars Goerigk                                  : TD-DFT with DH, B97 family of functionals
   V. Asgeirsson, H. Jonsson                     : NEB implementation
   FAccTs GmbH                                   : IRC, NEB, NEB-TS, DLPNO-Multilevel, CI-OPT
                                                   MM, QMMM, 2- and 3-layer-ONIOM, Crystal-QMMM,
                                                   LR-CPCM, SF, NACMEs, symmetry and pop. for TD-DFT,
                                                   nearIR, NL-DFT gradient (VV10), updates on ESD,
                                                   ML-optimized integration grids, MBIS, APM,
                                                   GOAT, DOCKER, SOLVATOR, interface openCOSMO-RS
   S Lehtola, MJT Oliveira, MAL Marques          : LibXC Library
   Liviu Ungur et al                             : ANISO software


 Your calculation uses the libint2 library for the computation of 2-el integrals
 For citations please refer to: http://libint.valeyev.net

 Your ORCA version has been built with support for libXC version: 6.2.2
 For citations please refer to: https://libxc.gitlab.io

 This ORCA versions uses:
   CBLAS   interface :  Fast vector & matrix operations
   LAPACKE interface :  Fast linear algebra routines
   SCALAPACK package :  Parallel linear algebra routines
   Shared memory     :  Shared parallel matrices
   BLAS/LAPACK       :  OpenBLAS 0.3.27  USE64BITINT DYNAMIC_ARCH NO_AFFINITY Zen SINGLE_THREADED
        Core in use  :  Zen
   Copyright (c) 2011-2014, The OpenBLAS Project


NOTE: MaxCore=8000 MB was set to SCF,MP2,MDCI,CIPSI,MRCI and CIS
      => If you want to overwrite this, your respective input block should be placed after the MaxCore statement
Your calculation utilizes the atom-pairwise dispersion correction
based on EEQ partial charges (D4)


================================================================================

----- Orbital basis set information -----
Your calculation utilizes the basis: def2-SVP
   F. Weigend and R. Ahlrichs, Phys. Chem. Chem. Phys. 7, 3297 (2005).

----- AuxJ basis set information -----
Your calculation utilizes the auxiliary basis: def2/J
   F. Weigend, Phys. Chem. Chem. Phys. 8, 1057 (2006).

================================================================================
                                        WARNINGS
                       Please study these warnings very carefully!
================================================================================


================================================================================
                                       INPUT FILE
================================================================================
NAME = inpS
|  1> ! wb97x-d4
|  2> ! def2-svp
|  3> ! def2/J RIJCOSX
|  4> ! DEFGRID2
|  5> ! scfconv7
|  6> ! smallprint printgap noloewdin
|  7> ! NOSOSCF
|  8> %MaxCore 8000
|  9> %output
| 10>        print[P_BondOrder_M] 1
| 11>        print[P_Mayer] 1
| 12>        print[P_basis] 2
| 13> end
| 14> %pal
| 15>     nprocs 4
| 16> end
| 17> ! CPCM(chloroform)
| 18> *xyz 0 1
| 19> C   -5.1502148600   0.2952668500   0.1456356600
| 20> C   -6.5246443400  -0.2036851700  -0.2335344400
| 21> C   -7.0293595900   0.4507320400  -1.5255744300
| 22> H   -7.2408970900   0.0554060700   0.5645863300
| 23> H   -6.5246590800  -1.2938069800  -0.3420204400
| 24> C   -5.0252149700   1.7684203300   0.1636922100
| 25> C   -5.5770220300   2.4574265100  -1.0637968900
| 26> C   -6.9928185300   1.9696656100  -1.4002359200
| 27> H   -4.9193541400   2.2275961000  -1.9159010800
| 28> H   -5.5653795000   3.5437427000  -0.9258905100
| 29> H   -7.3395277600   2.4261032500  -2.3348181700
| 30> H   -7.6874202300   2.2736406500  -0.6025978300
| 31> O   -8.3374801500  -0.0239238500  -1.8699992200
| 32> H   -6.3860993900   0.1381008300  -2.3600123300
| 33> C   -4.1383470300  -0.5702636300   0.3912508100
| 34> C   -4.5118512500   2.4505756700   1.1936784300
| 35> H   -4.1436850600   1.9435587300   2.0812325700
| 36> H   -4.4586189500   3.5365653500   1.1743910300
| 37> C   -2.7623165900  -0.2256453600   0.6635586800
| 38> H   -4.3868419300  -1.6291195500   0.3338312500
| 39> C   -1.7671475000  -1.0834770300   0.9759004100
| 40> H   -2.5131893300   0.8307368600   0.5929391700
| 41> C   -1.9142184800  -2.5720630700   1.1651110900
| 42> C   -0.9067968200  -3.3618998300   0.3078232100
| 43> H   -2.9307334900  -2.9185041200   0.9592776100
| 44> H   -1.7117643900  -2.7972563800   2.2245765400
| 45> C    0.5342525300  -2.8615429400   0.4776273100
| 46> H   -1.2015162700  -3.2930464500  -0.7469556400
| 47> H   -0.9606093000  -4.4239173400   0.5771319400
| 48> C    0.6484962100  -1.3518966500   0.2228770900
| 49> H    1.1898021900  -3.4300185800  -0.1902042400
| 50> H    0.8691038000  -3.0656385500   1.5058792200
| 51> C   -0.3523349800  -0.6391899700   1.1863641800
| 52> H   -0.0622949500  -0.9890167300   2.1948039800
| 53> C    0.0322482400   0.8328101200   1.0930838400
| 54> H   -8.9378383900   0.2366950300  -1.1587214800
| 55> C    1.5755215900   0.7922204300   0.9792408600
| 56> H   -0.3136795600   1.4072783300   1.9590284900
| 57> H   -0.4099923400   1.2931063500   0.2023363800
| 58> C    1.9787031900  -0.6861864500   0.6799028300
| 59> H    2.0496568700   1.1452760800   1.8987929000
| 60> H    1.9314199900   1.4488832200   0.1764259500
| 61> H    2.2493819500  -1.1797895300   1.6267278100
| 62> C    3.1889923000  -0.7703706300  -0.2604096300
| 63> C    0.3290223900  -1.0130452500  -1.2396655900
| 64> H   -0.7248650800  -1.1977995700  -1.4697066000
| 65> H    0.9333568100  -1.6204300100  -1.9217461000
| 66> H    0.5313727500   0.0388242300  -1.4651886800
| 67> H    2.9228713400  -0.2391350500  -1.1881020800
| 68> C    3.5849782300  -2.2065868800  -0.6507654700
| 69> C    4.4295786300  -0.0960222500   0.2856793600
| 70> C    4.7111434000   0.1556823000   1.5641461800
| 71> H    5.1788447600   0.1318963200  -0.4744901700
| 72> H    3.9670087800  -0.0834447600   2.3221869400
| 73> C    6.0000999600   0.7333414700   2.0964045900
| 74> C    6.8303771600   1.4416564400   1.0235675700
| 75> C    6.8256877800  -0.3569542300   2.8374681400
| 76> H    5.7246080700   1.4798638100   2.8613129800
| 77> H    7.1209317800  -1.0989065200   2.0784569200
| 78> C    6.0001335600  -1.0726712800   3.9116706000
| 79> C    8.0937813000   0.2246391400   3.4700237800
| 80> H    6.2086540200   2.1322861800   0.4446887600
| 81> H    7.2782941000   0.7230407000   0.3265080300
| 82> H    7.6419074400   2.0199435100   1.4722377400
| 83> H    6.6246066500  -1.7862536500   4.4600120500
| 84> H    5.1579331100  -1.6257273400   3.4858267200
| 85> H    5.6011280500  -0.3509399800   4.6365367000
| 86> H    7.8376478900   1.0383822000   4.1610398800
| 87> H    8.7897421900   0.6182014400   2.7241678600
| 88> H    8.6220301200  -0.5458795300   4.0423298400
| 89> H    4.5329583300  -2.2035020800  -1.2004255800
| 90> H    2.8343484700  -2.6826222500  -1.2868973700
| 91> H    3.7207918500  -2.8201312400   0.2477287600
| 92> *
| 93> %eprnmr
| 94>  Nuclei = all C { shift }
| 95>  origin giao
| 96>  giao_2el giao_2el_same_as_scf
| 97>  giao_1el giao_1el_analytic
| 98> end
| 99> 
|100>                          ****END OF INPUT****
================================================================================

                       ****************************
                       * Single Point Calculation *
                       ****************************

---------------------------------
CARTESIAN COORDINATES (ANGSTROEM)
---------------------------------
  C     -5.150215    0.295267    0.145636
  C     -6.524644   -0.203685   -0.233534
  C     -7.029360    0.450732   -1.525574
  H     -7.240897    0.055406    0.564586
  H     -6.524659   -1.293807   -0.342020
  C     -5.025215    1.768420    0.163692
  C     -5.577022    2.457427   -1.063797
  C     -6.992819    1.969666   -1.400236
  H     -4.919354    2.227596   -1.915901
  H     -5.565379    3.543743   -0.925891
  H     -7.339528    2.426103   -2.334818
  H     -7.687420    2.273641   -0.602598
  O     -8.337480   -0.023924   -1.869999
  H     -6.386099    0.138101   -2.360012
  C     -4.138347   -0.570264    0.391251
  C     -4.511851    2.450576    1.193678
  H     -4.143685    1.943559    2.081233
  H     -4.458619    3.536565    1.174391
  C     -2.762317   -0.225645    0.663559
  H     -4.386842   -1.629120    0.333831
  C     -1.767147   -1.083477    0.975900
  H     -2.513189    0.830737    0.592939
  C     -1.914218   -2.572063    1.165111
  C     -0.906797   -3.361900    0.307823
  H     -2.930733   -2.918504    0.959278
  H     -1.711764   -2.797256    2.224577
  C      0.534253   -2.861543    0.477627
  H     -1.201516   -3.293046   -0.746956
  H     -0.960609   -4.423917    0.577132
  C      0.648496   -1.351897    0.222877
  H      1.189802   -3.430019   -0.190204
  H      0.869104   -3.065639    1.505879
  C     -0.352335   -0.639190    1.186364
  H     -0.062295   -0.989017    2.194804
  C      0.032248    0.832810    1.093084
  H     -8.937838    0.236695   -1.158721
  C      1.575522    0.792220    0.979241
  H     -0.313680    1.407278    1.959028
  H     -0.409992    1.293106    0.202336
  C      1.978703   -0.686186    0.679903
  H      2.049657    1.145276    1.898793
  H      1.931420    1.448883    0.176426
  H      2.249382   -1.179790    1.626728
  C      3.188992   -0.770371   -0.260410
  C      0.329022   -1.013045   -1.239666
  H     -0.724865   -1.197800   -1.469707
  H      0.933357   -1.620430   -1.921746
  H      0.531373    0.038824   -1.465189
  H      2.922871   -0.239135   -1.188102
  C      3.584978   -2.206587   -0.650765
  C      4.429579   -0.096022    0.285679
  C      4.711143    0.155682    1.564146
  H      5.178845    0.131896   -0.474490
  H      3.967009   -0.083445    2.322187
  C      6.000100    0.733341    2.096405
  C      6.830377    1.441656    1.023568
  C      6.825688   -0.356954    2.837468
  H      5.724608    1.479864    2.861313
  H      7.120932   -1.098907    2.078457
  C      6.000134   -1.072671    3.911671
  C      8.093781    0.224639    3.470024
  H      6.208654    2.132286    0.444689
  H      7.278294    0.723041    0.326508
  H      7.641907    2.019944    1.472238
  H      6.624607   -1.786254    4.460012
  H      5.157933   -1.625727    3.485827
  H      5.601128   -0.350940    4.636537
  H      7.837648    1.038382    4.161040
  H      8.789742    0.618201    2.724168
  H      8.622030   -0.545880    4.042330
  H      4.532958   -2.203502   -1.200426
  H      2.834348   -2.682622   -1.286897
  H      3.720792   -2.820131    0.247729

----------------------------
CARTESIAN COORDINATES (A.U.)
----------------------------
  NO LB      ZA    FRAG     MASS         X           Y           Z
   0 C     6.0000    0    12.011   -9.732496    0.557973    0.275212
   1 C     6.0000    0    12.011  -12.329791   -0.384909   -0.441316
   2 C     6.0000    0    12.011  -13.283565    0.851760   -2.882918
   3 H     1.0000    0     1.008  -13.683312    0.104702    1.066914
   4 H     1.0000    0     1.008  -12.329819   -2.444941   -0.646325
   5 C     6.0000    0    12.011   -9.496280    3.341830    0.309333
   6 C     6.0000    0    12.011  -10.539044    4.643863   -2.010285
   7 C     6.0000    0    12.011  -13.214512    3.722129   -2.646062
   8 H     1.0000    0     1.008   -9.296232    4.209547   -3.620528
   9 H     1.0000    0     1.008  -10.517043    6.696703   -1.749679
  10 H     1.0000    0     1.008  -13.869697    4.584671   -4.412167
  11 H     1.0000    0     1.008  -14.527119    4.296558   -1.138745
  12 O     8.0000    0    15.999  -15.755554   -0.045210   -3.533786
  13 H     1.0000    0     1.008  -12.067979    0.260973   -4.459777
  14 C     6.0000    0    12.011   -7.820343   -1.077642    0.739357
  15 C     6.0000    0    12.011   -8.526163    4.630917    2.255725
  16 H     1.0000    0     1.008   -7.830430    3.672794    3.932960
  17 H     1.0000    0     1.008   -8.425569    6.683140    2.219277
  18 C     6.0000    0    12.011   -5.220022   -0.426408    1.253944
  19 H     1.0000    0     1.008   -8.289930   -3.078590    0.630850
  20 C     6.0000    0    12.011   -3.339425   -2.047475    1.844185
  21 H     1.0000    0     1.008   -4.749240    1.569865    1.120493
  22 C     6.0000    0    12.011   -3.617349   -4.860495    2.201741
  23 C     6.0000    0    12.011   -1.713598   -6.353070    0.581702
  24 H     1.0000    0     1.008   -5.538284   -5.515174    1.812772
  25 H     1.0000    0     1.008   -3.234766   -5.286048    4.203840
  26 C     6.0000    0    12.011    1.009591   -5.407532    0.902585
  27 H     1.0000    0     1.008   -2.270537   -6.222956   -1.411542
  28 H     1.0000    0     1.008   -1.815288   -8.359992    1.090621
  29 C     6.0000    0    12.011    1.225480   -2.554714    0.421177
  30 H     1.0000    0     1.008    2.248400   -6.481796   -0.359434
  31 H     1.0000    0     1.008    1.642368   -5.793217    2.845699
  32 C     6.0000    0    12.011   -0.665817   -1.207894    2.241903
  33 H     1.0000    0     1.008   -0.117720   -1.868971    4.147578
  34 C     6.0000    0    12.011    0.060940    1.573783    2.065629
  35 H     1.0000    0     1.008  -16.890067    0.447289   -2.189666
  36 C     6.0000    0    12.011    2.977304    1.497080    1.850497
  37 H     1.0000    0     1.008   -0.592768    2.659371    3.702027
  38 H     1.0000    0     1.008   -0.774773    2.443617    0.382360
  39 C     6.0000    0    12.011    3.739207   -1.296704    1.284830
  40 H     1.0000    0     1.008    3.873290    2.164258    3.588199
  41 H     1.0000    0     1.008    3.649855    2.737992    0.333397
  42 H     1.0000    0     1.008    4.250716   -2.229479    3.074070
  43 C     6.0000    0    12.011    6.026322   -1.455790   -0.492103
  44 C     6.0000    0    12.011    0.621762   -1.914378   -2.342628
  45 H     1.0000    0     1.008   -1.369796   -2.263513   -2.777343
  46 H     1.0000    0     1.008    1.763789   -3.062169   -3.631574
  47 H     1.0000    0     1.008    1.004149    0.073367   -2.768805
  48 H     1.0000    0     1.008    5.523426   -0.451900   -2.245188
  49 C     6.0000    0    12.011    6.774627   -4.169845   -1.229769
  50 C     6.0000    0    12.011    8.370690   -0.181456    0.539856
  51 C     6.0000    0    12.011    8.902771    0.294197    2.955808
  52 H     1.0000    0     1.008    9.786598    0.249248   -0.896656
  53 H     1.0000    0     1.008    7.496560   -0.157688    4.388297
  54 C     6.0000    0    12.011   11.338546    1.385815    3.961631
  55 C     6.0000    0    12.011   12.907542    2.724336    1.934262
  56 C     6.0000    0    12.011   12.898681   -0.674546    5.362038
  57 H     1.0000    0     1.008   10.817941    2.796537    5.407098
  58 H     1.0000    0     1.008   13.456611   -2.076632    3.927714
  59 C     6.0000    0    12.011   11.338609   -2.027055    7.391986
  60 C     6.0000    0    12.011   15.295030    0.424506    6.557395
  61 H     1.0000    0     1.008   11.732656    4.029437    0.840340
  62 H     1.0000    0     1.008   13.753983    1.366349    0.617011
  63 H     1.0000    0     1.008   14.441112    3.817140    2.782126
  64 H     1.0000    0     1.008   12.518692   -3.375530    8.428201
  65 H     1.0000    0     1.008    9.747081   -3.072179    6.587258
  66 H     1.0000    0     1.008   10.584598   -0.663180    8.761785
  67 H     1.0000    0     1.008   14.811008    1.962258    7.863226
  68 H     1.0000    0     1.008   16.610206    1.168231    5.147931
  69 H     1.0000    0     1.008   16.293276   -1.031563    7.638896
  70 H     1.0000    0     1.008    8.566050   -4.164015   -2.268476
  71 H     1.0000    0     1.008    5.356142   -5.069421   -2.431884
  72 H     1.0000    0     1.008    7.031278   -5.329276    0.468140

--------------------------------
INTERNAL COORDINATES (ANGSTROEM)
--------------------------------
 C      0   0   0     0.000000000000     0.00000000     0.00000000
 C      1   0   0     1.510556016336     0.00000000     0.00000000
 C      2   1   0     1.533742711176   111.71183943     0.00000000
 H      2   1   3     1.103242056864   109.36325402   241.49978661
 H      2   1   3     1.095506628483   110.70498518   122.89242354
 C      1   2   3     1.478557468323   114.14777802    50.57783531
 C      6   1   2     1.511935857820   114.41079211   311.85294861
 C      3   2   1     1.524534086607   110.36300904   305.05508405
 H      7   6   1     1.100650090407   108.37869426   290.12234344
 H      7   6   1     1.095096608891   110.23908508   172.89680203
 H      8   3   2     1.096351490805   109.70220900   179.05572440
 H      8   3   2     1.100499372651   108.64243634   296.49167916
 O      3   2   1     1.433564107172   111.18617593   180.38428528
 H      3   2   1     1.099003442818   109.00354888    65.19834935
 C      1   2   3     1.354011196079   120.95426756   232.84563564
 C      6   1   2     1.337815319950   123.35895515   129.60654637
 H     16   6   1     1.086445982245   121.40178274     0.71536208
 H     16   6   1     1.087464604770   120.95334133   181.36470288
 C     15   1   2     1.444428295170   126.41361967   175.08504737
 H     15   1   2     1.089138457918   116.19280274   357.87672349
 C     19  15   1     1.350479192008   126.44551819   176.35943836
 H     19  15   1     1.087655690740   115.95643554   355.43207989
 C     21  19  15     1.507752948287   125.75178263   356.95381355
 C     23  21  19     1.540676156004   111.87166838   127.75479629
 H     23  21  19     1.093476834766   112.32458963     3.58101181
 H     23  21  19     1.101892338285   107.72866568   246.38432765
 C     24  23  21     1.534866013332   112.65821825    50.64520597
 H     24  23  21     1.097341680860   109.09100179   288.49639719
 H     24  23  21     1.096952217102   109.12581562   172.54466421
 C     27  24  23     1.535246303992   111.84308223   306.24614859
 H     27  24  23     1.094946980075   108.98879892   182.63677206
 H     27  24  23     1.100491881597   109.18300425    66.14720448
 C     21  19  15     1.497791860345   122.69417184   177.34510987
 H     33  21  19     1.106098011588   106.37881816   124.10039203
 C     33  21  19     1.524266951651   121.07679410     1.67405190
 H     13   3   2     0.966575522330   107.49924570    62.60723781
 C     35  33  21     1.547998830700   103.33921124   195.12217149
 H     35  33  21     1.095235090735   112.23798643    73.35983931
 H     35  33  21     1.095846881388   110.70497401   313.68210417
 C     30  27  24     1.556114779522   115.82002567   166.50668398
 H     37  35  33     1.093173595549   111.22734503   251.59906477
 H     37  35  33     1.096531563892   111.20569789   133.25062652
 H     40  30  27     1.101539166100   105.71192876   322.00895712
 C     40  30  27     1.534950887937   118.07568495    82.86953051
 C     30  27  24     1.534898981617   111.08220629   294.75793061
 H     45  30  27     1.094409349587   111.31236502    67.43806445
 H     45  30  27     1.095157595965   110.86456459   307.35917877
 H     45  30  27     1.094639545819   111.71412452   187.33423635
 H     44  40  30     1.101655521747   107.39437954    62.54333223
 C     44  40  30     1.540097287623   114.15147069   303.65355363
 C     44  40  30     1.513939683340   113.62325073   180.26454152
 C     51  44  40     1.333083384503   127.09286462    22.94407608
 H     51  44  40     1.091423072166   113.84958339   198.53657856
 H     52  51  44     1.088826835327   118.80695988   356.11802198
 C     52  51  44     1.509436366750   126.21339240   174.97140540
 C     55  52  51     1.530375639197   113.15471829    18.70770233
 C     55  52  51     1.555479073183   110.66980514   252.41079814
 H     55  52  51     1.103755512180   106.86202363   137.38496962
 H     57  55  52     1.101707879730   106.62240787    65.42890407
 C     57  55  52     1.532221129893   112.05222651   307.18960202
 C     57  55  52     1.531808950617   111.71509803   183.88569337
 H     56  55  52     1.094810384154   110.76532471    48.52584491
 H     56  55  52     1.096781732716   111.33691265   288.31941449
 H     56  55  52     1.092841366409   111.09908338   168.25529046
 H     60  57  55     1.095374266950   110.37044833   183.74945921
 H     60  57  55     1.093853561322   112.21478587    63.58778383
 H     60  57  55     1.097967362602   110.58489774   302.88557750
 H     61  57  55     1.097854881975   110.37737747    57.15599866
 H     61  57  55     1.093413873055   112.45129688   296.32367516
 H     61  57  55     1.095572938221   110.35553925   176.15741316
 H     50  44  40     1.095811125383   110.30041379   188.08169130
 H     50  44  40     1.093031794728   112.15298510    68.08967598
 H     50  44  40     1.096436912188   110.24168842   306.99862984

---------------------------
INTERNAL COORDINATES (A.U.)
---------------------------
 C      0   0   0     0.000000000000     0.00000000     0.00000000
 C      1   0   0     2.854537180822     0.00000000     0.00000000
 C      2   1   0     2.898353684021   111.71183943     0.00000000
 H      2   1   3     2.084825346896   109.36325402   241.49978661
 H      2   1   3     2.070207505729   110.70498518   122.89242354
 C      1   2   3     2.794068688395   114.14777802    50.57783531
 C      6   1   2     2.857144703336   114.41079211   311.85294861
 C      3   2   1     2.880951905516   110.36300904   305.05508405
 H      7   6   1     2.079927240145   108.37869426   290.12234344
 H      7   6   1     2.069432680991   110.23908508   172.89680203
 H      8   3   2     2.071804064138   109.70220900   179.05572440
 H      8   3   2     2.079642424862   108.64243634   296.49167916
 O      3   2   1     2.709043557975   111.18617593   180.38428528
 H      3   2   1     2.076815527163   109.00354888    65.19834935
 C      1   2   3     2.558710342853   120.95426756   232.84563564
 C      6   1   2     2.528104572470   123.35895515   129.60654637
 H     16   6   1     2.053085365743   121.40178274     0.71536208
 H     16   6   1     2.055010283349   120.95334133   181.36470288
 C     15   1   2     2.729573897958   126.41361967   175.08504737
 H     15   1   2     2.058173407386   116.19280274   357.87672349
 C     19  15   1     2.552035822454   126.44551819   176.35943836
 H     19  15   1     2.055371383500   115.95643554   355.43207989
 C     21  19  15     2.849240149874   125.75178263   356.95381355
 C     23  21  19     2.911455995910   111.87166838   127.75479629
 H     23  21  19     2.066371751494   112.32458963     3.58101181
 H     23  21  19     2.082274748424   107.72866568   246.38432765
 C     24  23  21     2.900476417462   112.65821825    50.64520597
 H     24  23  21     2.073675252163   109.09100179   288.49639719
 H     24  23  21     2.072939272320   109.12581562   172.54466421
 C     27  24  23     2.901195062659   111.84308223   306.24614859
 H     27  24  23     2.069149923506   108.98879892   182.63677206
 H     27  24  23     2.079628268822   109.18300425    66.14720448
 C     21  19  15     2.830416421668   122.69417184   177.34510987
 H     33  21  19     2.090222319176   106.37881816   124.10039203
 C     33  21  19     2.880447093608   121.07679410     1.67405190
 H     13   3   2     1.826563024956   107.49924570    62.60723781
 C     35  33  21     2.925293845654   103.33921124   195.12217149
 H     35  33  21     2.069694373749   112.23798643    73.35983931
 H     35  33  21     2.070850490535   110.70497401   313.68210417
 C     30  27  24     2.940630766244   115.82002567   166.50668398
 H     37  35  33     2.065798712422   111.22734503   251.59906477
 H     37  35  33     2.072144352956   111.20569789   133.25062652
 H     40  30  27     2.081607349717   105.71192876   322.00895712
 C     40  30  27     2.900636807220   118.07568495    82.86953051
 C     30  27  24     2.900538718491   111.08220629   294.75793061
 H     45  30  27     2.068133949122   111.31236502    67.43806445
 H     45  30  27     2.069547929857   110.86456459   307.35917877
 H     45  30  27     2.068568956958   111.71412452   187.33423635
 H     44  40  30     2.081827230024   107.39437954    62.54333223
 C     44  40  30     2.910362093203   114.15147069   303.65355363
 C     44  40  30     2.860931384787   113.62325073   180.26454152
 C     51  44  40     2.519162510391   127.09286462    22.94407608
 H     51  44  40     2.062490702637   113.84958339   198.53657856
 H     52  51  44     2.057584526032   118.80695988   356.11802198
 C     52  51  44     2.852421349739   126.21339240   174.97140540
 C     55  52  51     2.891990840108   113.15471829    18.70770233
 C     55  52  51     2.939429455361   110.66980514   252.41079814
 H     55  52  51     2.085795636826   106.86202363   137.38496962
 H     57  55  52     2.081926172272   106.62240787    65.42890407
 C     57  55  52     2.895478312105   112.05222651   307.18960202
 C     57  55  52     2.894699406155   111.71509803   183.88569337
 H     56  55  52     2.068891794624   110.76532471    48.52584491
 H     56  55  52     2.072617103521   111.33691265   288.31941449
 H     56  55  52     2.065170890333   111.09908338   168.25529046
 H     60  57  55     2.069957378681   110.37044833   183.74945921
 H     60  57  55     2.067083661513   112.21478587    63.58778383
 H     60  57  55     2.074857619302   110.58489774   302.88557750
 H     61  57  55     2.074645061721   110.37737747    57.15599866
 H     61  57  55     2.066252771105   112.45129688   296.32367516
 H     61  57  55     2.070332812974   110.35553925   176.15741316
 H     50  44  40     2.070782921477   110.30041379   188.08169130
 H     50  44  40     2.065530747704   112.15298510    68.08967598
 H     50  44  40     2.071965487158   110.24168842   306.99862984

---------------------
BASIS SET INFORMATION
---------------------
There are 3 groups of distinct atoms

 Group   1 Type C   : 7s4p1d contracted to 3s2p1d pattern {511/31/1}
 Group   2 Type H   : 4s1p contracted to 2s1p pattern {31/1}
 Group   3 Type O   : 7s4p1d contracted to 3s2p1d pattern {511/31/1}

Atom   0C    basis set group =>   1
Atom   1C    basis set group =>   1
Atom   2C    basis set group =>   1
Atom   3H    basis set group =>   2
Atom   4H    basis set group =>   2
Atom   5C    basis set group =>   1
Atom   6C    basis set group =>   1
Atom   7C    basis set group =>   1
Atom   8H    basis set group =>   2
Atom   9H    basis set group =>   2
Atom  10H    basis set group =>   2
Atom  11H    basis set group =>   2
Atom  12O    basis set group =>   3
Atom  13H    basis set group =>   2
Atom  14C    basis set group =>   1
Atom  15C    basis set group =>   1
Atom  16H    basis set group =>   2
Atom  17H    basis set group =>   2
Atom  18C    basis set group =>   1
Atom  19H    basis set group =>   2
Atom  20C    basis set group =>   1
Atom  21H    basis set group =>   2
Atom  22C    basis set group =>   1
Atom  23C    basis set group =>   1
Atom  24H    basis set group =>   2
Atom  25H    basis set group =>   2
Atom  26C    basis set group =>   1
Atom  27H    basis set group =>   2
Atom  28H    basis set group =>   2
Atom  29C    basis set group =>   1
Atom  30H    basis set group =>   2
Atom  31H    basis set group =>   2
Atom  32C    basis set group =>   1
Atom  33H    basis set group =>   2
Atom  34C    basis set group =>   1
Atom  35H    basis set group =>   2
Atom  36C    basis set group =>   1
Atom  37H    basis set group =>   2
Atom  38H    basis set group =>   2
Atom  39C    basis set group =>   1
Atom  40H    basis set group =>   2
Atom  41H    basis set group =>   2
Atom  42H    basis set group =>   2
Atom  43C    basis set group =>   1
Atom  44C    basis set group =>   1
Atom  45H    basis set group =>   2
Atom  46H    basis set group =>   2
Atom  47H    basis set group =>   2
Atom  48H    basis set group =>   2
Atom  49C    basis set group =>   1
Atom  50C    basis set group =>   1
Atom  51C    basis set group =>   1
Atom  52H    basis set group =>   2
Atom  53H    basis set group =>   2
Atom  54C    basis set group =>   1
Atom  55C    basis set group =>   1
Atom  56C    basis set group =>   1
Atom  57H    basis set group =>   2
Atom  58H    basis set group =>   2
Atom  59C    basis set group =>   1
Atom  60C    basis set group =>   1
Atom  61H    basis set group =>   2
Atom  62H    basis set group =>   2
Atom  63H    basis set group =>   2
Atom  64H    basis set group =>   2
Atom  65H    basis set group =>   2
Atom  66H    basis set group =>   2
Atom  67H    basis set group =>   2
Atom  68H    basis set group =>   2
Atom  69H    basis set group =>   2
Atom  70H    basis set group =>   2
Atom  71H    basis set group =>   2
Atom  72H    basis set group =>   2

-------------------------
BASIS SET IN INPUT FORMAT
-------------------------

 # Basis set for element : H 
 NewGTO H 
 S 3 
   1      13.0107010000      0.0334854848
   2       1.9622572000      0.2347218709
   3       0.4445379600      0.8137702853
 S 1 
   1       0.1219496200      1.0000000000
 P 1 
   1       0.8000000000      1.0000000000
  end;

 # Basis set for element : C 
 NewGTO C 
 S 5 
   1    1238.4016938000      0.0055173650
   2     186.2900499200      0.0410888285
   3      42.2511763460      0.1822538213
   4      11.6765579320      0.4682845944
   5       3.5930506482      0.4457581734
 S 1 
   1       0.4024514736      1.0000000000
 S 1 
   1       0.1309018267      1.0000000000
 P 3 
   1       9.4680970621      0.0568883320
   2       2.0103545142      0.3129405934
   3       0.5477100471      0.7606501651
 P 1 
   1       0.1526861379      1.0000000000
 D 1 
   1       0.8000000000      1.0000000000
  end;

 # Basis set for element : O 
 NewGTO O 
 S 5 
   1    2266.1767785000     -0.0053893504
   2     340.8701019100     -0.0402347214
   3      77.3631351670     -0.1800818421
   4      21.4796449400     -0.4682885766
   5       6.6589433124     -0.4469261716
 S 1 
   1       0.8097597567      1.0000000000
 S 1 
   1       0.2553077223      1.0000000000
 P 3 
   1      17.7215043170      0.0626302488
   2       3.8635505440      0.3333113849
   3       1.0480920883      0.7414863830
 P 1 
   1       0.2764154441      1.0000000000
 D 1 
   1       1.2000000000      1.0000000000
  end;

---------------------------------
AUXILIARY/J BASIS SET INFORMATION
---------------------------------
There are 3 groups of distinct atoms

 Group   1 Type C   : 12s5p4d2f1g contracted to 6s4p3d1f1g pattern {711111/2111/211/2/1}
 Group   2 Type H   : 5s2p1d contracted to 3s1p1d pattern {311/2/1}
 Group   3 Type O   : 12s5p4d2f1g contracted to 6s4p3d1f1g pattern {711111/2111/211/2/1}

Atom   0C    basis set group =>   1
Atom   1C    basis set group =>   1
Atom   2C    basis set group =>   1
Atom   3H    basis set group =>   2
Atom   4H    basis set group =>   2
Atom   5C    basis set group =>   1
Atom   6C    basis set group =>   1
Atom   7C    basis set group =>   1
Atom   8H    basis set group =>   2
Atom   9H    basis set group =>   2
Atom  10H    basis set group =>   2
Atom  11H    basis set group =>   2
Atom  12O    basis set group =>   3
Atom  13H    basis set group =>   2
Atom  14C    basis set group =>   1
Atom  15C    basis set group =>   1
Atom  16H    basis set group =>   2
Atom  17H    basis set group =>   2
Atom  18C    basis set group =>   1
Atom  19H    basis set group =>   2
Atom  20C    basis set group =>   1
Atom  21H    basis set group =>   2
Atom  22C    basis set group =>   1
Atom  23C    basis set group =>   1
Atom  24H    basis set group =>   2
Atom  25H    basis set group =>   2
Atom  26C    basis set group =>   1
Atom  27H    basis set group =>   2
Atom  28H    basis set group =>   2
Atom  29C    basis set group =>   1
Atom  30H    basis set group =>   2
Atom  31H    basis set group =>   2
Atom  32C    basis set group =>   1
Atom  33H    basis set group =>   2
Atom  34C    basis set group =>   1
Atom  35H    basis set group =>   2
Atom  36C    basis set group =>   1
Atom  37H    basis set group =>   2
Atom  38H    basis set group =>   2
Atom  39C    basis set group =>   1
Atom  40H    basis set group =>   2
Atom  41H    basis set group =>   2
Atom  42H    basis set group =>   2
Atom  43C    basis set group =>   1
Atom  44C    basis set group =>   1
Atom  45H    basis set group =>   2
Atom  46H    basis set group =>   2
Atom  47H    basis set group =>   2
Atom  48H    basis set group =>   2
Atom  49C    basis set group =>   1
Atom  50C    basis set group =>   1
Atom  51C    basis set group =>   1
Atom  52H    basis set group =>   2
Atom  53H    basis set group =>   2
Atom  54C    basis set group =>   1
Atom  55C    basis set group =>   1
Atom  56C    basis set group =>   1
Atom  57H    basis set group =>   2
Atom  58H    basis set group =>   2
Atom  59C    basis set group =>   1
Atom  60C    basis set group =>   1
Atom  61H    basis set group =>   2
Atom  62H    basis set group =>   2
Atom  63H    basis set group =>   2
Atom  64H    basis set group =>   2
Atom  65H    basis set group =>   2
Atom  66H    basis set group =>   2
Atom  67H    basis set group =>   2
Atom  68H    basis set group =>   2
Atom  69H    basis set group =>   2
Atom  70H    basis set group =>   2
Atom  71H    basis set group =>   2
Atom  72H    basis set group =>   2

-------------------------------------
AUXILIARY/J BASIS SET IN INPUT FORMAT
-------------------------------------

 # Auxiliary/J basis set for element : H 
 NewAuxJGTO H 
 S 3 
   1      15.6752927000      0.1007184237
   2       3.6063578000      0.3404257499
   3       1.2080016000      0.6491996172
 S 1 
   1       0.4726794000      1.0000000000
 S 1 
   1       0.2018100000      1.0000000000
 P 2 
   1       2.0281365000      0.5596620919
   2       0.5358730000      0.5596620919
 D 1 
   1       2.2165124000      1.0000000000
  end;

 # Auxiliary/J basis set for element : C 
 NewAuxJGTO C 
 S 7 
   1    1861.0916331000      0.0134602335
   2     642.9939764000      0.0299160374
   3     235.1105725000      0.1008649584
   4      90.7028894000      0.2370970548
   5      36.7794552000      0.3924037254
   6      15.6046273000      0.3195862154
   7       6.8907294000      0.0530104441
 S 1 
   1       3.1478850000     -1.0000000000
 S 1 
   1       1.4777287000      1.0000000000
 S 1 
   1       0.7076466000      1.0000000000
 S 1 
   1       0.3430122000      1.0000000000
 S 1 
   1       0.1669453000      1.0000000000
 P 2 
   1      13.5472892000     -0.6769313712
   2       5.4669419000     -0.3779500978
 P 1 
   1       2.1751721000      1.0000000000
 P 1 
   1       0.8582194000      1.0000000000
 P 1 
   1       0.3376720000      1.0000000000
 D 2 
   1       5.9287253000     -0.3533329857
   2       1.9809209000     -0.7456525731
 D 1 
   1       0.8055417000     -1.0000000000
 D 1 
   1       0.3531244000     -1.0000000000
 F 2 
   1       1.6755626000      0.6311076882
   2       0.5997536000      0.4968166032
 G 1 
   1       1.0024600000     -1.0000000000
  end;

 # Auxiliary/J basis set for element : O 
 NewAuxJGTO O 
 S 7 
   1    2876.8216605000      0.0168151159
   2    1004.7443032000      0.0340137548
   3     369.7579954000      0.1194951309
   4     142.9442404000      0.2664627624
   5      57.8366425000      0.4202764046
   6      24.3864983000      0.2765077335
   7      10.6622662000      0.0057008815
 S 1 
   1       4.8070437000     -1.0000000000
 S 1 
   1       2.2210770000      1.0000000000
 S 1 
   1       1.0447795000      1.0000000000
 S 1 
   1       0.4968425000      1.0000000000
 S 1 
   1       0.2371384000      1.0000000000
 P 2 
   1      64.2613382000     -0.2731534179
   2      16.3006076000     -0.8168011598
 P 1 
   1       4.3550542000      1.0000000000
 P 1 
   1       1.2019554000      1.0000000000
 P 1 
   1       0.3354196000      1.0000000000
 D 2 
   1       9.2146611000     -0.4661230638
   2       2.8435251000     -0.6600908911
 D 1 
   1       0.9955759000     -1.0000000000
 D 1 
   1       0.3649441000     -1.0000000000
 F 2 
   1       2.6420115000      0.5931563945
   2       0.7345613000      0.5931563945
 G 1 
   1       1.3931000000     -1.0000000000
  end;



           ************************************************************
           *        Program running with 4 parallel MPI-processes     *
           *              working on a common directory               *
           ************************************************************
------------------------------------------------------------------------------
                             ORCA STARTUP CALCULATIONS
                           -- RI-GTO INTEGRALS CHOSEN --
------------------------------------------------------------------------------
------------------------------------------------------------------------------
                   ___                                                        
                  /   \      - P O W E R E D   B Y -                         
                 /     \                                                     
                 |  |  |   _    _      __       _____    __    __             
                 |  |  |  | |  | |    /  \     |  _  \  |  |  /  |          
                  \  \/   | |  | |   /    \    | | | |  |  | /  /          
                 / \  \   | |__| |  /  /\  \   | |_| |  |  |/  /          
                |  |  |   |  __  | /  /__\  \  |    /   |      \           
                |  |  |   | |  | | |   __   |  |    \   |  |\   \          
                \     /   | |  | | |  |  |  |  | |\  \  |  | \   \       
                 \___/    |_|  |_| |__|  |__|  |_| \__\ |__|  \__/        
                                                                              
                      - O R C A' S   B I G   F R I E N D -                    
                                      &                                       
                       - I N T E G R A L  F E E D E R -                       
                                                                              
 v1 FN, 2020, v2 2021, v3 2022-2024                                           
------------------------------------------------------------------------------


----------------------
SHARK INTEGRAL PACKAGE
----------------------

Number of atoms                             ...     73
Number of basis functions                   ...    626
Number of shells                            ...    306
Maximum angular momentum                    ...      2
Integral batch strategy                     ... SHARK/LIBINT Hybrid
RI-J (if used) integral strategy            ... SPLIT-RIJ (Revised 2003 algorithm where possible)
Printlevel                                  ...      1
Contraction scheme used                     ... SEGMENTED contraction
Prescreening option                         ... SCHWARTZ
   Thresh                                   ... 3.000e-11
   Tcut                                     ... 1.000e-12
   Tpresel                                  ... 1.000e-12 
Coulomb Range Separation                    ... NOT USED
Exchange Range Separation                   ... Long Range
   Mu parameter                             ... 3.000e-01
   Scaling (regular/separated)              ... 1.670e-01 8.330e-01
Multipole approximations                    ... NOT USED
Finite Nucleus Model                        ... NOT USED
CABS basis                                  ... NOT available
Auxiliary Coulomb fitting basis             ... AVAILABLE
   # of basis functions in Aux-J            ...   1905
   # of shells in Aux-J                     ...    655
   Maximum angular momentum in Aux-J        ...      4
Auxiliary J/K fitting basis                 ... NOT available
Auxiliary Correlation fitting basis         ... NOT available
Auxiliary 'external' fitting basis          ... NOT available

Checking pre-screening integrals            ... done (  0.0 sec) Dimension = 306
Check shell pair data                       ... done (  0.0 sec)
Shell pair information
Shell pair cut-off parameter TPreSel        ...   1.0e-12
Total number of shell pairs                 ...     46971
Shell pairs after pre-screening             ...     27449
Total number of primitive shell pairs       ...    162105
Primitive shell pairs kept                  ...     60637
          la=0 lb=0:   9616 shell pairs
          la=1 lb=0:  10531 shell pairs
          la=1 lb=1:   2904 shell pairs
          la=2 lb=0:   2736 shell pairs
          la=2 lb=1:   1467 shell pairs
          la=2 lb=2:    195 shell pairs

Calculating one electron integrals          ... done (  0.1 sec)
Calculating RI/J V-Matrix + Cholesky decomp.... done (  0.2 sec)
Calculating Nuclear repulsion               ... done (  0.0 sec) ENN=   2770.491745335373 Eh

Diagonalization of the overlap matrix:
Smallest eigenvalue                        ... 4.541e-04
Time for diagonalization                   ...    0.047 sec
Threshold for overlap eigenvalues          ... 1.000e-07
Number of eigenvalues below threshold      ... 0
Time for construction of square roots      ...    0.025 sec
Total time needed                          ...    0.076 sec

-------------------
DFT GRID GENERATION
-------------------

General Integration Accuracy     IntAcc      ... 4.388
Radial Grid Type                 RadialGrid  ... OptM3 with GC (2021)
Angular Grid (max. ang.)         AngularGrid ... 4 (Lebedev-302)
Angular grid pruning method      GridPruning ... 4 (adaptive)
Weight generation scheme         WeightScheme... mBecke (2022)
Basis function cutoff            BFCut       ... 1.0000e-11
Integration weight cutoff        WCut        ... 1.0000e-14
Partially contracted basis set               ... off
Rotationally invariant grid construction     ... off
Angular grids for H and He will be reduced by one unit

Total number of grid points                  ...   309941
Total number of batches                      ...     4882
Average number of points per batch           ...       63
Average number of grid points per atom       ...     4246

--------------------
COSX GRID GENERATION
--------------------

GRIDX 1
-------
General Integration Accuracy     IntAcc      ... 3.816
Radial Grid Type                 RadialGrid  ... OptM3 with GC (2021)
Angular Grid (max. ang.)         AngularGrid ... 1 (Lebedev-50)
Angular grid pruning method      GridPruning ... 4 (adaptive)
Weight generation scheme         WeightScheme... mBecke (2022)
Basis function cutoff            BFCut       ... 1.0000e-11
Integration weight cutoff        WCut        ... 1.0000e-14
Partially contracted basis set               ... on
Rotationally invariant grid construction     ... off
Angular grids for H and He will be reduced by one unit

Total number of grid points                  ...    39390
Total number of batches                      ...      352
Average number of points per batch           ...      111
Average number of grid points per atom       ...      540
UseSFitting                                  ... on

GRIDX 2
-------
General Integration Accuracy     IntAcc      ... 4.020
Radial Grid Type                 RadialGrid  ... OptM3 with GC (2021)
Angular Grid (max. ang.)         AngularGrid ... 2 (Lebedev-110)
Angular grid pruning method      GridPruning ... 4 (adaptive)
Weight generation scheme         WeightScheme... mBecke (2022)
Basis function cutoff            BFCut       ... 1.0000e-11
Integration weight cutoff        WCut        ... 1.0000e-14
Partially contracted basis set               ... on
Rotationally invariant grid construction     ... off
Angular grids for H and He will be reduced by one unit

Total number of grid points                  ...    81384
Total number of batches                      ...      675
Average number of points per batch           ...      120
Average number of grid points per atom       ...     1115
UseSFitting                                  ... on

GRIDX 3
-------
General Integration Accuracy     IntAcc      ... 4.338
Radial Grid Type                 RadialGrid  ... OptM3 with GC (2021)
Angular Grid (max. ang.)         AngularGrid ... 3 (Lebedev-194)
Angular grid pruning method      GridPruning ... 4 (adaptive)
Weight generation scheme         WeightScheme... mBecke (2022)
Basis function cutoff            BFCut       ... 1.0000e-11
Integration weight cutoff        WCut        ... 1.0000e-14
Partially contracted basis set               ... on
Rotationally invariant grid construction     ... off
Angular grids for H and He will be reduced by one unit

Total number of grid points                  ...   176337
Total number of batches                      ...     1421
Average number of points per batch           ...      124
Average number of grid points per atom       ...     2416
UseSFitting                                  ... on
Initializing property integral containers    ... done (  0.0 sec)

SHARK setup successfully completed in   4.5 seconds

Maximum memory used throughout the entire STARTUP-calculation: 95.5 MB


           ************************************************************
           *        Program running with 4 parallel MPI-processes     *
           *              working on a common directory               *
           ************************************************************
-------------------------------------------------------------------------------
                                 ORCA GUESS
                   Start orbitals & Density for SCF / CASSCF
-------------------------------------------------------------------------------

------------
SCF SETTINGS
------------
Hamiltonian:
 Density Functional     Method          .... DFT(GTOs)
 Exchange Functional    Exchange        .... WB97X-V
 Correlation Functional Correlation     .... WB97X-V
 Gradients option       PostSCFGGA      .... off
 Hybrid DFT is turned on
   Fraction HF Exchange ScalHFX         ....  0.167000
   Scaling of DF-GGA-X  ScalDFX         ....  0.000000
   Scaling of DF-GGA-C  ScalDFC         ....  1.000000
   Scaling of DF-LDA-C  ScalLDAC        ....  1.000000
   Perturbative correction              ....  0.000000
 Long-range corrected/Screened/Range-Separated Hybrid DFT is turned on
   Amount of maximum screened exact exchange              ....  0.833000
   Range separation parameter mu (erf(mu*r12)/r12)        ....  0.300000
 RI-approximation to the Coulomb term is turned on
   Number of AuxJ basis functions       .... 1905
   RIJ-COSX (HFX calculated with COS-X)).... on


General Settings:
 Integral files         IntName         .... inpS
 Hartree-Fock type      HFTyp           .... RHF
 Total Charge           Charge          ....    0
 Multiplicity           Mult            ....    1
 Number of Electrons    NEL             ....  220
 Basis Dimension        Dim             ....  626
 Nuclear Repulsion      ENuc            ....   2770.4917453354 Eh

Convergence Acceleration:
 AO-DIIS                CNVDIIS         .... on
   Start iteration      DIISMaxIt       ....    12
   Startup error        DIISStart       ....  0.200000
   # of expansion vecs  DIISMaxEq       ....     5
   Bias factor          DIISBfac        ....   1.050
   Max. coefficient     DIISMaxC        ....  10.000
 MO-DIIS                CNVKDIIS        .... off
 Trust-Rad. Augm. Hess. CNVTRAH         .... auto
   Auto Start mean grad. ratio tolernc. ....  1.125000
   Auto Start start iteration           ....    50
   Auto Start num. interpolation iter.  ....    10
   Max. Number of Micro iterations      ....    24
   Max. Number of Macro iterations      .... Maxiter - #DIIS iter
   Number of Davidson start vectors     ....     2
   Converg. threshold    (grad. norm)   ....   1.000e-04
   Grad. Scal. Fac. for Micro threshold ....   0.100
   Minimum threshold for Micro iter.    ....   1.000e-02
   NR start threshold (gradient norm)   ....   1.000e-04
   Initial trust radius                 ....   0.400
   Minimum AH scaling param. (alpha)    ....   1.000
   Maximum AH scaling param. (alpha)    .... 1000.000
   Quad. conv. algorithm                .... NR
   White noise on init. David. guess    .... on
   Maximum white noise                  ....   0.010
   Pseudo random numbers                .... off
   Inactive MOs                         .... canonical
   Orbital update algorithm             .... Taylor
   Preconditioner                       .... Diag
   Full preconditioner red. dimension   ....   250
 SOSCF                  CNVSOSCF        .... off
 Level Shifting         CNVShift        .... on
   Level shift para.    LevelShift      ....    0.2500
   Turn off err/grad.   ShiftErr        ....    0.0010
 Zerner damping         CNVZerner       .... off
 Static damping         CNVDamp         .... on
   Fraction old density DampFac         ....    0.7000
   Max. Damping (<1)    DampMax         ....    0.9800
   Min. Damping (>=0)   DampMin         ....    0.0000
   Turn off err/grad.   DampErr         ....    0.1000

SCF Procedure:
 Maximum # iterations   MaxIter         ....   125
 SCF integral mode      SCFMode         .... Direct
   Integral package                     .... SHARK and LIBINT hybrid scheme
 Reset frequency        DirectResetFreq ....    20
 Integral Threshold     Thresh          ....  3.000e-11 Eh
 Primitive CutOff       TCut            ....  1.000e-12 Eh

Convergence Tolerance:
 Convergence Check Mode ConvCheckMode   .... Total+1el-Energy
 Convergence forced     ConvForced      .... 0
 Energy Change          TolE            ....  1.000e-07 Eh
 1-El. energy change                    ....  1.000e-04 Eh
 DIIS Error             TolErr          ....  1.000e-07

------------------------------
INITIAL GUESS: MODEL POTENTIAL
------------------------------
Loading Hartree-Fock densities                     ... done
Calculating cut-offs                               ... done
Initializing the effective Hamiltonian             ... done
Setting up the integral package (SHARK)            ... done
Starting the Coulomb interaction                   ... done (   0.6 sec)
Making the grid                                    ... done (   0.5 sec)
Mapping shells                                     ... done
Starting the XC term evaluation                    ... done (   0.3 sec)
  promolecular density results
     # of electrons  =    219.981870277
     EX              =   -109.116109673
     EC              =     -8.882793035
     EX+EC           =   -117.998902708
Transforming the Hamiltonian                       ... done (   0.0 sec)
Diagonalizing the Hamiltonian                      ... done (   0.1 sec)
Back transforming the eigenvectors                 ... done (   0.0 sec)
Now organizing SCF variables                       ... done
                      ------------------
                      INITIAL GUESS DONE (   1.4 sec)
                      ------------------
             **** ENERGY FILE WAS UPDATED (inpS.en.tmp) ****
Finished Guess after   1.6 sec
Maximum memory used throughout the entire GUESS-calculation: 56.3 MB


           ************************************************************
           *        Program running with 4 parallel MPI-processes     *
           *              working on a common directory               *
           ************************************************************

-------------------------------------------------------------------------------------------
                                      ORCA LEAN-SCF
                              memory conserving SCF solver
-------------------------------------------------------------------------------------------

--------------------
CPCM SOLVATION MODEL
--------------------
CPCM parameters:
  Epsilon                                         ...       4.8030
  Refrac                                          ...       1.4459
  Rsolv                                           ...       1.3000
  Surface type                                    ... GAUSSIAN VDW
  Discretization scheme                           ... Constant charge density
    Threshold for H atoms                         ...       5.0000 (charges/Ang^2)
    Threshold for non-H atoms                     ...       5.0000 (charges/Ang^2)
  Epsilon function type                           ...         CPCM
Solvent:                                          ... CHLOROFORM
Radii:
  Scheme                                          ... Element-dependent radii
  Radius for C  used is    3.8550 Bohr (=   2.0400 Ang.)
  Radius for H  used is    2.4944 Bohr (=   1.3200 Ang.)
  Radius for O  used is    3.4469 Bohr (=   1.8240 Ang.)
Calculating surface                               ...        done! (  0.0s)
Cavity surface points                             ...         5420
Cavity Volume                                     ...    3605.4518
Cavity Surface-area                               ...    1792.3494
Calculating surface distance matrix               ...        done! (  0.3s)
Performing Cholesky decomposition & store         ...        done! (  0.9s)
Overall time for CPCM initialization              ...                 1.2s

----------------------------------------D-I-I-S--------------------------------------------
Iteration    Energy (Eh)           Delta-E    RMSDP     MaxDP     DIISErr   Damp  Time(sec)
-------------------------------------------------------------------------------------------
               ***  Starting incremental Fock matrix formation  ***
    1    -1168.2258433200736363     0.00e+00  7.45e-04  5.74e-02  5.64e-02  0.700  25.1

  HOMO= 109 E= -7.293 eV LUMO=  8.325 eV gap=  15.618 eV
    2    -1168.2686234360771778    -4.28e-02  6.29e-04  4.64e-02  3.92e-02  0.700  11.3

  HOMO= 109 E= -7.467 eV LUMO=  8.235 eV gap=  15.702 eV
                               ***Turning on AO-DIIS***
    3    -1168.2959587004424975    -2.73e-02  5.00e-04  3.72e-02  2.70e-02  0.700  11.0

  HOMO= 109 E= -7.811 eV LUMO=  8.031 eV gap=  15.842 eV
    4    -1168.3142853809795270    -1.83e-02  1.30e-03  9.40e-02  1.91e-02  0.000  10.9

  HOMO= 109 E= -7.857 eV LUMO=  8.031 eV gap=  15.887 eV
    5    -1168.3586362672836003    -4.44e-02  1.34e-04  6.00e-03  3.38e-03  0.000  11.8

  HOMO= 109 E= -7.864 eV LUMO=  8.074 eV gap=  15.938 eV
    6    -1168.3589968847691125    -3.61e-04  5.20e-05  2.51e-03  1.98e-03  0.000   9.9

  HOMO= 109 E= -7.865 eV LUMO=  8.093 eV gap=  15.958 eV
    7    -1168.3590613439851040    -6.45e-05  2.64e-05  1.22e-03  1.23e-03  0.000   9.2

  HOMO= 109 E= -7.878 eV LUMO=  8.094 eV gap=  15.971 eV
    8    -1168.3590814733183834    -2.01e-05  1.21e-05  6.25e-04  6.62e-04  0.000   8.6

  HOMO= 109 E= -7.879 eV LUMO=  8.100 eV gap=  15.979 eV
               *** Restarting incremental Fock matrix formation ***
                             ****Resetting DIIS****
    9    -1168.3591325454144680    -5.11e-05  6.93e-06  4.20e-04  3.51e-04  0.000  24.8

  HOMO= 109 E= -7.880 eV LUMO=  1.297 eV gap=   9.177 eV
   10    -1168.3591340601792581    -1.51e-06  3.35e-06  2.22e-04  1.53e-04  0.000  13.8

  HOMO= 109 E= -7.882 eV LUMO=  1.298 eV gap=   9.180 eV
   11    -1168.3591343352491094    -2.75e-07  1.41e-06  8.47e-05  1.09e-04  0.000  11.3

  HOMO= 109 E= -7.882 eV LUMO=  1.299 eV gap=   9.181 eV
   12    -1168.3591344111619037    -7.59e-08  3.18e-07  1.54e-05  1.76e-05  0.000   9.5
                 **** Energy Check signals convergence ****

  HOMO= 109 E= -7.882 eV LUMO=  1.299 eV gap=   9.182 eV

               *****************************************************
               *                     SUCCESS                       *
               *           SCF CONVERGED AFTER  12 CYCLES          *
               *****************************************************

Recomputing exchange energy using gridx3       ... done (   40.490 sec)
Old exchange energy                            :    -56.782688948 Eh
New exchange energy                            :    -56.782582444 Eh
Exchange energy change after final integration :      0.000106505 Eh
Total energy after final integration           :  -1168.359027906 Eh
             **** ENERGY FILE WAS UPDATED (inpS.en.tmp) ****

----------------
TOTAL SCF ENERGY
----------------

Total Energy       :      -1168.35902790634964 Eh          -31792.66546 eV

Components:
Nuclear Repulsion  :       2770.49174533537325 Eh           75388.91309 eV
Electronic Energy  :      -3938.84016905280396 Eh         -107181.28999 eV
One Electron Energy:      -7086.29742316043212 Eh         -192827.95607 eV
Two Electron Energy:       3147.45725410762816 Eh           85646.66608 eV
CPCM Dielectric    :         -0.01071069373098 Eh              -0.29145 eV

Virial components:
Potential Energy   :      -2321.68186352997463 Eh          -63176.17532 eV
Kinetic Energy     :       1153.32283562362500 Eh           31383.50986 eV
Virial Ratio       :          2.01303727960489

DFT components:
N(Alpha)           :      110.000128074929 electrons
N(Beta)            :      110.000128074929 electrons
N(Total)           :      220.000256149858 electrons
E(X)               :     -111.769840370668 Eh       
E(C)               :       -8.951516357426 Eh       
E(XC)              :     -120.721356728094 Eh       

CPCM Solvation Model Properties:
Surface-charge          :         -0.04167467471458
Corrected charge        :          0.00000000000000
Outlying charge corr.   :          0.00006052214837 Eh               0.00165 eV
Free-energy (cav+disp)  :  This term is not implemented in the current solvation scheme

---------------
SCF CONVERGENCE
---------------

  Last Energy change         ...    7.5913e-08  Tolerance :   1.0000e-07
  Last MAX-Density change    ...    1.5393e-05  Tolerance :   1.0000e-05
  Last RMS-Density change    ...    3.1799e-07  Tolerance :   1.0000e-06
  Last DIIS Error            ...    1.7593e-05  Tolerance :   1.0000e-07


----------------
ORBITAL ENERGIES
----------------

  NO   OCC          E(Eh)            E(eV) 
   0   2.0000     -19.213689      -522.8311 
   1   2.0000     -10.329758      -281.0870 
   2   2.0000     -10.293344      -280.0961 
   3   2.0000     -10.290106      -280.0080 
   4   2.0000     -10.285923      -279.8942 
   5   2.0000     -10.285829      -279.8916 
   6   2.0000     -10.285098      -279.8718 
   7   2.0000     -10.282832      -279.8101 
   8   2.0000     -10.282602      -279.8038 
   9   2.0000     -10.282412      -279.7987 
  10   2.0000     -10.281905      -279.7849 
  11   2.0000     -10.280813      -279.7552 
  12   2.0000     -10.279438      -279.7177 
  13   2.0000     -10.278420      -279.6900 
  14   2.0000     -10.276666      -279.6423 
  15   2.0000     -10.276502      -279.6378 
  16   2.0000     -10.276428      -279.6358 
  17   2.0000     -10.276344      -279.6335 
  18   2.0000     -10.273477      -279.5555 
  19   2.0000     -10.271759      -279.5088 
  20   2.0000     -10.271498      -279.5017 
  21   2.0000     -10.271390      -279.4987 
  22   2.0000     -10.270591      -279.4770 
  23   2.0000     -10.269819      -279.4560 
  24   2.0000     -10.269368      -279.4437 
  25   2.0000     -10.268417      -279.4178 
  26   2.0000     -10.268277      -279.4140 
  27   2.0000     -10.268260      -279.4136 
  28   2.0000     -10.266449      -279.3643 
  29   2.0000      -1.131687       -30.7948 
  30   2.0000      -0.997843       -27.1527 
  31   2.0000      -0.979102       -26.6427 
  32   2.0000      -0.957472       -26.0541 
  33   2.0000      -0.942135       -25.6368 
  34   2.0000      -0.917182       -24.9578 
  35   2.0000      -0.910302       -24.7706 
  36   2.0000      -0.889420       -24.2024 
  37   2.0000      -0.887065       -24.1383 
  38   2.0000      -0.873415       -23.7668 
  39   2.0000      -0.852688       -23.2028 
  40   2.0000      -0.832271       -22.6472 
  41   2.0000      -0.828581       -22.5468 
  42   2.0000      -0.808139       -21.9906 
  43   2.0000      -0.799157       -21.7462 
  44   2.0000      -0.795192       -21.6383 
  45   2.0000      -0.786725       -21.4079 
  46   2.0000      -0.759150       -20.6575 
  47   2.0000      -0.757874       -20.6228 
  48   2.0000      -0.723937       -19.6993 
  49   2.0000      -0.712802       -19.3963 
  50   2.0000      -0.712175       -19.3793 
  51   2.0000      -0.700943       -19.0736 
  52   2.0000      -0.689000       -18.7486 
  53   2.0000      -0.679312       -18.4850 
  54   2.0000      -0.658535       -17.9197 
  55   2.0000      -0.631858       -17.1937 
  56   2.0000      -0.622462       -16.9381 
  57   2.0000      -0.618976       -16.8432 
  58   2.0000      -0.605221       -16.4689 
  59   2.0000      -0.604371       -16.4458 
  60   2.0000      -0.587596       -15.9893 
  61   2.0000      -0.584790       -15.9129 
  62   2.0000      -0.569443       -15.4953 
  63   2.0000      -0.567810       -15.4509 
  64   2.0000      -0.563600       -15.3363 
  65   2.0000      -0.560910       -15.2631 
  66   2.0000      -0.552325       -15.0295 
  67   2.0000      -0.551156       -14.9977 
  68   2.0000      -0.546594       -14.8736 
  69   2.0000      -0.538225       -14.6459 
  70   2.0000      -0.537553       -14.6275 
  71   2.0000      -0.529820       -14.4171 
  72   2.0000      -0.528600       -14.3839 
  73   2.0000      -0.522388       -14.2149 
  74   2.0000      -0.518065       -14.0973 
  75   2.0000      -0.508510       -13.8373 
  76   2.0000      -0.504489       -13.7278 
  77   2.0000      -0.502326       -13.6690 
  78   2.0000      -0.496413       -13.5081 
  79   2.0000      -0.492433       -13.3998 
  80   2.0000      -0.489302       -13.3146 
  81   2.0000      -0.487841       -13.2748 
  82   2.0000      -0.483516       -13.1571 
  83   2.0000      -0.478236       -13.0135 
  84   2.0000      -0.477693       -12.9987 
  85   2.0000      -0.472786       -12.8652 
  86   2.0000      -0.465127       -12.6568 
  87   2.0000      -0.461175       -12.5492 
  88   2.0000      -0.454073       -12.3560 
  89   2.0000      -0.452551       -12.3146 
  90   2.0000      -0.448394       -12.2014 
  91   2.0000      -0.446610       -12.1529 
  92   2.0000      -0.441303       -12.0085 
  93   2.0000      -0.430916       -11.7258 
  94   2.0000      -0.426172       -11.5967 
  95   2.0000      -0.422726       -11.5030 
  96   2.0000      -0.420077       -11.4309 
  97   2.0000      -0.419017       -11.4020 
  98   2.0000      -0.418153       -11.3785 
  99   2.0000      -0.413247       -11.2450 
 100   2.0000      -0.411318       -11.1925 
 101   2.0000      -0.407991       -11.1020 
 102   2.0000      -0.403322       -10.9750 
 103   2.0000      -0.399259       -10.8644 
 104   2.0000      -0.393676       -10.7125 
 105   2.0000      -0.380863       -10.3638 
 106   2.0000      -0.371731       -10.1153 
 107   2.0000      -0.356919        -9.7123 
 108   2.0000      -0.336371        -9.1531 
 109   2.0000      -0.289670        -7.8823 
 110   0.0000       0.047746         1.2992 
 111   0.0000       0.100540         2.7358 
 112   0.0000       0.108858         2.9622 
 113   0.0000       0.131419         3.5761 
 114   0.0000       0.145599         3.9619 
 115   0.0000       0.147151         4.0042 
 116   0.0000       0.153034         4.1643 
 117   0.0000       0.155603         4.2342 
 118   0.0000       0.158391         4.3100 
 119   0.0000       0.159211         4.3323 
 120   0.0000       0.168202         4.5770 
*Only the first 10 virtual orbitals were printed.

                    ********************************
                    * MULLIKEN POPULATION ANALYSIS *
                    ********************************

-----------------------
MULLIKEN ATOMIC CHARGES
-----------------------
   0 C :   -0.127739
   1 C :    0.144877
   2 C :    0.081620
   3 H :    0.016558
   4 H :    0.013037
   5 C :   -0.184939
   6 C :    0.111085
   7 C :    0.006860
   8 H :    0.029802
   9 H :    0.012269
  10 H :    0.023566
  11 H :    0.011312
  12 O :   -0.355249
  13 H :    0.014110
  14 C :   -0.024307
  15 C :   -0.043798
  16 H :    0.036091
  17 H :    0.029093
  18 C :   -0.060217
  19 H :   -0.007113
  20 C :   -0.116529
  21 H :    0.000989
  22 C :    0.115327
  23 C :   -0.001618
  24 H :    0.012522
  25 H :    0.017490
  26 C :    0.106413
  27 H :    0.012671
  28 H :    0.014866
  29 C :   -0.419012
  30 H :    0.008627
  31 H :   -0.002515
  32 C :   -0.037797
  33 H :    0.009586
  34 C :    0.108187
  35 H :    0.181762
  36 C :    0.073700
  37 H :    0.007031
  38 H :    0.015521
  39 C :   -0.039367
  40 H :    0.009708
  41 H :   -0.000240
  42 H :   -0.001026
  43 C :   -0.000005
  44 C :    0.095052
  45 H :    0.023661
  46 H :    0.016700
  47 H :    0.020106
  48 H :    0.006210
  49 C :    0.052091
  50 C :   -0.096422
  51 C :   -0.081945
  52 H :    0.009579
  53 H :    0.026381
  54 C :   -0.044850
  55 C :    0.042645
  56 C :   -0.176354
  57 H :    0.003404
  58 H :    0.006492
  59 C :    0.027365
  60 C :    0.033417
  61 H :    0.019730
  62 H :    0.020771
  63 H :    0.024482
  64 H :    0.018261
  65 H :    0.024095
  66 H :    0.013387
  67 H :    0.012997
  68 H :    0.023957
  69 H :    0.018523
  70 H :    0.012806
  71 H :    0.030718
  72 H :    0.013532
Sum of atomic charges:   -0.0000000

--------------------------------
MULLIKEN REDUCED ORBITAL CHARGES
--------------------------------
  0 C s       :     3.078087  s :     3.078087
      pz      :     1.002372  p :     3.006804
      px      :     0.998058
      py      :     1.006374
      dz2     :     0.003556  d :     0.042847
      dxz     :     0.006978
      dyz     :     0.005962
      dx2y2   :     0.014446
      dxy     :     0.011905

  1 C s       :     2.931911  s :     2.931911
      pz      :     0.976537  p :     2.888776
      px      :     0.944974
      py      :     0.967266
      dz2     :     0.007270  d :     0.034436
      dxz     :     0.009313
      dyz     :     0.004499
      dx2y2   :     0.008851
      dxy     :     0.004502

  2 C s       :     3.075076  s :     3.075076
      pz      :     1.031489  p :     2.772135
      px      :     0.771560
      py      :     0.969086
      dz2     :     0.011985  d :     0.071169
      dxz     :     0.016531
      dyz     :     0.009086
      dx2y2   :     0.018784
      dxy     :     0.014783

  3 H s       :     0.960250  s :     0.960250
      pz      :     0.009963  p :     0.023192
      px      :     0.008332
      py      :     0.004897

  4 H s       :     0.964170  s :     0.964170
      pz      :     0.003993  p :     0.022793
      px      :     0.003813
      py      :     0.014986

  5 C s       :     3.111884  s :     3.111884
      pz      :     1.011974  p :     3.028250
      px      :     0.973121
      py      :     1.043155
      dz2     :     0.011462  d :     0.044805
      dxz     :     0.006963
      dyz     :     0.012014
      dx2y2   :     0.008018
      dxy     :     0.006349

  6 C s       :     2.949105  s :     2.949105
      pz      :     0.969072  p :     2.904334
      px      :     0.969587
      py      :     0.965676
      dz2     :     0.007161  d :     0.035475
      dxz     :     0.009829
      dyz     :     0.004694
      dx2y2   :     0.009116
      dxy     :     0.004676

  7 C s       :     3.012803  s :     3.012803
      pz      :     0.990332  p :     2.945314
      px      :     0.991288
      py      :     0.963694
      dz2     :     0.005611  d :     0.035023
      dxz     :     0.008254
      dyz     :     0.006184
      dx2y2   :     0.009716
      dxy     :     0.005256

  8 H s       :     0.946910  s :     0.946910
      pz      :     0.010567  p :     0.023287
      px      :     0.007854
      py      :     0.004866

  9 H s       :     0.964913  s :     0.964913
      pz      :     0.004176  p :     0.022818
      px      :     0.003751
      py      :     0.014891

 10 H s       :     0.953739  s :     0.953739
      pz      :     0.012197  p :     0.022695
      px      :     0.004916
      py      :     0.005582

 11 H s       :     0.965999  s :     0.965999
      pz      :     0.010040  p :     0.022689
      px      :     0.007903
      py      :     0.004746

 12 O s       :     3.726515  s :     3.726515
      pz      :     1.574475  p :     4.616521
      px      :     1.233214
      py      :     1.808831
      dz2     :     0.002096  d :     0.012213
      dxz     :     0.004277
      dyz     :     0.001832
      dx2y2   :     0.001630
      dxy     :     0.002377

 13 H s       :     0.965665  s :     0.965665
      pz      :     0.010108  p :     0.020225
      px      :     0.005775
      py      :     0.004342

 14 C s       :     3.197177  s :     3.197177
      pz      :     0.985735  p :     2.790885
      px      :     0.895457
      py      :     0.909692
      dz2     :     0.003238  d :     0.036245
      dxz     :     0.007568
      dyz     :     0.003063
      dx2y2   :     0.012286
      dxy     :     0.010090

 15 C s       :     3.122340  s :     3.122340
      pz      :     0.968316  p :     2.895205
      px      :     1.003832
      py      :     0.923056
      dz2     :     0.007467  d :     0.026254
      dxz     :     0.004109
      dyz     :     0.007143
      dx2y2   :     0.004741
      dxy     :     0.002793

 16 H s       :     0.939361  s :     0.939361
      pz      :     0.011910  p :     0.024548
      px      :     0.005958
      py      :     0.006681

 17 H s       :     0.946281  s :     0.946281
      pz      :     0.003995  p :     0.024625
      px      :     0.004671
      py      :     0.015960

 18 C s       :     3.200615  s :     3.200615
      pz      :     1.027674  p :     2.824290
      px      :     0.884085
      py      :     0.912531
      dz2     :     0.003295  d :     0.035312
      dxz     :     0.007099
      dyz     :     0.002981
      dx2y2   :     0.012235
      dxy     :     0.009702

 19 H s       :     0.982800  s :     0.982800
      pz      :     0.004551  p :     0.024312
      px      :     0.004153
      py      :     0.015609

 20 C s       :     3.099782  s :     3.099782
      pz      :     0.957273  p :     2.972734
      px      :     0.987228
      py      :     1.028233
      dz2     :     0.004211  d :     0.044013
      dxz     :     0.007219
      dyz     :     0.006650
      dx2y2   :     0.014198
      dxy     :     0.011734

 21 H s       :     0.974511  s :     0.974511
      pz      :     0.004643  p :     0.024500
      px      :     0.004113
      py      :     0.015745

 22 C s       :     2.924281  s :     2.924281
      pz      :     1.004107  p :     2.924847
      px      :     0.975993
      py      :     0.944748
      dz2     :     0.009903  d :     0.035545
      dxz     :     0.003942
      dyz     :     0.005427
      dx2y2   :     0.009640
      dxy     :     0.006631

 23 C s       :     3.001497  s :     3.001497
      pz      :     1.009040  p :     2.963701
      px      :     0.965792
      py      :     0.988868
      dz2     :     0.009813  d :     0.036419
      dxz     :     0.007287
      dyz     :     0.003207
      dx2y2   :     0.010032
      dxy     :     0.006080

 24 H s       :     0.964239  s :     0.964239
      pz      :     0.004847  p :     0.023240
      px      :     0.013497
      py      :     0.004895

 25 H s       :     0.959197  s :     0.959197
      pz      :     0.014008  p :     0.023313
      px      :     0.004833
      py      :     0.004472

 26 C s       :     2.970221  s :     2.970221
      pz      :     0.969620  p :     2.888036
      px      :     0.976187
      py      :     0.942229
      dz2     :     0.007430  d :     0.035331
      dxz     :     0.006414
      dyz     :     0.005294
      dx2y2   :     0.008399
      dxy     :     0.007795

 27 H s       :     0.964463  s :     0.964463
      pz      :     0.013904  p :     0.022867
      px      :     0.004377
      py      :     0.004586

 28 H s       :     0.962493  s :     0.962493
[...]
 Total          138.044          176.425          190.807  iso=     168.425

 Orientation: 
  X           0.2755793   -0.5721969    0.7724291
  Y          -0.0192331   -0.8066648   -0.5906961
  Z           0.9610859    0.1479274   -0.2333052

 --------------
 Nucleus  39C :
 --------------

Diamagnetic contribution to the shielding tensor (ppm) : 
           266.003          6.196        -7.488
             3.759        271.909         4.369
            -6.475          0.465       257.586

Paramagnetic contribution to the shielding tensor (ppm): 
          -101.260         -7.274         9.639
             6.098       -124.565         4.203
            15.922          3.532      -128.409

Total shielding tensor (ppm): 
           164.744         -1.078         2.151
             9.858        147.345         8.572
             9.447          3.997       129.176


 Diagonalized sT*s matrix:
 
 sDSO           259.245          269.955          266.298  iso=     265.166
 sPSO          -132.519         -122.562          -99.153  iso=    -118.078
        ---------------  ---------------  ---------------
 Total          126.727          147.394          167.144  iso=     147.088

 Orientation: 
  X          -0.1087466   -0.2889633   -0.9511437
  Y          -0.2746172    0.9283156   -0.2506303
  Z           0.9553845    0.2339452   -0.1803055

 --------------
 Nucleus  43C :
 --------------

Diamagnetic contribution to the shielding tensor (ppm) : 
           259.844          1.641        -4.972
            -3.657        258.687         6.391
            -2.334          5.222       240.593

Paramagnetic contribution to the shielding tensor (ppm): 
           -90.317         -9.958        -2.633
             0.043        -97.645        -3.072
            -0.453         -6.423       -91.538

Total shielding tensor (ppm): 
           169.527         -8.317        -7.605
            -3.614        161.042         3.319
            -2.788         -1.200       149.055


 Diagonalized sT*s matrix:
 
 sDSO           240.248          256.914          261.963  iso=     253.041
 sPSO           -92.444          -98.758          -88.298  iso=     -93.167
        ---------------  ---------------  ---------------
 Total          147.804          158.155          173.665  iso=     159.875

 Orientation: 
  X           0.2468820   -0.4197899    0.8733989
  Y           0.0205383   -0.8988289   -0.4378181
  Z           0.9688279    0.1260275   -0.2132829

 --------------
 Nucleus  44C :
 --------------

Diamagnetic contribution to the shielding tensor (ppm) : 
           251.372          1.646         0.941
            -0.263        258.684        -3.545
             0.419          0.617       270.631

Paramagnetic contribution to the shielding tensor (ppm): 
           -72.152         -5.614        -0.831
            -2.849        -79.678         1.462
             0.435         -2.623       -76.886

Total shielding tensor (ppm): 
           179.219         -3.968         0.111
            -3.111        179.006        -2.083
             0.853         -2.005       193.744


 Diagonalized sT*s matrix:
 
 sDSO           255.917          253.986          270.783  iso=     260.229
 sPSO           -80.417          -71.603          -76.696  iso=     -76.239
        ---------------  ---------------  ---------------
 Total          175.500          182.383          194.087  iso=     183.990

 Orientation: 
  X           0.6845563   -0.7257448    0.0683894
  Y           0.7262657    0.6709591   -0.1495063
  Z           0.0626169    0.1520143    0.9863928

 --------------
 Nucleus  49C :
 --------------

Diamagnetic contribution to the shielding tensor (ppm) : 
           244.155         -5.006        -2.888
           -18.417        260.710         0.899
            -4.894          4.668       243.021

Paramagnetic contribution to the shielding tensor (ppm): 
           -75.372          0.019         1.294
            18.020        -75.058         8.235
             6.816          1.769       -72.522

Total shielding tensor (ppm): 
           168.783         -4.986        -1.594
            -0.397        185.652         9.134
             1.922          6.437       170.500


 Diagonalized sT*s matrix:
 
 sDSO           242.754          242.584          262.548  iso=     249.295
 sPSO           -76.251          -73.376          -73.324  iso=     -74.317
        ---------------  ---------------  ---------------
 Total          166.502          169.208          189.224  iso=     174.978

 Orientation: 
  X           0.5071379    0.8548057   -0.1100834
  Y           0.3845391   -0.1101079    0.9165184
  Z          -0.7713241    0.5071325    0.3845461

 --------------
 Nucleus  50C :
 --------------

Diamagnetic contribution to the shielding tensor (ppm) : 
           269.030         11.143         1.953
            15.689        234.587         3.479
            -1.048          5.401       272.816

Paramagnetic contribution to the shielding tensor (ppm): 
          -267.960        -77.238        41.232
           -77.023        -93.476        11.601
            33.530          6.434      -220.989

Total shielding tensor (ppm): 
             1.070        -66.095        43.186
           -61.333        141.111        15.080
            32.482         11.835        51.827


 Diagonalized sT*s matrix:
 
 sDSO           272.753          273.804          229.876  iso=     258.811
 sPSO          -309.822         -208.421          -64.182  iso=    -194.142
        ---------------  ---------------  ---------------
 Total          -37.070           65.383          165.694  iso=      64.669

 Orientation: 
  X          -0.9167458    0.2002164    0.3456741
  Y          -0.3338125    0.0913557   -0.9382022
  Z           0.2194228    0.9754832    0.0169152

 --------------
 Nucleus  51C :
 --------------

Diamagnetic contribution to the shielding tensor (ppm) : 
           269.881         13.641         0.136
            10.959        262.179        -3.270
             4.591         -7.068       284.565

Paramagnetic contribution to the shielding tensor (ppm): 
          -267.216        -82.376        48.074
           -87.225       -125.734        -7.451
            35.527          6.976      -231.383

Total shielding tensor (ppm): 
             2.665        -68.735        48.210
           -76.267        136.444       -10.721
            40.119         -0.092        53.182


 Diagonalized sT*s matrix:
 
 sDSO           278.021          280.756          257.849  iso=     272.208
 sPSO          -321.368         -217.779          -85.186  iso=    -208.111
        ---------------  ---------------  ---------------
 Total          -43.348           62.976          172.663  iso=      64.097

 Orientation: 
  X           0.8835532    0.1601778    0.4400873
  Y           0.3749847    0.3209991   -0.8696816
  Z          -0.2805713    0.9334360    0.2235555

 --------------
 Nucleus  54C :
 --------------

Diamagnetic contribution to the shielding tensor (ppm) : 
           258.577          5.778         0.438
            13.069        236.899         1.061
            -5.639        -12.472       253.750

Paramagnetic contribution to the shielding tensor (ppm): 
          -102.486        -11.936         9.045
           -18.886        -73.250        -7.136
            13.399         12.662       -99.012

Total shielding tensor (ppm): 
           156.091         -6.157         9.483
            -5.817        163.649        -6.075
             7.760          0.190       154.738


 Diagonalized sT*s matrix:
 
 sDSO           261.067          246.114          242.045  iso=     249.742
 sPSO          -114.544          -88.485          -71.719  iso=     -91.583
        ---------------  ---------------  ---------------
 Total          146.523          157.629          170.326  iso=     158.160

 Orientation: 
  X          -0.7093637   -0.4284060    0.5597066
  Y          -0.1207631   -0.7084742   -0.6953277
  Z           0.6944202   -0.5608321    0.4508302

 --------------
 Nucleus  55C :
 --------------

Diamagnetic contribution to the shielding tensor (ppm) : 
           252.888          4.794        -2.901
            26.126        235.339         4.320
           -18.792         -5.510       241.814

Paramagnetic contribution to the shielding tensor (ppm): 
           -73.879         -2.159        -1.609
           -27.699        -55.306       -14.222
            14.824         -3.864       -60.410

Total shielding tensor (ppm): 
           179.010          2.635        -4.510
            -1.573        180.033        -9.902
            -3.968         -9.374       181.404


 Diagonalized sT*s matrix:
 
 sDSO           240.978          238.878          250.185  iso=     243.347
 sPSO           -70.691          -60.094          -58.810  iso=     -63.198
        ---------------  ---------------  ---------------
 Total          170.287          178.784          191.375  iso=     180.149

 Orientation: 
  X           0.2900247    0.9176175   -0.2717791
  Y           0.6661127   -0.3974597   -0.6311257
  Z           0.6871532   -0.0020066    0.7265098

 --------------
 Nucleus  56C :
 --------------

Diamagnetic contribution to the shielding tensor (ppm) : 
           248.175          1.141         5.319
             4.417        232.973        -8.809
            14.504        -10.649       241.344

Paramagnetic contribution to the shielding tensor (ppm): 
           -90.985        -11.000         1.840
           -13.868        -70.223         3.465
            -7.641          7.198       -77.819

Total shielding tensor (ppm): 
           157.190         -9.859         7.160
            -9.451        162.750        -5.345
             6.863         -3.450       163.524


 Diagonalized sT*s matrix:
 
 sDSO           244.559          226.748          251.184  iso=     240.831
 sPSO           -95.397          -67.708          -75.923  iso=     -79.676
        ---------------  ---------------  ---------------
 Total          149.162          159.040          175.262  iso=     161.155

 Orientation: 
  X           0.8262634   -0.1297728    0.5481312
  Y           0.5051822    0.6011565   -0.6191945
  Z          -0.2491580    0.7885239    0.5622725

 --------------
 Nucleus  59C :
 --------------

Diamagnetic contribution to the shielding tensor (ppm) : 
           239.565          2.042        -9.562
            -6.024        238.030       -12.792
            14.378         -8.631       263.107

Paramagnetic contribution to the shielding tensor (ppm): 
           -62.709          5.584         4.032
            11.329        -65.905         3.262
           -25.020         -3.803       -84.834

Total shielding tensor (ppm): 
           176.856          7.626        -5.530
             5.305        172.125        -9.530
           -10.642        -12.434       178.274


 Diagonalized sT*s matrix:
 
 sDSO           236.683          249.957          254.062  iso=     246.901
 sPSO           -72.896          -79.659          -60.893  iso=     -71.149
        ---------------  ---------------  ---------------
 Total          163.788          170.298          193.169  iso=     175.752

 Orientation: 
  X          -0.0398387    0.8412750   -0.5391375
  Y           0.8030040   -0.2941470   -0.5183263
  Z           0.5946407    0.4535790    0.6638287

 --------------
 Nucleus  60C :
 --------------

Diamagnetic contribution to the shielding tensor (ppm) : 
           248.689          3.784        13.428
             5.471        218.059         9.389
            15.000         -0.273       225.117

Paramagnetic contribution to the shielding tensor (ppm): 
           -63.144          4.271        -4.118
             4.967        -47.006        -9.001
            -0.069          3.087       -56.050

Total shielding tensor (ppm): 
           185.545          8.055         9.309
            10.439        171.053         0.388
            14.932          2.814       169.067


 Diagonalized sT*s matrix:
 
 sDSO           220.006          216.996          254.863  iso=     230.622
 sPSO           -58.563          -48.053          -59.584  iso=     -55.400
        ---------------  ---------------  ---------------
 Total          161.443          168.943          195.279  iso=     175.222

 Orientation: 
  X           0.5207596    0.1085946    0.8467684
  Y          -0.3866419   -0.8543177    0.3473461
  Z          -0.7611291    0.5082799    0.4029069



--------------------------------
CHEMICAL SHIELDING SUMMARY (ppm)
--------------------------------


  Nucleus  Element    Isotropic     Anisotropy
  -------  -------  ------------   ------------
      0       C           59.565        148.020 
      1       C          151.174         29.979 
      2       C          128.861         55.133 
      5       C           51.480        179.238 
      6       C          165.032         23.056 
      7       C          161.642         22.544 
     14       C           74.787        128.385 
     15       C           83.087        121.038 
     18       C           79.378        134.082 
     20       C           52.350        175.126 
     22       C          169.318          8.653 
     23       C          174.545         12.460 
     26       C          158.585         24.293 
     29       C          154.417         17.141 
     32       C          143.126         27.864 
     34       C          174.354         22.799 
     36       C          168.425         33.573 
     39       C          147.088         30.084 
     43       C          159.875         20.685 
     44       C          183.990         15.146 
     49       C          174.978         21.368 
     50       C           64.669        151.537 
     51       C           64.097        162.849 
     54       C          158.160         18.250 
     55       C          180.149         16.840 
     56       C          161.155         21.161 
     59       C          175.752         26.126 
     60       C          175.222         30.087 


NMR shielding tensor and spin rotation calculation done in   1.0 sec 

Maximum memory used throughout the entire PROP-calculation: 51.8 MB

--------------------------------
SUGGESTED CITATIONS FOR THIS RUN
--------------------------------

Below you find a list of papers that are relevant to this ORCA run
We neither can nor want to force you to cite these papers, but we appreciate if you do
You receive ORCA, which is the product of decades of hard work by many enthusiastic individuals, for free
The only thing we kindly ask in return is that you cite our papers,
We deeply appreciate it, if you show your appreciation for ORCA by not just citing the generic ORCA reference.

Please note that relegating all ORCA citations to the supporting information does *not* help us.
SI sections are not indexed - citations you put there will not count into any citation statistics
But we need these citations in order to attract the funding resources that allow us to do what we are doing

Therefore, if you are a happy ORCA user, please consider citing a few of the papers listed below in the main body of your paper

In addition to the list printed below, the program has created the file inpS.bibtex that contains the list in bibtex format
You can import this file easily into all common literature databanks and citation aid programs


List of essential papers. We consider these as the minimum necessary citations

  1. Neese,F.
     Software update: the ORCA program system, version 5.0
     WIRES Comput. Molec. Sci., 2022 12(1)e1606
     doi.org/10.1002/wcms.1606

List of papers to cite with high priority. The work reported in these papers was absolutely
necessary for this run to complete.
Our perspective: the developers of density functionals and basis sets usually get cited in chemistry papers
Good! But without the algorithms to do something with them, the functionals or basis sets would not do anything.
Hence, in our opinion, the algorithm design and method developments papers are equally worthy of getting cited

  1. Neese,F.
     An improvement of the resolution of the identity approximation for the formation of the Coulomb matrix
     J. Comp. Chem., 2003 24(14)1740-1747
     doi.org/10.1002/jcc.10318
  2. Neese,F.; Wennmohs,F.; Hansen,A.; Becker,U.
     Efficient, approximate and parallel Hartree-Fock and hybrid DFT calculations. A 'chain-of-spheres' algorithm for the Hartree-Fock exchange
     Chem. Phys., 2009 356(1-3)98-109
     doi.org/10.1016/j.chemphys.2008.10.036
  3. Stoychev,G.L.; Auer,A.A.; Izsak,R.; Neese,F.
     Self-Consistent Field Calculation of Nuclear Magnetic Resonance Chemical Shielding Constants Using Gauge-Including Atomic Orbitals and Approximate Two-Electron Integrals
     J. Chem. Theory Comput., 2018 14(2)619-637
     doi.org/10.1021/acs.jctc.7b01006
  4. Garcia-Rates,M.; Neese,F.
     Effect of the Solute Cavity on the Solvation Energy and its Derivatives within the Framework of the Gaussian Charge Scheme
     J. Comput. Chem., 2020 41 922-939
     doi.org/10.1002/jcc.26139
  5. Helmich-Paris,B.; de Souza,B.; Neese,F.; Izsák,R.
     An improved chain of spheres for exchange algorithm
     J. Chem. Phys., 2021 155 104109
     doi.org/doi: 10.1063/5.0058766.
  6. Neese,F.
     The SHARK Integral Generation and Digestion System
     J. Comp. Chem., 2022  1-16
     doi.org/10.1002/jcc.26942
  7. Caldeweyher,E.; Bannwarth,C.; Grimme,S.
     Extension of the D3 dispersion coefficient model
     J. Chem. Phys., 2017 147 034112-XXXX
     doi.org/10.1063/1.4993215
  8. Caldeweyher,E.; Ehlert,S.; Hansen,A.; Neugebauer,H.; Spicher,S.; Bannwarth,C.; Grimme,S.
     A generally applicable atomic-charge dependent London dispersion correction
     J. Chem. Phys., 2019 150 154122-XXXX
     doi.org/10.1063/1.5090222
  9. Caldeweyher,E.; Mewes,J.; Ehlert,S.; Grimme,S.
     Extension and evaluation of the D4 London-dispersion model for periodic systems
     Phys. Chem. Chem. Phys., 2020 22(16)8499-8512
     doi.org/10.1039/D0CP00502A

List of suggested additional citations. These are papers that are important in the 'surrounding' of 
of this run, or papers that preceded the highly important papers. If you like your results we are grateful for a citation.

  1. Izsak,R.; Neese,F.
     An overlap fitted chain of spheres exchange method
     J. Chem. Phys., 2011 135 144105
     doi.org/10.1063/1.3646921
  2. Izsak,R.; Hansen,A.; Neese,F.
     The resolution of identity and chain of spheres approximations for the LPNO-CCSD singles Fock term
     Molec. Phys., 2012 110 2413-2417
     doi.org/10.1080/00268976.2012.687466
  3. Neese,F.
     The ORCA program system
     WIRES Comput. Molec. Sci., 2012 2(1)73-78
     doi.org/10.1002/wcms.81
  4. Izsak,R.; Neese,F.; Klopper,W.
     Robust fitting techniques in the chain of spheres approximation to the Fock exchange: The role of the complementary space
     J. Chem. Phys., 2013 139 
     doi.org/10.1063/1.4819264
  5. Neese,F.
     Software update: the ORCA program system, version 4.0
     WIRES Comput. Molec. Sci., 2018 8(1)1-6
     doi.org/10.1002/wcms.1327
  6. Neese,F.; Wennmohs,F.; Becker,U.; Riplinger,C.
     The ORCA quantum chemistry program package
     J. Chem. Phys., 2020 152 Art. No. L224108
     doi.org/10.1063/5.0004608

Timings for individual modules:

Sum of individual times          ...      306.638 sec (=   5.111 min)
Startup calculation              ...        4.649 sec (=   0.077 min)   1.5 %
SCF iterations                   ...      201.737 sec (=   3.362 min)  65.8 %
Property integrals               ...       60.290 sec (=   1.005 min)  19.7 %
SCF Response                     ...       38.615 sec (=   0.644 min)  12.6 %
Property calculations            ...        1.348 sec (=   0.022 min)   0.4 %
                             ****ORCA TERMINATED NORMALLY****
TOTAL RUN TIME: 0 days 0 hours 5 minutes 6 seconds 934 msec
