14
	Energy:     -11.0677063
C         -2.12729        0.42290       -0.11617
C         -0.69449        0.73345        0.19146
H         -2.60784       -0.02861        0.75588
H         -2.18228       -0.24993       -0.97515
H         -2.65614        1.35083       -0.35182
O         -0.15423        1.80520       -0.04320
O         -0.08770       -0.35552        0.73762
C          1.29562       -0.15828        1.05395
C          1.82777       -1.43748        1.67001
H          1.39862        0.66649        1.76807
H          1.85388        0.07244        0.13974
H          1.26523       -1.69287        2.57414
H          2.88529       -1.33531        1.92904
H          1.71295       -2.27660        0.97591
