
                                 *****************
                                 * O   R   C   A *
                                 *****************

                                            #,                                       
                                            ###                                      
                                            ####                                     
                                            #####                                    
                                            ######                                   
                                           ########,                                 
                                     ,,################,,,,,                         
                               ,,#################################,,                 
                          ,,##########################################,,             
                       ,#########################################, ''#####,          
                    ,#############################################,,   '####,        
                  ,##################################################,,,,####,       
                ,###########''''           ''''###############################       
              ,#####''   ,,,,##########,,,,          '''####'''          '####       
            ,##' ,,,,###########################,,,                        '##       
           ' ,,###''''                  '''############,,,                           
         ,,##''                                '''############,,,,        ,,,,,,###''
      ,#''                                            '''#######################'''  
     '                                                          ''''####''''         
             ,#######,   #######,   ,#######,      ##                                
            ,#'     '#,  ##    ##  ,#'     '#,    #''#        ######   ,####,        
            ##       ##  ##   ,#'  ##            #'  '#       #        #'  '#        
            ##       ##  #######   ##           ,######,      #####,   #    #        
            '#,     ,#'  ##    ##  '#,     ,#' ,#      #,         ##   #,  ,#        
             '#######'   ##     ##  '#######'  #'      '#     #####' # '####'        



                  #######################################################
                  #                        -***-                        #
                  #          Department of theory and spectroscopy      #
                  #    Directorship and core code : Frank Neese         #
                  #        Max Planck Institute fuer Kohlenforschung    #
                  #                Kaiser Wilhelm Platz 1               #
                  #                 D-45470 Muelheim/Ruhr               #
                  #                      Germany                        #
                  #                                                     #
                  #                  All rights reserved                #
                  #                        -***-                        #
                  #######################################################


                         Program Version 5.0.2 -  RELEASE  -


 With contributions from (in alphabetic order):
   Daniel Aravena         : Magnetic Suceptibility
   Michael Atanasov       : Ab Initio Ligand Field Theory (pilot matlab implementation)
   Alexander A. Auer      : GIAO ZORA, VPT2 properties, NMR spectrum
   Ute Becker             : Parallelization
   Giovanni Bistoni       : ED, misc. LED, open-shell LED, HFLD
   Martin Brehm           : Molecular dynamics
   Dmytro Bykov           : SCF Hessian
   Vijay G. Chilkuri      : MRCI spin determinant printing, contributions to CSF-ICE
   Dipayan Datta          : RHF DLPNO-CCSD density
   Achintya Kumar Dutta   : EOM-CC, STEOM-CC
   Dmitry Ganyushin       : Spin-Orbit,Spin-Spin,Magnetic field MRCI
   Miquel Garcia          : C-PCM and meta-GGA Hessian, CC/C-PCM, Gaussian charge scheme
   Yang Guo               : DLPNO-NEVPT2, F12-NEVPT2, CIM, IAO-localization
   Andreas Hansen         : Spin unrestricted coupled pair/coupled cluster methods
   Benjamin Helmich-Paris : MC-RPA, TRAH-SCF, COSX integrals
   Lee Huntington         : MR-EOM, pCC
   Robert Izsak           : Overlap fitted RIJCOSX, COSX-SCS-MP3, EOM
   Marcus Kettner         : VPT2
   Christian Kollmar      : KDIIS, OOCD, Brueckner-CCSD(T), CCSD density, CASPT2, CASPT2-K
   Simone Kossmann        : Meta GGA functionals, TD-DFT gradient, OOMP2, MP2 Hessian
   Martin Krupicka        : Initial AUTO-CI
   Lucas Lang             : DCDCAS
   Marvin Lechner         : AUTO-CI (C++ implementation), FIC-MRCC
   Dagmar Lenk            : GEPOL surface, SMD
   Dimitrios Liakos       : Extrapolation schemes; Compound Job, initial MDCI parallelization
   Dimitrios Manganas     : Further ROCIS development; embedding schemes
   Dimitrios Pantazis     : SARC Basis sets
   Anastasios Papadopoulos: AUTO-CI, single reference methods and gradients
   Taras Petrenko         : DFT Hessian,TD-DFT gradient, ASA, ECA, R-Raman, ABS, FL, XAS/XES, NRVS
   Peter Pinski           : DLPNO-MP2, DLPNO-MP2 Gradient
   Christoph Reimann      : Effective Core Potentials
   Marius Retegan         : Local ZFS, SOC
   Christoph Riplinger    : Optimizer, TS searches, QM/MM, DLPNO-CCSD(T), (RO)-DLPNO pert. Triples
   Tobias Risthaus        : Range-separated hybrids, TD-DFT gradient, RPA, STAB
   Michael Roemelt        : Original ROCIS implementation
   Masaaki Saitow         : Open-shell DLPNO-CCSD energy and density
   Barbara Sandhoefer     : DKH picture change effects
   Avijit Sen             : IP-ROCIS
   Kantharuban Sivalingam : CASSCF convergence, NEVPT2, FIC-MRCI
   Bernardo de Souza      : ESD, SOC TD-DFT
   Georgi Stoychev        : AutoAux, RI-MP2 NMR, DLPNO-MP2 response
   Willem Van den Heuvel  : Paramagnetic NMR
   Boris Wezisla          : Elementary symmetry handling
   Frank Wennmohs         : Technical directorship


 We gratefully acknowledge several colleagues who have allowed us to
 interface, adapt or use parts of their codes:
   Stefan Grimme, W. Hujo, H. Kruse, P. Pracht,  : VdW corrections, initial TS optimization,
                  C. Bannwarth, S. Ehlert          DFT functionals, gCP, sTDA/sTD-DF
   Ed Valeev, F. Pavosevic, A. Kumar             : LibInt (2-el integral package), F12 methods
   Garnet Chan, S. Sharma, J. Yang, R. Olivares  : DMRG
   Ulf Ekstrom                                   : XCFun DFT Library
   Mihaly Kallay                                 : mrcc  (arbitrary order and MRCC methods)
   Jiri Pittner, Ondrej Demel                    : Mk-CCSD
   Frank Weinhold                                : gennbo (NPA and NBO analysis)
   Christopher J. Cramer and Donald G. Truhlar   : smd solvation model
   Lars Goerigk                                  : TD-DFT with DH, B97 family of functionals
   V. Asgeirsson, H. Jonsson                     : NEB implementation
   FAccTs GmbH                                   : IRC, NEB, NEB-TS, DLPNO-Multilevel, CI-OPT
                                                   MM, QMMM, 2- and 3-layer-ONIOM, Crystal-QMMM,
                                                   LR-CPCM, SF, NACMEs, symmetry and pop. for TD-DFT,
                                                   nearIR, NL-DFT gradient (VV10), updates on ESD,
                                                   ML-optimized integration grids
   S Lehtola, MJT Oliveira, MAL Marques          : LibXC Library
   Liviu Ungur et al                             : ANISO software


 Your calculation uses the libint2 library for the computation of 2-el integrals
 For citations please refer to: http://libint.valeyev.net

 Your ORCA version has been built with support for libXC version: 5.1.0
 For citations please refer to: https://tddft.org/programs/libxc/

 This ORCA versions uses:
   CBLAS   interface :  Fast vector & matrix operations
   LAPACKE interface :  Fast linear algebra routines
   SCALAPACK package :  Parallel linear algebra routines
   Shared memory     :  Shared parallel matrices
   BLAS/LAPACK       :  OpenBLAS 0.3.15  USE64BITINT DYNAMIC_ARCH NO_AFFINITY Zen SINGLE_THREADED
        Core in use  :  Zen
   Copyright (c) 2011-2014, The OpenBLAS Project


Your calculation utilizes the atom-pairwise dispersion correction
based on tight binding partial charges (D4)
Cite in your paper:
E.Caldeweyher, C.Bannwarth, S.Grimme, J.Chem.Phys., (2017), 147, 034112.
E.Caldeweyher, S.Ehlert, A.Hansen, H.Neugebauer, S.Grimme, J.Chem.Phys., (2018), in progress.
   

================================================================================

----- Orbital basis set information -----
Your calculation utilizes the basis: pcSseg-1
   F. Jensen, J. Chem. Theory Comput. 11, 132 (2015).

----- AuxJ basis set information -----
Your calculation utilizes the auxiliary basis: def2/J
   F. Weigend, Phys. Chem. Chem. Phys. 8, 1057 (2006).

================================================================================
                                        WARNINGS
                       Please study these warnings very carefully!
================================================================================



WARNING: Found flag for RIJCOSX approximation but no HF exchange needed!
  ===> : RIJCOSX  will be disabled and Split-RI-J is turned on

INFO   : the flag for use of the SHARK integral package has been found!

================================================================================
                                       INPUT FILE
================================================================================
NAME = inpS
|  1> ! revTPSS
|  2> ! D4
|  3> ! pcSseg-1
|  4> ! def2/J RIJCOSX
|  5> ! DEFGRID2
|  6> ! scfconv7
|  7> ! smallprint printgap noloewdin
|  8> ! NOSOSCF
|  9> %MaxCore 4000
| 10> %output
| 11>        print[P_BondOrder_M] 1
| 12>        print[P_Mayer] 1
| 13>        print[P_basis] 2
| 14> end
| 15> %pal
| 16>     nprocs 4
| 17> end
| 18> ! CPCM(chloroform)
| 19> *xyz 0 1
| 20> C   -5.1587378800   0.1551366700  -0.7021546900
| 21> C   -6.5848268800  -0.2961683800  -0.9089598300
| 22> C   -7.5540069100   0.6427075300  -0.1790760800
| 23> H   -6.7220044700  -1.3248794500  -0.5569754500
| 24> H   -6.8331958500  -0.2680874700  -1.9802930900
| 25> C   -4.9179699700   1.5667794200  -1.0763056700
| 26> C   -5.9027981200   2.5468520900  -0.4786230800
| 27> C   -7.3553263100   2.0820378300  -0.6561276200
| 28> H   -5.7599428400   3.5411983700  -0.9148268100
| 29> H   -5.6911128800   2.6355816900   0.5979252500
| 30> H   -7.6308085600   2.1342619600  -1.7183392200
| 31> H   -8.0326689300   2.7464781700  -0.1072069900
| 32> O   -7.3955059900   0.5277749800   1.2448409500
| 33> H   -8.5863901100   0.3304516600  -0.3797259900
| 34> C   -4.2336140600  -0.6668072800  -0.1519189300
| 35> C   -3.9400466300   1.9470562200  -1.9053933800
| 36> H   -3.2532375800   1.2247078700  -2.3383326700
| 37> H   -3.8111634900   2.9921928800  -2.1768736200
| 38> C   -2.8745269100  -0.3112678400   0.1849002900
| 39> H   -4.5644320100  -1.6782406300   0.0811958400
| 40> C   -1.9180088600  -1.1412484300   0.6528598000
| 41> H   -2.6145542800   0.7366741600   0.0537382100
| 42> C   -2.0726193900  -2.6227170800   0.8840374800
| 43> C   -0.9815169000  -3.4307056000   0.1547045200
| 44> H   -3.0605881700  -2.9880268200   0.5908671400
| 45> H   -1.9686978000  -2.8080024700   1.9651554900
| 46> C    0.4325852200  -2.9093764500   0.4436551100
| 47> H   -1.1748638800  -3.4001079400  -0.9250520400
| 48> H   -1.0538441800  -4.4834763900   0.4540244700
| 49> C    0.5594012800  -1.4091501200   0.1462592700
| 50> H    1.1532347400  -3.4938860100  -0.1376833700
| 51> H    0.6696088100  -3.0726358700   1.5058439400
| 52> C   -0.5342349500  -0.6727209800   0.9831693200
| 53> H   -0.3401241400  -0.9822719600   2.0270923600
| 54> C   -0.1527338700   0.7984226600   0.8686217400
| 55> H   -6.4467156300   0.4866036800   1.4315759900
| 56> C    1.3941800800   0.7693909600   0.9130882300
| 57> H   -0.5884224400   1.4044560400   1.6699751900
| 58> H   -0.5046065600   1.2166092700  -0.0811335100
| 59> C    1.8354732500  -0.7130346300   0.7009130200
| 60> H    1.7664945000   1.1538087600   1.8665434400
| 61> H    1.8267750900   1.4068191600   0.1329394300
| 62> H    2.0252273500  -1.1720921000   1.6841348200
| 63> C    3.1255064700  -0.8123298200  -0.1244294600
| 64> C    0.3763674800  -1.1261800100  -1.3518357700
| 65> H    0.5977218900  -0.0827830100  -1.5975948600
| 66> H   -0.6515976200  -1.3245500500  -1.6708038600
| 67> H    1.0417886200  -1.7563503700  -1.9514403700
| 68> H    2.9370207400  -0.3148157100  -1.0890298500
| 69> C    3.5683557500  -2.2549265200  -0.4318343000
| 70> C    4.3074376900  -0.1065650300   0.5050976000
| 71> C    4.4766850900   0.1853309800   1.7948304100
| 72> H    5.1172945700   0.1056548800  -0.1944841300
| 73> H    3.6711541800  -0.0372157600   2.4936795400
| 74> C    5.6966605600   0.8090907000   2.4212600100
| 75> C    6.7363957500   1.2942721700   1.4125621800
| 76> C    6.3311398600  -0.1224835000   3.4949925200
| 77> H    5.3431513100   1.6919135800   2.9807417900
| 78> H    7.1751731400   0.4431269700   3.9185136100
| 79> C    6.8800717000  -1.4228229000   2.9041633800
| 80> C    5.3590723000  -0.4287598700   4.6380702300
| 81> H    7.1198026800   0.4762683700   0.7943708300
| 82> H    7.5866403100   1.7451061000   1.9357268500
| 83> H    6.3103300600   2.0468414900   0.7407154800
| 84> H    7.6574324200  -1.2411761500   2.1554662900
| 85> H    6.0779793800  -1.9985387200   2.4264905000
| 86> H    7.3171963900  -2.0446421200   3.6934087900
| 87> H    4.8955993700   0.4857074400   5.0265081800
| 88> H    5.8834794200  -0.9208525100   5.4644436300
| 89> H    4.5587774000  -1.1025291400   4.3109669900
| 90> H    2.8783125800  -2.7617770300  -1.1111200600
| 91> H    3.6379465600  -2.8372385700   0.4947044000
| 92> H    4.5586176000  -2.2566548300  -0.9012025700
| 93> *
| 94> %eprnmr
| 95>  Nuclei = all H { shift }
| 96>  origin giao
| 97>  giao_2el giao_2el_same_as_scf
| 98>  giao_1el giao_1el_analytic
| 99> end
|100> 
|101>                          ****END OF INPUT****
================================================================================

                       ****************************
                       * Single Point Calculation *
                       ****************************

---------------------------------
CARTESIAN COORDINATES (ANGSTROEM)
---------------------------------
  C     -5.158738    0.155137   -0.702155
  C     -6.584827   -0.296168   -0.908960
  C     -7.554007    0.642708   -0.179076
  H     -6.722004   -1.324879   -0.556975
  H     -6.833196   -0.268087   -1.980293
  C     -4.917970    1.566779   -1.076306
  C     -5.902798    2.546852   -0.478623
  C     -7.355326    2.082038   -0.656128
  H     -5.759943    3.541198   -0.914827
  H     -5.691113    2.635582    0.597925
  H     -7.630809    2.134262   -1.718339
  H     -8.032669    2.746478   -0.107207
  O     -7.395506    0.527775    1.244841
  H     -8.586390    0.330452   -0.379726
  C     -4.233614   -0.666807   -0.151919
  C     -3.940047    1.947056   -1.905393
  H     -3.253238    1.224708   -2.338333
  H     -3.811163    2.992193   -2.176874
  C     -2.874527   -0.311268    0.184900
  H     -4.564432   -1.678241    0.081196
  C     -1.918009   -1.141248    0.652860
  H     -2.614554    0.736674    0.053738
  C     -2.072619   -2.622717    0.884037
  C     -0.981517   -3.430706    0.154705
  H     -3.060588   -2.988027    0.590867
  H     -1.968698   -2.808002    1.965155
  C      0.432585   -2.909376    0.443655
  H     -1.174864   -3.400108   -0.925052
  H     -1.053844   -4.483476    0.454024
  C      0.559401   -1.409150    0.146259
  H      1.153235   -3.493886   -0.137683
  H      0.669609   -3.072636    1.505844
  C     -0.534235   -0.672721    0.983169
  H     -0.340124   -0.982272    2.027092
  C     -0.152734    0.798423    0.868622
  H     -6.446716    0.486604    1.431576
  C      1.394180    0.769391    0.913088
  H     -0.588422    1.404456    1.669975
  H     -0.504607    1.216609   -0.081134
  C      1.835473   -0.713035    0.700913
  H      1.766494    1.153809    1.866543
  H      1.826775    1.406819    0.132939
  H      2.025227   -1.172092    1.684135
  C      3.125506   -0.812330   -0.124429
  C      0.376367   -1.126180   -1.351836
  H      0.597722   -0.082783   -1.597595
  H     -0.651598   -1.324550   -1.670804
  H      1.041789   -1.756350   -1.951440
  H      2.937021   -0.314816   -1.089030
  C      3.568356   -2.254927   -0.431834
  C      4.307438   -0.106565    0.505098
  C      4.476685    0.185331    1.794830
  H      5.117295    0.105655   -0.194484
  H      3.671154   -0.037216    2.493680
  C      5.696661    0.809091    2.421260
  C      6.736396    1.294272    1.412562
  C      6.331140   -0.122483    3.494993
  H      5.343151    1.691914    2.980742
  H      7.175173    0.443127    3.918514
  C      6.880072   -1.422823    2.904163
  C      5.359072   -0.428760    4.638070
  H      7.119803    0.476268    0.794371
  H      7.586640    1.745106    1.935727
  H      6.310330    2.046841    0.740715
  H      7.657432   -1.241176    2.155466
  H      6.077979   -1.998539    2.426490
  H      7.317196   -2.044642    3.693409
  H      4.895599    0.485707    5.026508
  H      5.883479   -0.920853    5.464444
  H      4.558777   -1.102529    4.310967
  H      2.878313   -2.761777   -1.111120
  H      3.637947   -2.837239    0.494704
  H      4.558618   -2.256655   -0.901203

----------------------------
CARTESIAN COORDINATES (A.U.)
----------------------------
  NO LB      ZA    FRAG     MASS         X           Y           Z
   0 C     6.0000    0    12.011   -9.748602    0.293166   -1.326880
   1 C     6.0000    0    12.011  -12.443519   -0.559677   -1.717685
   2 C     6.0000    0    12.011  -14.275004    1.214541   -0.338405
   3 H     1.0000    0     1.008  -12.702748   -2.503659   -1.052531
   4 H     1.0000    0     1.008  -12.912869   -0.506612   -3.742212
   5 C     6.0000    0    12.011   -9.293616    2.960784   -2.033923
   6 C     6.0000    0    12.011  -11.154672    4.812853   -0.904467
   7 C     6.0000    0    12.011  -13.899552    3.934481   -1.239902
   8 H     1.0000    0     1.008  -10.884715    6.691895   -1.728772
   9 H     1.0000    0     1.008  -10.754645    4.980528    1.129915
  10 H     1.0000    0     1.008  -14.420138    4.033171   -3.247191
  11 H     1.0000    0     1.008  -15.179544    5.190092   -0.202592
  12 O     8.0000    0    15.999  -13.975481    0.997350    2.352408
  13 H     1.0000    0     1.008  -16.225926    0.624463   -0.717578
  14 C     6.0000    0    12.011   -8.000371   -1.260083   -0.287085
  15 C     6.0000    0    12.011   -7.445609    3.679403   -3.600672
  16 H     1.0000    0     1.008   -6.147728    2.314362   -4.418808
  17 H     1.0000    0     1.008   -7.202055    5.654425   -4.113695
  18 C     6.0000    0    12.011   -5.432069   -0.588211    0.349411
  19 H     1.0000    0     1.008   -8.625526   -3.171415    0.153438
  20 C     6.0000    0    12.011   -3.624511   -2.156647    1.233726
  21 H     1.0000    0     1.008   -4.940792    1.392112    0.101550
  22 C     6.0000    0    12.011   -3.916683   -4.956217    1.670589
  23 C     6.0000    0    12.011   -1.854798   -6.483094    0.292349
  24 H     1.0000    0     1.008   -5.783673   -5.646552    1.116577
  25 H     1.0000    0     1.008   -3.720300   -5.306356    3.713606
  26 C     6.0000    0    12.011    0.817468   -5.497925    0.838387
  27 H     1.0000    0     1.008   -2.220171   -6.425273   -1.748095
  28 H     1.0000    0     1.008   -1.991477   -8.472543    0.857982
  29 C     6.0000    0    12.011    1.057115   -2.662908    0.276390
  30 H     1.0000    0     1.008    2.179298   -6.602488   -0.260184
  31 H     1.0000    0     1.008    1.265377   -5.806440    2.845633
  32 C     6.0000    0    12.011   -1.009558   -1.271258    1.857921
  33 H     1.0000    0     1.008   -0.642741   -1.856225    3.830649
  34 C     6.0000    0    12.011   -0.288625    1.508800    1.641457
  35 H     1.0000    0     1.008  -12.182527    0.919548    2.705287
  36 C     6.0000    0    12.011    2.634619    1.453938    1.725487
  37 H     1.0000    0     1.008   -1.111957    2.654037    3.155796
  38 H     1.0000    0     1.008   -0.953568    2.299058   -0.153320
  39 C     6.0000    0    12.011    3.468542   -1.347440    1.324534
  40 H     1.0000    0     1.008    3.338191    2.180383    3.527256
  41 H     1.0000    0     1.008    3.452105    2.658503    0.251219
  42 H     1.0000    0     1.008    3.827125   -2.214933    3.182554
  43 C     6.0000    0    12.011    5.906351   -1.535081   -0.235138
  44 C     6.0000    0    12.011    0.711231   -2.128172   -2.554599
  45 H     1.0000    0     1.008    1.129531   -0.156437   -3.019017
  46 H     1.0000    0     1.008   -1.231341   -2.503037   -3.157362
  47 H     1.0000    0     1.008    1.968695   -3.319021   -3.687688
  48 H     1.0000    0     1.008    5.550165   -0.594915   -2.057968
  49 C     6.0000    0    12.011    6.743215   -4.261194   -0.816049
  50 C     6.0000    0    12.011    8.139878   -0.201379    0.954496
  51 C     6.0000    0    12.011    8.459709    0.350225    3.391738
  52 H     1.0000    0     1.008    9.670285    0.199659   -0.367522
  53 H     1.0000    0     1.008    6.937476   -0.070328    4.712371
  54 C     6.0000    0    12.011   10.765128    1.528960    4.575518
  55 C     6.0000    0    12.011   12.729943    2.445820    2.669356
  56 C     6.0000    0    12.011   11.964120   -0.231460    6.604579
  57 H     1.0000    0     1.008   10.097093    3.197253    5.632786
  58 H     1.0000    0     1.008   13.559112    0.837389    7.404918
  59 C     6.0000    0    12.011   13.001451   -2.688746    5.488073
  60 C     6.0000    0    12.011   10.127179   -0.810239    8.764683
  61 H     1.0000    0     1.008   13.454477    0.900017    1.501143
  62 H     1.0000    0     1.008   14.336672    3.297773    3.657994
  63 H     1.0000    0     1.008   11.924796    3.867970    1.399749
  64 H     1.0000    0     1.008   14.470450   -2.345483    4.073241
  65 H     1.0000    0     1.008   11.485716   -3.776691    4.585403
  66 H     1.0000    0     1.008   13.827497   -3.863814    6.979531
  67 H     1.0000    0     1.008    9.251342    0.917854    9.498724
  68 H     1.0000    0     1.008   11.118165   -1.740159   10.326302
  69 H     1.0000    0     1.008    8.614841   -2.083478    8.146547
  70 H     1.0000    0     1.008    5.439223   -5.219002   -2.099713
  71 H     1.0000    0     1.008    6.874723   -5.361604    0.934856
  72 H     1.0000    0     1.008    8.614539   -4.264460   -1.703026

--------------------------------
INTERNAL COORDINATES (ANGSTROEM)
--------------------------------
 C      0   0   0     0.000000000000     0.00000000     0.00000000
 C      1   0   0     1.510024652119     0.00000000     0.00000000
 C      2   1   0     1.534121309885   110.39961525     0.00000000
 H      2   1   3     1.095881909926   110.78013736   237.85461568
 H      2   1   3     1.100104829890   109.81370824   118.68254746
 C      1   2   3     1.480099116934   113.83204246   305.79780455
 C      6   1   2     1.512499058480   114.34319523    50.17939134
 C      3   2   1     1.529288679462   110.21285670    56.79363011
 H      7   6   1     1.095173890138   110.24288159   188.59297834
 H      7   6   1     1.100745151966   108.26968370    71.93471766
 H      8   3   2     1.098595154274   108.28690557    64.69093517
 H      8   3   2     1.096169625709   109.51198183   181.61265198
 O      3   2   1     1.437314071807   110.65427236   292.72966622
 H      3   2   1     1.097077566253   109.46861608   177.23278090
 C      1   2   3     1.354328368918   121.29017979   122.35411746
 C      6   1   2     1.337284911456   123.15406571   232.16629388
 H     16   6   1     1.086706141850   121.34223814   358.95782962
 H     16   6   1     1.087484722910   120.97941096   178.38163388
 C     15   1   2     1.444636065468   126.01490462   184.99725699
 H     15   1   2     1.089394526114   116.29375067     3.06246648
 C     19  15   1     1.350103945166   126.58668331   184.59067325
 H     19  15   1     1.087645022488   115.71395813     5.35160297
 C     21  19  15     1.507347636297   125.78094284     1.69312260
 C     23  21  19     1.541193258056   111.71975981   126.04455907
 H     23  21  19     1.093381161649   112.32957748     2.22771204
 H     23  21  19     1.101792414279   107.82404446   244.59451891
 C     24  23  21     1.534588326519   112.65420798    50.78203495
 H     24  23  21     1.097357507987   109.04315341   288.66103332
 H     24  23  21     1.096881946327   109.10868595   172.73858303
 C     27  24  23     1.534667924975   111.82378374   306.15870354
 H     27  24  23     1.094961910176   108.97528940   182.58753352
 H     27  24  23     1.100490313911   109.25727110    66.05901068
 C     21  19  15     1.497815938092   122.59331925   180.43176973
 H     33  21  19     1.106018141452   106.42379386   125.67045183
 C     33  21  19     1.524115425956   121.10530722     3.00898051
 H     13   3   2     0.967867862023   107.61622208    42.23775991
 C     35  33  21     1.547825208815   103.29111292   194.96667044
 H     35  33  21     1.095111108304   112.30787812    73.18320353
 H     35  33  21     1.095778018421   110.67907324   313.44600273
 C     30  27  24     1.555820436434   115.85380519   166.64090159
 H     37  35  33     1.093376380654   111.02498439   252.27404050
 H     37  35  33     1.096396508100   111.28343525   134.00242484
 H     40  30  27     1.101574095204   105.84456800   322.32072872
 C     40  30  27     1.534677638057   117.95450941    83.20942097
 C     30  27  24     1.535533198589   111.06066011   294.88378566
 H     45  30  27     1.094565029933   111.75345897   187.71535658
 H     45  30  27     1.094442123653   111.27809777    67.78817408
 H     45  30  27     1.095182931077   110.83539301   307.75347029
 H     44  40  30     1.101590247075   107.32961720    62.44569029
 C     44  40  30     1.540031966974   114.18442088   303.64708851
 C     44  40  30     1.513727078071   113.73550501   180.21085038
 C     51  44  40     1.333138659049   127.12463124    23.23704767
 H     51  44  40     1.091017897760   113.80418762   198.60622247
 H     52  51  44     1.089402223677   118.81673094   355.81599468
 C     52  51  44     1.506595625725   126.56302867   175.78199584
 C     55  52  51     1.527717786897   114.08295454     8.13385293
 C     55  52  51     1.556693924722   111.65842115   240.45078283
 H     55  52  51     1.103342598398   106.41936664   126.35404643
 H     57  55  52     1.100762233725   105.68869566   182.66006363
 C     57  55  52     1.530126724435   112.85787611    64.75452215
 C     57  55  52     1.531452646060   112.07412371   299.57814582
 H     56  55  52     1.094665079374   111.95789376   299.20567270
 H     56  55  52     1.095385008198   110.09842498   179.32617933
 H     56  55  52     1.095112113850   111.00990304    59.54993066
 H     60  57  55     1.094455372941   112.20423347    59.85225764
 H     60  57  55     1.096800882334   110.60287231   299.21797515
 H     60  57  55     1.095739683581   110.31964248   179.90475102
 H     61  57  55     1.096330998787   111.46751354   310.89668818
 H     61  57  55     1.095468388442   110.42848006   190.78434385
 H     61  57  55     1.096099213475   111.32321551    71.61826835
 H     50  44  40     1.092925505096   112.14311389    67.68114193
 H     50  44  40     1.096541913020   110.30591975   306.49900588
 H     50  44  40     1.095868647012   110.29284150   187.67634473

---------------------------
INTERNAL COORDINATES (A.U.)
---------------------------
 C      0   0   0     0.000000000000     0.00000000     0.00000000
 C      1   0   0     2.853533047975     0.00000000     0.00000000
 C      2   1   0     2.899069131895   110.39961525     0.00000000
 H      2   1   3     2.070916684878   110.78013736   237.85461568
 H      2   1   3     2.078896847096   109.81370824   118.68254746
 C      1   2   3     2.796981982064   113.83204246   305.79780455
 C      6   1   2     2.858208998341   114.34319523    50.17939134
 C      3   2   1     2.889936783889   110.21285670    56.79363011
 H      7   6   1     2.069578721382   110.24288159   188.59297834
 H      7   6   1     2.080106880457   108.26968370    71.93471766
 H      8   3   2     2.076043973630   108.28690557    64.69093517
 H      8   3   2     2.071460388913   109.51198183   181.61265198
 O      3   2   1     2.716129964146   110.65427236   292.72966622
 H      3   2   1     2.073176147886   109.46861608   177.23278090
 C      1   2   3     2.559309712655   121.29017979   122.35411746
 C      6   1   2     2.527102245677   123.15406571   232.16629388
 H     16   6   1     2.053576996147   121.34223814   358.95782962
 H     16   6   1     2.055048301123   120.97941096   178.38163388
 C     15   1   2     2.729966526921   126.01490462   184.99725699
 H     15   1   2     2.058657306148   116.29375067     3.06246648
 C     19  15   1     2.551326708690   126.58668331   184.59067325
 H     19  15   1     2.055351223425   115.71395813     5.35160297
 C     21  19  15     2.848474221215   125.78094284     1.69312260
 C     23  21  19     2.912433177172   111.71975981   126.04455907
 H     23  21  19     2.066190955506   112.32957748     2.22771204
 H     23  21  19     2.082085919419   107.82404446   244.59451891
 C     24  23  21     2.899951665434   112.65420798    50.78203495
 H     24  23  21     2.073705161098   109.04315341   288.66103332
 H     24  23  21     2.072806479800   109.10868595   172.73858303
 C     27  24  23     2.900102084717   111.82378374   306.15870354
 H     27  24  23     2.069178137308   108.97528940   182.58753352
 H     27  24  23     2.079625306325   109.25727110    66.05901068
 C     21  19  15     2.830461922016   122.59331925   180.43176973
 H     33  21  19     2.090071386493   106.42379386   125.67045183
 C     33  21  19     2.880160751542   121.10530722     3.00898051
 H     13   3   2     1.829005193047   107.61622208    42.23775991
 C     35  33  21     2.924965747839   103.29111292   194.96667044
 H     35  33  21     2.069460080909   112.30787812    73.18320353
 H     35  33  21     2.070720358386   110.67907324   313.44600273
 C     30  27  24     2.940074538419   115.85380519   166.64090159
 H     37  35  33     2.066181920735   111.02498439   252.27404050
 H     37  35  33     2.071889134496   111.28343525   134.00242484
 H     40  30  27     2.081673356158   105.84456800   322.32072872
 C     40  30  27     2.900120439781   117.95450941    83.20942097
 C     30  27  24     2.901737214877   111.06066011   294.88378566
 H     45  30  27     2.068428142341   111.75345897   187.71535658
 H     45  30  27     2.068195883131   111.27809777    67.78817408
 H     45  30  27     2.069595806281   110.83539301   307.75347029
 H     44  40  30     2.081703878770   107.32961720    62.44569029
 C     44  40  30     2.910238655066   114.18442088   303.64708851
 C     44  40  30     2.860529619056   113.73550501   180.21085038
 C     51  44  40     2.519266964146   127.12463124    23.23704767
 H     51  44  40     2.061725033974   113.80418762   198.60622247
 H     52  51  44     2.058671852434   118.81673094   355.81599468
 C     52  51  44     2.847053127183   126.56302867   175.78199584
 C     55  52  51     2.886968227156   114.08295454     8.13385293
 C     55  52  51     2.941725192063   111.65842115   240.45078283
 H     55  52  51     2.085015342861   106.41936664   126.35404643
 H     57  55  52     2.080139160304   105.68869566   182.66006363
 C     57  55  52     2.891520459377   112.85787611    64.75452215
 C     57  55  52     2.894026088122   112.07412371   299.57814582
 H     56  55  52     2.068617208384   111.95789376   299.20567270
 H     56  55  52     2.069977676697   110.09842498   179.32617933
 H     56  55  52     2.069461981116   111.00990304    59.54993066
 H     60  57  55     2.068220920657   112.20423347    59.85225764
 H     60  57  55     2.072653291055   110.60287231   299.21797515
 H     60  57  55     2.070647916038   110.31964248   179.90475102
 H     61  57  55     2.071765339836   111.46751354   310.89668818
 H     61  57  55     2.070135242524   110.42848006   190.78434385
 H     61  57  55     2.071327329075   111.32321551    71.61826835
 H     50  44  40     2.065329889409   112.14311389    67.68114193
 H     50  44  40     2.072163909974   110.30591975   306.49900588
 H     50  44  40     2.070891621603   110.29284150   187.67634473

---------------------
BASIS SET INFORMATION
---------------------
There are 3 groups of distinct atoms

 Group   1 Type C   : 8s5p1d contracted to 3s3p1d pattern {521/311/1}
 Group   2 Type H   : 4s2p contracted to 2s1p pattern {31/2}
 Group   3 Type O   : 8s5p1d contracted to 3s3p1d pattern {521/311/1}

Atom   0C    basis set group =>   1
Atom   1C    basis set group =>   1
Atom   2C    basis set group =>   1
Atom   3H    basis set group =>   2
Atom   4H    basis set group =>   2
Atom   5C    basis set group =>   1
Atom   6C    basis set group =>   1
Atom   7C    basis set group =>   1
Atom   8H    basis set group =>   2
Atom   9H    basis set group =>   2
Atom  10H    basis set group =>   2
Atom  11H    basis set group =>   2
Atom  12O    basis set group =>   3
Atom  13H    basis set group =>   2
Atom  14C    basis set group =>   1
Atom  15C    basis set group =>   1
Atom  16H    basis set group =>   2
Atom  17H    basis set group =>   2
Atom  18C    basis set group =>   1
Atom  19H    basis set group =>   2
Atom  20C    basis set group =>   1
Atom  21H    basis set group =>   2
Atom  22C    basis set group =>   1
Atom  23C    basis set group =>   1
Atom  24H    basis set group =>   2
Atom  25H    basis set group =>   2
Atom  26C    basis set group =>   1
Atom  27H    basis set group =>   2
Atom  28H    basis set group =>   2
Atom  29C    basis set group =>   1
Atom  30H    basis set group =>   2
Atom  31H    basis set group =>   2
Atom  32C    basis set group =>   1
Atom  33H    basis set group =>   2
Atom  34C    basis set group =>   1
Atom  35H    basis set group =>   2
Atom  36C    basis set group =>   1
Atom  37H    basis set group =>   2
Atom  38H    basis set group =>   2
Atom  39C    basis set group =>   1
Atom  40H    basis set group =>   2
Atom  41H    basis set group =>   2
Atom  42H    basis set group =>   2
Atom  43C    basis set group =>   1
Atom  44C    basis set group =>   1
Atom  45H    basis set group =>   2
Atom  46H    basis set group =>   2
Atom  47H    basis set group =>   2
Atom  48H    basis set group =>   2
Atom  49C    basis set group =>   1
Atom  50C    basis set group =>   1
Atom  51C    basis set group =>   1
Atom  52H    basis set group =>   2
Atom  53H    basis set group =>   2
Atom  54C    basis set group =>   1
Atom  55C    basis set group =>   1
Atom  56C    basis set group =>   1
Atom  57H    basis set group =>   2
Atom  58H    basis set group =>   2
Atom  59C    basis set group =>   1
Atom  60C    basis set group =>   1
Atom  61H    basis set group =>   2
Atom  62H    basis set group =>   2
Atom  63H    basis set group =>   2
Atom  64H    basis set group =>   2
Atom  65H    basis set group =>   2
Atom  66H    basis set group =>   2
Atom  67H    basis set group =>   2
Atom  68H    basis set group =>   2
Atom  69H    basis set group =>   2
Atom  70H    basis set group =>   2
Atom  71H    basis set group =>   2
Atom  72H    basis set group =>   2

-------------------------
BASIS SET IN INPUT FORMAT
-------------------------

 # Basis set for element : H 
 NewGTO H 
 S 3 
   1      12.2518000000      0.0372173893
   2       1.8687100000      0.2538082070
   3       0.4182080000      0.7973867639
 S 1 
   1       0.1061000000      1.0000000000
 P 2 
   1       9.0000000000      0.0402678705
   2       1.0000000000      0.9880231245
  end;

 # Basis set for element : C 
 NewGTO C 
 S 5 
   1    1243.2000000000      0.0056300977
   2     187.1450000000      0.0419506039
   3      42.5126000000      0.1846643605
   4      11.7393000000      0.4665574214
   5       3.5054800000      0.4482347783
 S 2 
   1       5.3908900000     -0.1481148174
   2       0.4933410000      1.0519817143
 S 1 
   1       0.1497410000      1.0000000000
 P 3 
   1      59.6736000000      0.0113906672
   2       9.1805600000      0.1672414929
   3       1.9365800000      0.9041087436
 P 1 
   1       0.5262960000      1.0000000000
 P 1 
   1       0.1363190000      1.0000000000
 D 1 
   1       0.8000000000      1.0000000000
  end;

 # Basis set for element : O 
 NewGTO O 
 S 5 
   1    2288.6400000000      0.0054511382
   2     344.4160000000      0.0407189228
   3      78.2538000000      0.1813694209
   4      21.7195000000      0.4655368202
   5       6.5590700000      0.4512113212
 S 2 
   1      10.4656000000     -0.1502112012
   2       0.9643510000      1.0528679834
 S 1 
   1       0.2851270000      1.0000000000
 P 3 
   1     110.8840000000      0.0113058003
   2      17.0590000000      0.1699226452
   3       3.6899900000      0.9008060328
 P 1 
   1       0.9929960000      1.0000000000
 P 1 
   1       0.2449240000      1.0000000000
 D 1 
   1       1.0000000000      1.0000000000
  end;

---------------------------------
AUXILIARY/J BASIS SET INFORMATION
---------------------------------
There are 3 groups of distinct atoms

 Group   1 Type C   : 12s5p4d2f1g contracted to 6s4p3d1f1g pattern {711111/2111/211/2/1}
 Group   2 Type H   : 5s2p1d contracted to 3s1p1d pattern {311/2/1}
 Group   3 Type O   : 12s5p4d2f1g contracted to 6s4p3d1f1g pattern {711111/2111/211/2/1}

Atom   0C    basis set group =>   1
Atom   1C    basis set group =>   1
Atom   2C    basis set group =>   1
Atom   3H    basis set group =>   2
Atom   4H    basis set group =>   2
Atom   5C    basis set group =>   1
Atom   6C    basis set group =>   1
Atom   7C    basis set group =>   1
Atom   8H    basis set group =>   2
Atom   9H    basis set group =>   2
Atom  10H    basis set group =>   2
Atom  11H    basis set group =>   2
Atom  12O    basis set group =>   3
Atom  13H    basis set group =>   2
Atom  14C    basis set group =>   1
Atom  15C    basis set group =>   1
Atom  16H    basis set group =>   2
Atom  17H    basis set group =>   2
Atom  18C    basis set group =>   1
Atom  19H    basis set group =>   2
Atom  20C    basis set group =>   1
Atom  21H    basis set group =>   2
Atom  22C    basis set group =>   1
Atom  23C    basis set group =>   1
Atom  24H    basis set group =>   2
Atom  25H    basis set group =>   2
Atom  26C    basis set group =>   1
Atom  27H    basis set group =>   2
Atom  28H    basis set group =>   2
Atom  29C    basis set group =>   1
Atom  30H    basis set group =>   2
Atom  31H    basis set group =>   2
Atom  32C    basis set group =>   1
Atom  33H    basis set group =>   2
Atom  34C    basis set group =>   1
Atom  35H    basis set group =>   2
Atom  36C    basis set group =>   1
Atom  37H    basis set group =>   2
Atom  38H    basis set group =>   2
Atom  39C    basis set group =>   1
Atom  40H    basis set group =>   2
Atom  41H    basis set group =>   2
Atom  42H    basis set group =>   2
Atom  43C    basis set group =>   1
Atom  44C    basis set group =>   1
Atom  45H    basis set group =>   2
Atom  46H    basis set group =>   2
Atom  47H    basis set group =>   2
Atom  48H    basis set group =>   2
Atom  49C    basis set group =>   1
Atom  50C    basis set group =>   1
Atom  51C    basis set group =>   1
Atom  52H    basis set group =>   2
Atom  53H    basis set group =>   2
Atom  54C    basis set group =>   1
Atom  55C    basis set group =>   1
Atom  56C    basis set group =>   1
Atom  57H    basis set group =>   2
Atom  58H    basis set group =>   2
Atom  59C    basis set group =>   1
Atom  60C    basis set group =>   1
Atom  61H    basis set group =>   2
Atom  62H    basis set group =>   2
Atom  63H    basis set group =>   2
Atom  64H    basis set group =>   2
Atom  65H    basis set group =>   2
Atom  66H    basis set group =>   2
Atom  67H    basis set group =>   2
Atom  68H    basis set group =>   2
Atom  69H    basis set group =>   2
Atom  70H    basis set group =>   2
Atom  71H    basis set group =>   2
Atom  72H    basis set group =>   2

-------------------------------------
AUXILIARY/J BASIS SET IN INPUT FORMAT
-------------------------------------

 # Auxiliary/J basis set for element : H 
 NewAuxJGTO H 
 S 3 
   1      15.6752927000      0.1007184237
   2       3.6063578000      0.3404257499
   3       1.2080016000      0.6491996172
 S 1 
   1       0.4726794000      1.0000000000
 S 1 
   1       0.2018100000      1.0000000000
 P 2 
   1       2.0281365000      0.5596620919
   2       0.5358730000      0.5596620919
 D 1 
   1       2.2165124000      1.0000000000
  end;

 # Auxiliary/J basis set for element : C 
 NewAuxJGTO C 
 S 7 
   1    1861.0916331000      0.0134602335
   2     642.9939764000      0.0299160374
   3     235.1105725000      0.1008649584
   4      90.7028894000      0.2370970548
   5      36.7794552000      0.3924037254
   6      15.6046273000      0.3195862154
   7       6.8907294000      0.0530104441
 S 1 
   1       3.1478850000     -1.0000000000
 S 1 
   1       1.4777287000      1.0000000000
 S 1 
   1       0.7076466000      1.0000000000
 S 1 
   1       0.3430122000      1.0000000000
 S 1 
   1       0.1669453000      1.0000000000
 P 2 
   1      13.5472892000     -0.6769313712
   2       5.4669419000     -0.3779500978
 P 1 
   1       2.1751721000      1.0000000000
 P 1 
   1       0.8582194000      1.0000000000
 P 1 
   1       0.3376720000      1.0000000000
 D 2 
   1       5.9287253000     -0.3533329857
   2       1.9809209000     -0.7456525731
 D 1 
   1       0.8055417000     -1.0000000000
 D 1 
   1       0.3531244000     -1.0000000000
 F 2 
   1       1.6755626000      0.6311076882
   2       0.5997536000      0.4968166032
 G 1 
   1       1.0024600000     -1.0000000000
  end;

 # Auxiliary/J basis set for element : O 
 NewAuxJGTO O 
 S 7 
   1    2876.8216605000      0.0168151159
   2    1004.7443032000      0.0340137548
   3     369.7579954000      0.1194951309
   4     142.9442404000      0.2664627624
   5      57.8366425000      0.4202764046
   6      24.3864983000      0.2765077335
   7      10.6622662000      0.0057008815
 S 1 
   1       4.8070437000     -1.0000000000
 S 1 
   1       2.2210770000      1.0000000000
 S 1 
   1       1.0447795000      1.0000000000
 S 1 
   1       0.4968425000      1.0000000000
 S 1 
   1       0.2371384000      1.0000000000
 P 2 
   1      64.2613382000     -0.2731534179
   2      16.3006076000     -0.8168011598
 P 1 
   1       4.3550542000      1.0000000000
 P 1 
   1       1.2019554000      1.0000000000
 P 1 
   1       0.3354196000      1.0000000000
 D 2 
   1       9.2146611000     -0.4661230638
   2       2.8435251000     -0.6600908911
 D 1 
   1       0.9955759000     -1.0000000000
 D 1 
   1       0.3649441000     -1.0000000000
 F 2 
   1       2.6420115000      0.5931563945
   2       0.7345613000      0.5931563945
 G 1 
   1       1.3931000000     -1.0000000000
  end;



           ************************************************************
           *        Program running with 4 parallel MPI-processes     *
           *              working on a common directory               *
           ************************************************************
------------------------------------------------------------------------------
                           ORCA GTO INTEGRAL CALCULATION
                           -- RI-GTO INTEGRALS CHOSEN --
------------------------------------------------------------------------------
------------------------------------------------------------------------------
                   ___                                                        
                  /   \      - P O W E R E D   B Y -                         
                 /     \                                                     
                 |  |  |   _    _      __       _____    __    __             
                 |  |  |  | |  | |    /  \     |  _  \  |  |  /  |          
                  \  \/   | |  | |   /    \    | | | |  |  | /  /          
                 / \  \   | |__| |  /  /\  \   | |_| |  |  |/  /          
                |  |  |   |  __  | /  /__\  \  |    /   |      \           
                |  |  |   | |  | | |   __   |  |    \   |  |\   \          
                \     /   | |  | | |  |  |  |  | |\  \  |  | \   \       
                 \___/    |_|  |_| |__|  |__|  |_| \__\ |__|  \__/        
                                                                              
                      - O R C A' S   B I G   F R I E N D -                    
                                      &                                       
                       - I N T E G R A L  F E E D E R -                       
                                                                              
 v1 FN, 2020, v2 2021                                                         
------------------------------------------------------------------------------


Reading SHARK input file inpS.SHARKINP.tmp ... ok
----------------------
SHARK INTEGRAL PACKAGE
----------------------

Number of atoms                             ...     73
Number of basis functions                   ...    713
Number of shells                            ...    335
Maximum angular momentum                    ...      2
Integral batch strategy                     ... SHARK/LIBINT Hybrid
RI-J (if used) integral strategy            ... SPLIT-RIJ (Revised 2003 algorithm where possible)
Printlevel                                  ...      1
Contraction scheme used                     ... SEGMENTED contraction
Coulomb Range Separation                    ... NOT USED
Exchange Range Separation                   ... NOT USED
Finite Nucleus Model                        ... NOT USED
Auxiliary Coulomb fitting basis             ... AVAILABLE
   # of basis functions in Aux-J            ...   1905
   # of shells in Aux-J                     ...    655
   Maximum angular momentum in Aux-J        ...      4
Auxiliary J/K fitting basis                 ... NOT available
Auxiliary Correlation fitting basis         ... NOT available
Auxiliary 'external' fitting basis          ... NOT available
Integral threshold                          ...     3.000000e-11
Primitive cut-off                           ...     1.000000e-12
Primitive pair pre-selection threshold      ...     1.000000e-12

Calculating pre-screening integrals         ... done (  0.1 sec) Dimension = 335
Organizing shell pair data                  ... done (  0.2 sec)
Shell pair information
Total number of shell pairs                 ...     56280
Shell pairs after pre-screening             ...     32136
Total number of primitive shell pairs       ...    225367
Primitive shell pairs kept                  ...     75583
          la=0 lb=0:   9830 shell pairs
          la=1 lb=0:  13194 shell pairs
          la=1 lb=1:   4322 shell pairs
          la=2 lb=0:   2807 shell pairs
          la=2 lb=1:   1785 shell pairs
          la=2 lb=2:    198 shell pairs

Calculating one electron integrals          ... done (  0.1 sec)
Calculating RI/J V-Matrix + Cholesky decomp.... done (  0.1 sec)
Calculating Nuclear repulsion               ... done (  0.0 sec) ENN=   2804.540045457210 Eh

SHARK setup successfully completed in   0.7 seconds

Maximum memory used throughout the entire GTOINT-calculation: 61.6 MB


           ************************************************************
           *        Program running with 4 parallel MPI-processes     *
           *              working on a common directory               *
           ************************************************************
-------------------------------------------------------------------------------
                                 ORCA SCF
-------------------------------------------------------------------------------

------------
SCF SETTINGS
------------
Hamiltonian:
 Density Functional     Method          .... DFT(GTOs)
 Exchange Functional    Exchange        .... revTPSS
 Correlation Functional Correlation     .... revTPSS
 LDA part of GGA corr.  LDAOpt          .... PW91-LDA
 Gradients option       PostSCFGGA      .... off
   Density functional embedding theory  .... OFF
 RI-approximation to the Coulomb term is turned on
   Number of AuxJ basis functions       .... 1905


General Settings:
 Integral files         IntName         .... inpS
 Hartree-Fock type      HFTyp           .... RHF
 Total Charge           Charge          ....    0
 Multiplicity           Mult            ....    1
 Number of Electrons    NEL             ....  220
 Basis Dimension        Dim             ....  713
 Nuclear Repulsion      ENuc            ....   2804.5400454572 Eh

Convergence Acceleration:
 DIIS                   CNVDIIS         .... on
   Start iteration      DIISMaxIt       ....    12
   Startup error        DIISStart       ....  0.200000
   # of expansion vecs  DIISMaxEq       ....     5
   Bias factor          DIISBfac        ....   1.050
   Max. coefficient     DIISMaxC        ....  10.000
 Trust-Rad. Augm. Hess. CNVTRAH         .... auto
   Auto Start mean grad. ratio tolernc. ....  1.125000
   Auto Start start iteration           ....    20
   Auto Start num. interpolation iter.  ....    10
   Max. Number of Micro iterations      ....    16
   Max. Number of Macro iterations      .... Maxiter - #DIIS iter
   Number of Davidson start vectors     ....     2
   Converg. threshold I  (grad. norm)   ....   1.000e-04
   Converg. threshold II (energy diff.) ....   1.000e-07
   Grad. Scal. Fac. for Micro threshold ....   0.100
   Minimum threshold for Micro iter.    ....   0.010
   NR start threshold (gradient norm)   ....   0.001
   Initial trust radius                 ....   0.400
   Minimum AH scaling param. (alpha)    ....   1.000
   Maximum AH scaling param. (alpha)    .... 1000.000
   Orbital update algorithm             .... Taylor
   White noise on init. David. guess    .... on
   Maximum white noise                  ....   0.010
   Quad. conv. algorithm                .... NR
 SOSCF                  CNVSOSCF        .... off
 Level Shifting         CNVShift        .... on
   Level shift para.    LevelShift      ....    0.2500
   Turn off err/grad.   ShiftErr        ....    0.0010
 Zerner damping         CNVZerner       .... off
 Static damping         CNVDamp         .... on
   Fraction old density DampFac         ....    0.7000
   Max. Damping (<1)    DampMax         ....    0.9800
   Min. Damping (>=0)   DampMin         ....    0.0000
   Turn off err/grad.   DampErr         ....    0.1000
 Fernandez-Rico         CNVRico         .... off

SCF Procedure:
 Maximum # iterations   MaxIter         ....   125
 SCF integral mode      SCFMode         .... Direct
   Integral package                     .... SHARK and LIBINT hybrid scheme
 Reset frequency        DirectResetFreq ....    20
 Integral Threshold     Thresh          ....  3.000e-11 Eh
 Primitive CutOff       TCut            ....  1.000e-12 Eh

Convergence Tolerance:
 Convergence Check Mode ConvCheckMode   .... Total+1el-Energy
 Convergence forced     ConvForced      .... 0
 Energy Change          TolE            ....  1.000e-07 Eh
 1-El. energy change                    ....  1.000e-04 Eh
 DIIS Error             TolErr          ....  1.000e-07


Diagonalization of the overlap matrix:
Smallest eigenvalue                        ... 5.010e-04
Time for diagonalization                   ...    0.086 sec
Threshold for overlap eigenvalues          ... 1.000e-08
Number of eigenvalues below threshold      ... 0
Time for construction of square roots      ...    0.080 sec
Total time needed                          ...    0.168 sec

Time for model grid setup =    0.765 sec

------------------------------
INITIAL GUESS: MODEL POTENTIAL
------------------------------
Loading Hartree-Fock densities                     ... done
Calculating cut-offs                               ... done
Initializing the effective Hamiltonian             ... done
Setting up the integral package (SHARK)            ... done
Starting the Coulomb interaction                   ... done (   0.7 sec)
Reading the grid                                   ... done
Mapping shells                                     ... done
Starting the XC term evaluation                    ... done (   0.3 sec)
  promolecular density results
     # of electrons  =    219.972183218
     EX              =   -164.432177952
     EC              =     -7.329147775
     EX+EC           =   -171.761325726
Transforming the Hamiltonian                       ... done (   0.0 sec)
Diagonalizing the Hamiltonian                      ... done (   0.1 sec)
Back transforming the eigenvectors                 ... done (   0.0 sec)
Now organizing SCF variables                       ... done
                      ------------------
                      INITIAL GUESS DONE (   1.9 sec)
                      ------------------
-------------------
DFT GRID GENERATION
-------------------

General Integration Accuracy     IntAcc      ... 4.388
Radial Grid Type                 RadialGrid  ... OptM3 with GC (2021)
Angular Grid (max. ang.)         AngularGrid ... 4 (Lebedev-302)
Angular grid pruning method      GridPruning ... 4 (adaptive)
Weight generation scheme         WeightScheme... Becke
Basis function cutoff            BFCut       ... 1.0000e-11
Integration weight cutoff        WCut        ... 1.0000e-14
Angular grids for H and He will be reduced by one unit
Partially contracted basis set               ... off
Rotationally invariant grid construction     ... off

Total number of grid points                  ...   309734
Total number of batches                      ...     4878
Average number of points per batch           ...       63
Average number of grid points per atom       ...     4243
Time for grid setup =    2.986 sec


--------------------
CPCM SOLVATION MODEL
--------------------
CPCM parameters:
  Epsilon                                         ...       4.9000
  Refrac                                          ...       1.4500
  Rsolv                                           ...       1.3000
  Surface type                                    ... GAUSSIAN VDW
  Epsilon function type                           ...         CPCM
Radii:
 Radius for C  used is    3.8550 Bohr (=   2.0400 Ang.)
 Radius for H  used is    2.4944 Bohr (=   1.3200 Ang.)
 Radius for O  used is    3.4469 Bohr (=   1.8240 Ang.)
Calculating surface                               ...        done! (  0.0s)
GEPOL surface points                              ...         3619
GEPOL Volume                                      ...    3587.0711
GEPOL Surface-area                                ...    1775.7923
Calculating surface distance matrix               ...        done! (  0.1s)
Performing Cholesky decomposition & store         ...        done! (  0.5s)
Overall time for CPCM initialization              ...                 0.6s
--------------
SCF ITERATIONS
--------------
ITER       Energy         Delta-E        Max-DP      RMS-DP      [F,P]     Damp
               ***  Starting incremental Fock matrix formation  ***

  HOMO= 109 E= -1.940 eV LUMO=  7.773 eV gap=   9.712 eV
  0  -1167.5209768057   0.000000000000 0.05590712  0.00083593  0.2640898 0.7000

  HOMO= 109 E= -3.446 eV LUMO=  6.674 eV gap=  10.119 eV
  1  -1167.8952398041  -0.374262998392 0.02893035  0.00061717  0.1019784 0.7000
                               ***Turning on DIIS***

  HOMO= 109 E= -4.416 eV LUMO=  5.791 eV gap=  10.207 eV
  2  -1168.0414817310  -0.146241926948 0.04801998  0.00101416  0.0319561 0.0000

  HOMO= 109 E= -5.035 eV LUMO=  5.209 eV gap=  10.245 eV
  3  -1168.2393897936  -0.197908062602 0.02320655  0.00047821  0.0543015 0.0000

  HOMO= 109 E= -5.062 eV LUMO=  5.183 eV gap=  10.245 eV
  4  -1168.3063372101  -0.066947416527 0.00746410  0.00015068  0.0104451 0.0000

  HOMO= 109 E= -5.016 eV LUMO=  5.236 eV gap=  10.252 eV
  5  -1168.3093676501  -0.003030439981 0.00344380  0.00005692  0.0102765 0.0000

  HOMO= 109 E= -4.996 eV LUMO=  5.254 eV gap=  10.249 eV
  6  -1168.3096344537  -0.000266803587 0.00126740  0.00001912  0.0030951 0.0000

  HOMO= 109 E= -4.998 eV LUMO= -1.551 eV gap=   3.446 eV
  7  -1168.3096547399  -0.000020286220 0.00072302  0.00001157  0.0004383 0.0000

  HOMO= 109 E= -4.996 eV LUMO= -1.550 eV gap=   3.446 eV
  8  -1168.3096575053  -0.000002765370 0.00025851  0.00000297  0.0003794 0.0000

  HOMO= 109 E= -4.994 eV LUMO= -1.548 eV gap=   3.446 eV
  9  -1168.3096582093  -0.000000703977 0.00015035  0.00000151  0.0002217 0.0000

  HOMO= 109 E= -4.994 eV LUMO= -1.548 eV gap=   3.446 eV
 10  -1168.3096584499  -0.000000240572 0.00006601  0.00000070  0.0000855 0.0000

  HOMO= 109 E= -4.995 eV LUMO= -1.548 eV gap=   3.446 eV
 11  -1168.3096584872  -0.000000037373 0.00002628  0.00000026  0.0000249 0.0000

  HOMO= 109 E= -4.994 eV LUMO= -1.548 eV gap=   3.446 eV
 12  -1168.3096584793   0.000000007965 0.00001273  0.00000012  0.0000187 0.0000

  HOMO= 109 E= -4.994 eV LUMO= -1.548 eV gap=   3.446 eV
 13  -1168.3096585089  -0.000000029624 0.00000616  0.00000005  0.0000074 0.0000
                 **** Energy Check signals convergence ****

               *****************************************************
               *                     SUCCESS                       *
               *           SCF CONVERGED AFTER  14 CYCLES          *
               *****************************************************


----------------
TOTAL SCF ENERGY
----------------

Total Energy       :        -1168.30965850 Eh          -31791.32205 eV

Components:
Nuclear Repulsion  :         2804.54004546 Eh           76315.41444 eV
Electronic Energy  :        -3972.84970396 Eh         -108106.73649 eV
One Electron Energy:        -7155.25978164 Eh         -194704.51724 eV
Two Electron Energy:         3182.41007768 Eh           86597.78076 eV
CPCM Dielectric    :           -0.00908782 Eh              -0.24729 eV

Virial components:
Potential Energy   :        -2330.41058859 Eh          -63413.69601 eV
Kinetic Energy     :         1162.10093008 Eh           31622.37396 eV
Virial Ratio       :            2.00534268


DFT components:
N(Alpha)           :      109.999964760843 electrons
N(Beta)            :      109.999964760843 electrons
N(Total)           :      219.999929521685 electrons
E(X)               :     -169.585326705415 Eh       
E(C)               :       -7.445387517384 Eh       
E(XC)              :     -177.030714222799 Eh       
DFET-embed. en.    :        0.000000000000 Eh       
CPCM Solvation Model Properties:
Surface-charge          :           -0.04487348
Charge-correction       :           -0.00007373 Eh              -0.00201 eV
Free-energy (cav+disp)  :  This term is not implemented in the current solvation scheme

---------------
SCF CONVERGENCE
---------------

  Last Energy change         ...    4.1143e-09  Tolerance :   1.0000e-07
  Last MAX-Density change    ...    2.6290e-06  Tolerance :   1.0000e-05
  Last RMS-Density change    ...    2.6464e-08  Tolerance :   1.0000e-06
  Last DIIS Error            ...    3.3757e-06  Tolerance :   1.0000e-07

             **** THE GBW FILE WAS UPDATED (inpS.gbw) ****
             **** DENSITY inpS.scfp WAS UPDATED ****
             **** ENERGY FILE WAS UPDATED (inpS.en.tmp) ****
             **** THE GBW FILE WAS UPDATED (inpS.gbw) ****
             **** DENSITY inpS.scfp WAS UPDATED ****
----------------
ORBITAL ENERGIES
----------------

  NO   OCC          E(Eh)            E(eV) 
   0   2.0000     -18.903698      -514.3958 
   1   2.0000     -10.057233      -273.6712 
   2   2.0000     -10.016394      -272.5599 
   3   2.0000     -10.014738      -272.5149 
   4   2.0000     -10.012224      -272.4465 
   5   2.0000     -10.012040      -272.4415 
   6   2.0000     -10.012015      -272.4408 
   7   2.0000     -10.011403      -272.4241 
   8   2.0000     -10.010176      -272.3907 
   9   2.0000     -10.009793      -272.3803 
  10   2.0000     -10.009690      -272.3775 
  11   2.0000     -10.008296      -272.3396 
  12   2.0000     -10.007641      -272.3218 
  13   2.0000     -10.006306      -272.2854 
  14   2.0000     -10.006059      -272.2787 
  15   2.0000     -10.005031      -272.2507 
  16   2.0000     -10.004932      -272.2480 
  17   2.0000     -10.000898      -272.1383 
  18   2.0000     -10.000498      -272.1274 
  19   2.0000      -9.999410      -272.0978 
  20   2.0000      -9.999123      -272.0900 
  21   2.0000      -9.998581      -272.0752 
  22   2.0000      -9.998533      -272.0739 
  23   2.0000      -9.997585      -272.0481 
  24   2.0000      -9.996266      -272.0122 
  25   2.0000      -9.996061      -272.0066 
  26   2.0000      -9.996012      -272.0053 
  27   2.0000      -9.995102      -271.9806 
  28   2.0000      -9.993991      -271.9503 
  29   2.0000      -0.954369       -25.9697 
  30   2.0000      -0.807806       -21.9815 
  31   2.0000      -0.789568       -21.4852 
  32   2.0000      -0.770528       -20.9671 
  33   2.0000      -0.756522       -20.5860 
  34   2.0000      -0.734172       -19.9778 
  35   2.0000      -0.727863       -19.8062 
  36   2.0000      -0.708853       -19.2889 
  37   2.0000      -0.708758       -19.2863 
  38   2.0000      -0.693531       -18.8719 
  39   2.0000      -0.676056       -18.3964 
  40   2.0000      -0.657753       -17.8984 
  41   2.0000      -0.653668       -17.7872 
  42   2.0000      -0.635787       -17.3006 
  43   2.0000      -0.629217       -17.1219 
  44   2.0000      -0.625642       -17.0246 
  45   2.0000      -0.619395       -16.8546 
  46   2.0000      -0.591346       -16.0913 
  47   2.0000      -0.590078       -16.0568 
  48   2.0000      -0.560209       -15.2441 
  49   2.0000      -0.547670       -14.9029 
  50   2.0000      -0.541734       -14.7413 
  51   2.0000      -0.537578       -14.6283 
  52   2.0000      -0.526584       -14.3291 
  53   2.0000      -0.513722       -13.9791 
  54   2.0000      -0.494226       -13.4486 
  55   2.0000      -0.472992       -12.8708 
  56   2.0000      -0.464295       -12.6341 
  57   2.0000      -0.462528       -12.5860 
  58   2.0000      -0.451255       -12.2793 
  59   2.0000      -0.444414       -12.0931 
  60   2.0000      -0.434365       -11.8197 
  61   2.0000      -0.429995       -11.7008 
  62   2.0000      -0.424518       -11.5517 
  63   2.0000      -0.417149       -11.3512 
  64   2.0000      -0.412093       -11.2136 
  65   2.0000      -0.406620       -11.0647 
  66   2.0000      -0.404600       -11.0097 
  67   2.0000      -0.398911       -10.8549 
  68   2.0000      -0.397766       -10.8238 
  69   2.0000      -0.391644       -10.6572 
  70   2.0000      -0.389726       -10.6050 
  71   2.0000      -0.384038       -10.4502 
  72   2.0000      -0.378385       -10.2964 
  73   2.0000      -0.374963       -10.2033 
  74   2.0000      -0.371728       -10.1152 
  75   2.0000      -0.367403        -9.9975 
  76   2.0000      -0.361853        -9.8465 
  77   2.0000      -0.358155        -9.7459 
  78   2.0000      -0.354373        -9.6430 
  79   2.0000      -0.349218        -9.5027 
  80   2.0000      -0.345744        -9.4082 
  81   2.0000      -0.344214        -9.3665 
  82   2.0000      -0.342824        -9.3287 
  83   2.0000      -0.336389        -9.1536 
  84   2.0000      -0.330898        -9.0042 
  85   2.0000      -0.325863        -8.8672 
  86   2.0000      -0.322972        -8.7885 
  87   2.0000      -0.318214        -8.6590 
  88   2.0000      -0.316726        -8.6185 
  89   2.0000      -0.310533        -8.4500 
  90   2.0000      -0.309479        -8.4213 
  91   2.0000      -0.306493        -8.3401 
  92   2.0000      -0.304899        -8.2967 
  93   2.0000      -0.296858        -8.0779 
  94   2.0000      -0.290734        -7.9113 
  95   2.0000      -0.287445        -7.8218 
  96   2.0000      -0.285613        -7.7719 
  97   2.0000      -0.282770        -7.6946 
  98   2.0000      -0.282203        -7.6791 
  99   2.0000      -0.278180        -7.5697 
 100   2.0000      -0.275165        -7.4876 
 101   2.0000      -0.272694        -7.4204 
 102   2.0000      -0.271691        -7.3931 
 103   2.0000      -0.266946        -7.2640 
 104   2.0000      -0.259632        -7.0650 
 105   2.0000      -0.249697        -6.7946 
 106   2.0000      -0.229711        -6.2508 
 107   2.0000      -0.228658        -6.2221 
 108   2.0000      -0.212892        -5.7931 
 109   2.0000      -0.183541        -4.9944 
 110   0.0000      -0.056893        -1.5481 
 111   0.0000      -0.014200        -0.3864 
 112   0.0000      -0.006306        -0.1716 
 113   0.0000       0.028647         0.7795 
 114   0.0000       0.037108         1.0098 
 115   0.0000       0.040525         1.1028 
 116   0.0000       0.047347         1.2884 
 117   0.0000       0.047961         1.3051 
 118   0.0000       0.051788         1.4092 
 119   0.0000       0.055511         1.5105 
 120   0.0000       0.060396         1.6435 
 121   0.0000       0.065901         1.7933 
 122   0.0000       0.070869         1.9285 
 123   0.0000       0.074928         2.0389 
 124   0.0000       0.079915         2.1746 
 125   0.0000       0.080924         2.2020 
 126   0.0000       0.083146         2.2625 
 127   0.0000       0.089692         2.4406 
 128   0.0000       0.090409         2.4601 
 129   0.0000       0.091489         2.4896 
 130   0.0000       0.097983         2.6663 
 131   0.0000       0.099520         2.7081 
 132   0.0000       0.102941         2.8012 
 133   0.0000       0.106529         2.8988 
 134   0.0000       0.107808         2.9336 
 135   0.0000       0.109373         2.9762 
 136   0.0000       0.111562         3.0358 
 137   0.0000       0.119899         3.2626 
 138   0.0000       0.122295         3.3278 
 139   0.0000       0.125261         3.4085 
 140   0.0000       0.127668         3.4740 
 141   0.0000       0.128494         3.4965 
 142   0.0000       0.133737         3.6392 
 143   0.0000       0.135916         3.6985 
 144   0.0000       0.137144         3.7319 
 145   0.0000       0.142197         3.8694 
 146   0.0000       0.145007         3.9458 
 147   0.0000       0.148248         4.0340 
 148   0.0000       0.148827         4.0498 
 149   0.0000       0.151634         4.1262 
 150   0.0000       0.154385         4.2010 
 151   0.0000       0.158489         4.3127 
 152   0.0000       0.160962         4.3800 
 153   0.0000       0.163241         4.4420 
 154   0.0000       0.167100         4.5470 
 155   0.0000       0.170656         4.6438 
 156   0.0000       0.176450         4.8014 
 157   0.0000       0.179093         4.8734 
 158   0.0000       0.180425         4.9096 
 159   0.0000       0.181571         4.9408 
 160   0.0000       0.186660         5.0793 
 161   0.0000       0.192365         5.2345 
 162   0.0000       0.194567         5.2944 
 163   0.0000       0.196295         5.3415 
 164   0.0000       0.201984         5.4963 
 165   0.0000       0.204471         5.5639 
 166   0.0000       0.206209         5.6112 
 167   0.0000       0.209998         5.7143 
 168   0.0000       0.211903         5.7662 
 169   0.0000       0.216811         5.8997 
 170   0.0000       0.220253         5.9934 
 171   0.0000       0.222067         6.0428 
 172   0.0000       0.226138         6.1535 
 173   0.0000       0.230567         6.2741 
 174   0.0000       0.239863         6.5270 
 175   0.0000       0.244670         6.6578 
 176   0.0000       0.246969         6.7204 
 177   0.0000       0.256416         6.9774 
 178   0.0000       0.261347         7.1116 
 179   0.0000       0.268019         7.2932 
 180   0.0000       0.273400         7.4396 
 181   0.0000       0.283475         7.7137 
 182   0.0000       0.291624         7.9355 
 183   0.0000       0.295523         8.0416 
 184   0.0000       0.305040         8.3005 
 185   0.0000       0.329023         8.9532 
 186   0.0000       0.334456         9.1010 
 187   0.0000       0.342364         9.3162 
 188   0.0000       0.344526         9.3750 
 189   0.0000       0.350772         9.5450 
 190   0.0000       0.358164         9.7461 
 191   0.0000       0.366016         9.9598 
 192   0.0000       0.368398        10.0246 
 193   0.0000       0.370597        10.0845 
 194   0.0000       0.377809        10.2807 
 195   0.0000       0.382391        10.4054 
 196   0.0000       0.385301        10.4846 
 197   0.0000       0.390620        10.6293 
 198   0.0000       0.391475        10.6526 
 199   0.0000       0.398543        10.8449 
 200   0.0000       0.400976        10.9111 
 201   0.0000       0.404978        11.0200 
 202   0.0000       0.409724        11.1491 
 203   0.0000       0.418279        11.3819 
 204   0.0000       0.422923        11.5083 
 205   0.0000       0.426960        11.6182 
 206   0.0000       0.434582        11.8256 
 207   0.0000       0.449458        12.2304 
 208   0.0000       0.453349        12.3363 
 209   0.0000       0.456265        12.4156 
 210   0.0000       0.463106        12.6018 
 211   0.0000       0.468085        12.7372 
 212   0.0000       0.468809        12.7569 
 213   0.0000       0.476736        12.9726 
 214   0.0000       0.479198        13.0396 
 215   0.0000       0.484526        13.1846 
 216   0.0000       0.488068        13.2810 
 217   0.0000       0.489875        13.3302 
 218   0.0000       0.497562        13.5394 
 219   0.0000       0.500002        13.6057 
 220   0.0000       0.504992        13.7415 
 221   0.0000       0.508691        13.8422 
 222   0.0000       0.511680        13.9235 
 223   0.0000       0.523173        14.2363 
 224   0.0000       0.523803        14.2534 
 225   0.0000       0.533314        14.5122 
 226   0.0000       0.534705        14.5500 
 227   0.0000       0.538528        14.6541 
 228   0.0000       0.540658        14.7121 
 229   0.0000       0.542500        14.7622 
 230   0.0000       0.548852        14.9350 
 231   0.0000       0.554995        15.1022 
 232   0.0000       0.556858        15.1529 
 233   0.0000       0.562391        15.3034 
 234   0.0000       0.564806        15.3691 
 235   0.0000       0.569424        15.4948 
 236   0.0000       0.570551        15.5255 
 237   0.0000       0.573921        15.6172 
 238   0.0000       0.577773        15.7220 
 239   0.0000       0.579277        15.7629 
 240   0.0000       0.581287        15.8176 
 241   0.0000       0.583117        15.8674 
 242   0.0000       0.588178        16.0051 
 243   0.0000       0.589767        16.0484 
 244   0.0000       0.592355        16.1188 
 245   0.0000       0.596535        16.2325 
 246   0.0000       0.597273        16.2526 
 247   0.0000       0.601678        16.3725 
 248   0.0000       0.602541        16.3960 
 249   0.0000       0.605781        16.4841 
 250   0.0000       0.606796        16.5118 
 251   0.0000       0.608763        16.5653 
 252   0.0000       0.611315        16.6347 
 253   0.0000       0.613548        16.6955 
 254   0.0000       0.614195        16.7131 
 255   0.0000       0.617262        16.7966 
 256   0.0000       0.621472        16.9111 
 257   0.0000       0.628101        17.0915 
 258   0.0000       0.628324        17.0976 
 259   0.0000       0.632355        17.2073 
 260   0.0000       0.633715        17.2443 
 261   0.0000       0.635076        17.2813 
 262   0.0000       0.640823        17.4377 
 263   0.0000       0.643418        17.5083 
 264   0.0000       0.648167        17.6375 
 265   0.0000       0.649890        17.6844 
 266   0.0000       0.654715        17.8157 
 267   0.0000       0.655149        17.8275 
 268   0.0000       0.657928        17.9031 
 269   0.0000       0.664256        18.0753 
 270   0.0000       0.667098        18.1527 
 271   0.0000       0.668586        18.1932 
 272   0.0000       0.670052        18.2330 
 273   0.0000       0.675123        18.3710 
 274   0.0000       0.677591        18.4382 
 275   0.0000       0.680982        18.5305 
 276   0.0000       0.681891        18.5552 
 277   0.0000       0.685047        18.6411 
 278   0.0000       0.685951        18.6657 
 279   0.0000       0.691295        18.8111 
 280   0.0000       0.692975        18.8568 
 281   0.0000       0.695910        18.9367 
 282   0.0000       0.701110        19.0782 
 283   0.0000       0.706918        19.2362 
 284   0.0000       0.712122        19.3778 
 285   0.0000       0.720774        19.6133 
 286   0.0000       0.725702        19.7474 
 287   0.0000       0.732883        19.9428 
 288   0.0000       0.737045        20.0560 
 289   0.0000       0.737976        20.0813 
 290   0.0000       0.743672        20.2363 
 291   0.0000       0.747402        20.3378 
 292   0.0000       0.750783        20.4298 
 293   0.0000       0.756559        20.5870 
 294   0.0000       0.766987        20.8708 
 295   0.0000       0.771089        20.9824 
 296   0.0000       0.781627        21.2692 
 297   0.0000       0.783404        21.3175 
 298   0.0000       0.790104        21.4998 
 299   0.0000       0.793637        21.5960 
 300   0.0000       0.799801        21.7637 
 301   0.0000       0.806019        21.9329 
 302   0.0000       0.810795        22.0629 
 303   0.0000       0.827936        22.5293 
 304   0.0000       0.835602        22.7379 
 305   0.0000       0.857636        23.3375 
 306   0.0000       0.871466        23.7138 
 307   0.0000       0.887737        24.1565 
 308   0.0000       0.893066        24.3016 
 309   0.0000       0.901403        24.5284 
 310   0.0000       0.933694        25.4071 
 311   0.0000       0.939024        25.5521 
 312   0.0000       0.951205        25.8836 
 313   0.0000       0.971920        26.4473 
 314   0.0000       0.981492        26.7078 
 315   0.0000       0.991678        26.9849 
 316   0.0000       1.008232        27.4354 
 317   0.0000       1.025154        27.8959 
 318   0.0000       1.028274        27.9808 
 319   0.0000       1.033318        28.1180 
 320   0.0000       1.040180        28.3047 
 321   0.0000       1.056438        28.7471 
 322   0.0000       1.063040        28.9268 
 323   0.0000       1.068843        29.0847 
 324   0.0000       1.092751        29.7353 
 325   0.0000       1.113797        30.3080 
 326   0.0000       1.125053        30.6143 
 327   0.0000       1.137374        30.9495 
 328   0.0000       1.161353        31.6020 
 329   0.0000       1.172637        31.9091 
 330   0.0000       1.182555        32.1790 
 331   0.0000       1.210618        32.9426 
 332   0.0000       1.228107        33.4185 
 333   0.0000       1.245910        33.9029 
 334   0.0000       1.254799        34.1448 
 335   0.0000       1.264853        34.4184 
 336   0.0000       1.282687        34.9037 
 337   0.0000       1.291628        35.1470 
 338   0.0000       1.295618        35.2556 
 339   0.0000       1.305540        35.5255 
 340   0.0000       1.316413        35.8214 
 341   0.0000       1.325090        36.0575 
 342   0.0000       1.339260        36.4431 
 343   0.0000       1.350887        36.7595 
 344   0.0000       1.358750        36.9735 
 345   0.0000       1.371535        37.3214 
 346   0.0000       1.384154        37.6648 
 347   0.0000       1.402378        38.1607 
 348   0.0000       1.408485        38.3268 
 349   0.0000       1.415384        38.5146 
 350   0.0000       1.426487        38.8167 
 351   0.0000       1.434166        39.0256 
 352   0.0000       1.450878        39.4804 
 353   0.0000       1.454834        39.5880 
 354   0.0000       1.464335        39.8466 
 355   0.0000       1.476754        40.1845 
 356   0.0000       1.478224        40.2245 
 357   0.0000       1.501126        40.8477 
 358   0.0000       1.506419        40.9918 
 359   0.0000       1.508414        41.0460 
 360   0.0000       1.517107        41.2826 
 361   0.0000       1.521030        41.3893 
 362   0.0000       1.526128        41.5281 
 363   0.0000       1.549505        42.1642 
 364   0.0000       1.559171        42.4272 
 365   0.0000       1.567994        42.6673 
 366   0.0000       1.578041        42.9407 
 367   0.0000       1.588592        43.2278 
 368   0.0000       1.598738        43.5039 
 369   0.0000       1.607158        43.7330 
 370   0.0000       1.619080        44.0574 
 371   0.0000       1.621178        44.1145 
 372   0.0000       1.627671        44.2912 
 373   0.0000       1.637263        44.5522 
 374   0.0000       1.645097        44.7654 
 375   0.0000       1.655146        45.0388 
 376   0.0000       1.665684        45.3256 
 377   0.0000       1.676068        45.6081 
 378   0.0000       1.681717        45.7618 
 379   0.0000       1.682562        45.7848 
 380   0.0000       1.687497        45.9191 
 381   0.0000       1.690972        46.0137 
 382   0.0000       1.695381        46.1337 
 383   0.0000       1.705483        46.4086 
 384   0.0000       1.714063        46.6420 
 385   0.0000       1.719573        46.7920 
 386   0.0000       1.723961        46.9114 
 387   0.0000       1.732592        47.1462 
 388   0.0000       1.736175        47.2437 
 389   0.0000       1.741746        47.3953 
 390   0.0000       1.745839        47.5067 
 391   0.0000       1.749016        47.5932 
 392   0.0000       1.757440        47.8224 
 393   0.0000       1.759850        47.8880 
 394   0.0000       1.764584        48.0168 
 395   0.0000       1.771105        48.1942 
 396   0.0000       1.775710        48.3195 
 397   0.0000       1.786851        48.6227 
 398   0.0000       1.789353        48.6908 
 399   0.0000       1.797944        48.9245 
 400   0.0000       1.798402        48.9370 
 401   0.0000       1.807387        49.1815 
 402   0.0000       1.809457        49.2378 
 403   0.0000       1.815418        49.4000 
 404   0.0000       1.820200        49.5302 
 405   0.0000       1.826923        49.7131 
 406   0.0000       1.828756        49.7630 
 407   0.0000       1.846433        50.2440 
 408   0.0000       1.851755        50.3888 
 409   0.0000       1.856696        50.5233 
 410   0.0000       1.865289        50.7571 
 411   0.0000       1.873242        50.9735 
 412   0.0000       1.879073        51.1322 
 413   0.0000       1.881546        51.1995 
 414   0.0000       1.892178        51.4888 
 415   0.0000       1.902068        51.7579 
 416   0.0000       1.905465        51.8503 
 417   0.0000       1.909402        51.9575 
 418   0.0000       1.914139        52.0864 
 419   0.0000       1.921005        52.2732 
 420   0.0000       1.929695        52.5097 
 421   0.0000       1.932036        52.5734 
 422   0.0000       1.944186        52.9040 
 423   0.0000       1.951700        53.1084 
 424   0.0000       1.952718        53.1361 
 425   0.0000       1.962758        53.4094 
 426   0.0000       1.965155        53.4746 
 427   0.0000       1.969308        53.5876 
 428   0.0000       1.974372        53.7254 
 429   0.0000       1.981562        53.9210 
 430   0.0000       1.983096        53.9628 
 431   0.0000       1.986684        54.0604 
 432   0.0000       1.988486        54.1094 
 433   0.0000       1.993792        54.2538 
 434   0.0000       1.999742        54.4158 
 435   0.0000       2.002197        54.4825 
 436   0.0000       2.007927        54.6385 
 437   0.0000       2.011024        54.7227 
 438   0.0000       2.014818        54.8260 
 439   0.0000       2.021139        54.9980 
 440   0.0000       2.022898        55.0458 
 441   0.0000       2.028610        55.2013 
 442   0.0000       2.031590        55.2824 
 443   0.0000       2.044523        55.6343 
[...]

 --------------
 Nucleus  47H :
 --------------

Diamagnetic contribution to the shielding tensor (ppm) : 
            34.016         -3.618        -6.002
            -4.480         37.269         6.895
            -5.972          8.294        44.565

Paramagnetic contribution to the shielding tensor (ppm): 
            -2.291          1.520         3.767
             2.147         -9.549        -3.864
             3.029         -4.601       -10.205

Total shielding tensor (ppm): 
            31.724         -2.098        -2.235
            -2.333         27.719         3.031
            -2.943          3.692        34.361


 Diagonalized sT*s matrix:
 
 sDSO            32.618           31.633           51.599  iso=      38.617
 sPSO            -6.543           -1.492          -14.011  iso=      -7.348
        ---------------  ---------------  ---------------
 Total           26.075           30.141           37.589  iso=      31.268

 --------------
 Nucleus  48H :
 --------------

Diamagnetic contribution to the shielding tensor (ppm) : 
            35.825          0.011        -2.599
            -1.703         38.859        -6.143
            -1.391         -1.063        43.927

Paramagnetic contribution to the shielding tensor (ppm): 
            -4.171          1.113         3.187
             2.140        -11.962         2.996
             1.434         -1.178       -13.159

Total shielding tensor (ppm): 
            31.654          1.124         0.588
             0.437         26.897        -3.148
             0.042         -2.242        30.768


 Diagonalized sT*s matrix:
 
 sDSO            37.425           35.227           45.958  iso=      39.537
 sPSO           -12.022           -3.475          -13.794  iso=      -9.764
        ---------------  ---------------  ---------------
 Total           25.403           31.752           32.164  iso=      29.773

 --------------
 Nucleus  52H :
 --------------

Diamagnetic contribution to the shielding tensor (ppm) : 
            43.315          3.085        -8.231
            10.315         24.811        -3.457
           -11.513         -3.638        50.162

Paramagnetic contribution to the shielding tensor (ppm): 
           -15.546         -0.241        12.279
            -7.608         -0.519         4.936
            14.326          4.682       -23.384

Total shielding tensor (ppm): 
            27.768          2.845         4.047
             2.707         24.292         1.479
             2.813          1.044        26.779


 Diagonalized sT*s matrix:
 
 sDSO            27.881           53.554           36.854  iso=      39.429
 sPSO            -5.266          -29.208           -4.975  iso=     -13.150
        ---------------  ---------------  ---------------
 Total           22.615           24.346           31.879  iso=      26.280

 --------------
 Nucleus  53H :
 --------------

Diamagnetic contribution to the shielding tensor (ppm) : 
            47.911          6.696       -10.408
             4.221         35.309        -6.107
            -4.445         -6.583        52.998

Paramagnetic contribution to the shielding tensor (ppm): 
           -18.447         -5.864        17.340
            -3.561        -13.690         8.320
            10.410          7.769       -25.928

Total shielding tensor (ppm): 
            29.465          0.832         6.932
             0.661         21.619         2.213
             5.965          1.186        27.070


 Diagonalized sT*s matrix:
 
 sDSO            52.824           40.767           42.627  iso=      45.406
 sPSO           -32.098          -18.369           -7.596  iso=     -19.355
        ---------------  ---------------  ---------------
 Total           20.726           22.397           35.031  iso=      26.051

 --------------
 Nucleus  57H :
 --------------

Diamagnetic contribution to the shielding tensor (ppm) : 
            34.584         -1.277        -3.003
             8.681         34.587        12.438
            -3.507          5.578        38.988

Paramagnetic contribution to the shielding tensor (ppm): 
            -6.616         -0.087         1.811
            -9.921         -2.241        -8.951
             2.924         -3.772       -10.647

Total shielding tensor (ppm): 
            27.968         -1.364        -1.191
            -1.239         32.346         3.487
            -0.583          1.806        28.340


 Diagonalized sT*s matrix:
 
 sDSO            29.469           37.069           41.620  iso=      36.053
 sPSO            -2.514           -9.430           -7.560  iso=      -6.501
        ---------------  ---------------  ---------------
 Total           26.955           27.639           34.060  iso=      29.551

 --------------
 Nucleus  58H :
 --------------

Diamagnetic contribution to the shielding tensor (ppm) : 
            36.197          3.182         8.213
             6.856         18.701         8.813
            13.671          3.530        25.916

Paramagnetic contribution to the shielding tensor (ppm): 
            -4.037          0.826        -5.036
            -3.641          9.713        -7.919
           -10.537         -2.293         4.477

Total shielding tensor (ppm): 
            32.159          4.008         3.177
             3.215         28.414         0.895
             3.133          1.237        30.393


 Diagonalized sT*s matrix:
 
 sDSO            19.768           16.520           44.527  iso=      26.938
 sPSO             6.279           12.208           -8.334  iso=       3.384
        ---------------  ---------------  ---------------
 Total           26.047           28.728           36.192  iso=      30.322

 --------------
 Nucleus  61H :
 --------------

Diamagnetic contribution to the shielding tensor (ppm) : 
            36.169         -4.513        -5.882
             3.608         22.006        11.611
           -10.589          8.842        34.127

Paramagnetic contribution to the shielding tensor (ppm): 
            -5.261          3.542         2.827
            -4.528          7.383       -10.119
             7.983         -7.261        -2.835

Total shielding tensor (ppm): 
            30.909         -0.971        -3.055
            -0.920         29.389         1.492
            -2.606          1.580        31.291


 Diagonalized sT*s matrix:
 
 sDSO            20.141           26.312           45.850  iso=      30.767
 sPSO             7.954            2.638          -11.304  iso=      -0.238
        ---------------  ---------------  ---------------
 Total           28.094           28.949           34.545  iso=      30.530

 --------------
 Nucleus  62H :
 --------------

Diamagnetic contribution to the shielding tensor (ppm) : 
            40.228          4.705         4.248
            17.976         17.799         9.919
            -0.696          8.667        18.794

Paramagnetic contribution to the shielding tensor (ppm): 
            -5.919          0.776        -2.566
           -12.606         12.268        -9.936
             1.783         -8.617         9.632

Total shielding tensor (ppm): 
            34.308          5.480         1.682
             5.371         30.067        -0.017
             1.086          0.049        28.426


 Diagonalized sT*s matrix:
 
 sDSO            19.196           12.644           44.980  iso=      25.607
 sPSO             6.901           15.910           -6.830  iso=       5.327
        ---------------  ---------------  ---------------
 Total           26.097           28.554           38.150  iso=      30.934

 --------------
 Nucleus  63H :
 --------------

Diamagnetic contribution to the shielding tensor (ppm) : 
            32.808         -0.918         0.282
            20.573         30.770        -2.385
           -12.640         -6.944        34.734

Paramagnetic contribution to the shielding tensor (ppm): 
            -3.976          1.631         0.353
           -19.368          1.761        -3.096
            13.880          1.586        -3.949

Total shielding tensor (ppm): 
            28.832          0.714         0.635
             1.205         32.531        -5.480
             1.240         -5.358        30.785


 Diagonalized sT*s matrix:
 
 sDSO            27.848           33.085           37.380  iso=      32.771
 sPSO            -2.233           -3.700           -0.231  iso=      -2.055
        ---------------  ---------------  ---------------
 Total           25.615           29.385           37.149  iso=      30.716

 --------------
 Nucleus  64H :
 --------------

Diamagnetic contribution to the shielding tensor (ppm) : 
            35.724         -7.816        -4.159
            -8.127         16.044         0.766
            -0.849          7.412        25.298

Paramagnetic contribution to the shielding tensor (ppm): 
            -2.302          5.757        -0.277
             4.941         12.796        -0.774
            -3.234         -8.351         4.873

Total shielding tensor (ppm): 
            33.422         -2.059        -4.436
            -3.186         28.840        -0.007
            -4.083         -0.939        30.171


 Diagonalized sT*s matrix:
 
 sDSO            21.469           17.551           38.046  iso=      25.689
 sPSO             4.418           12.170           -1.222  iso=       5.122
        ---------------  ---------------  ---------------
 Total           25.888           29.721           36.824  iso=      30.811

 --------------
 Nucleus  65H :
 --------------

Diamagnetic contribution to the shielding tensor (ppm) : 
            34.013         -2.467         6.087
           -10.629         30.899        -2.776
             5.311          7.470        27.045

Paramagnetic contribution to the shielding tensor (ppm): 
            -2.449          3.196        -1.920
            11.890          2.028         4.778
            -1.141         -5.418         2.249

Total shielding tensor (ppm): 
            31.564          0.729         4.167
             1.261         32.927         2.002
             4.170          2.052        29.294


 Diagonalized sT*s matrix:
 
 sDSO            22.465           37.684           31.807  iso=      30.652
 sPSO             3.488           -5.938            4.278  iso=       0.609
        ---------------  ---------------  ---------------
 Total           25.953           31.746           36.085  iso=      31.261

 --------------
 Nucleus  66H :
 --------------

Diamagnetic contribution to the shielding tensor (ppm) : 
            27.021         -7.504         9.633
           -14.075         23.099       -10.802
            10.901         -8.088        19.178

Paramagnetic contribution to the shielding tensor (ppm): 
             3.694          2.837        -6.873
             9.371          9.128         7.076
            -8.342          5.212        11.392

Total shielding tensor (ppm): 
            30.715         -4.667         2.759
            -4.704         32.226        -3.727
             2.559         -2.877        30.570


 Diagonalized sT*s matrix:
 
 sDSO            14.701           11.302           43.295  iso=      23.099
 sPSO            12.017           17.006           -4.810  iso=       8.071
        ---------------  ---------------  ---------------
 Total           26.718           28.308           38.485  iso=      31.170

 --------------
 Nucleus  67H :
 --------------

Diamagnetic contribution to the shielding tensor (ppm) : 
            27.325         -2.290        -7.705
            -4.013         29.287         5.985
             4.271          0.935        40.754

Paramagnetic contribution to the shielding tensor (ppm): 
             2.159         -0.948         5.207
             1.919          0.699        -3.236
            -7.126          2.955        -8.174

Total shielding tensor (ppm): 
            29.483         -3.238        -2.498
            -2.094         29.986         2.749
            -2.855          3.890        32.580


 Diagonalized sT*s matrix:
 
 sDSO            25.122           32.312           39.931  iso=      32.455
 sPSO             1.906           -4.047           -3.176  iso=      -1.772
        ---------------  ---------------  ---------------
 Total           27.028           28.266           36.756  iso=      30.683

 --------------
 Nucleus  68H :
 --------------

Diamagnetic contribution to the shielding tensor (ppm) : 
            20.344          0.011         5.278
            -2.171         22.738        -7.204
            18.327        -10.414        36.830

Paramagnetic contribution to the shielding tensor (ppm): 
             7.865         -0.773        -3.803
             0.606          4.878         3.370
           -16.393          6.939        -0.668

Total shielding tensor (ppm): 
            28.209         -0.762         1.475
            -1.564         27.616        -3.834
             1.934         -3.475        36.162


 Diagonalized sT*s matrix:
 
 sDSO            20.374           14.894           44.644  iso=      26.637
 sPSO             5.748           13.046           -6.719  iso=       4.025
        ---------------  ---------------  ---------------
 Total           26.123           27.940           37.925  iso=      30.662

 --------------
 Nucleus  69H :
 --------------

Diamagnetic contribution to the shielding tensor (ppm) : 
            34.816         10.019        -5.451
             2.550         28.040        -3.443
             6.289         -6.764        41.913

Paramagnetic contribution to the shielding tensor (ppm): 
            -1.542         -6.297         6.612
             1.383          0.452         2.108
            -6.003          5.669       -11.421

Total shielding tensor (ppm): 
            33.274          3.723         1.161
             3.933         28.492        -1.335
             0.286         -1.095        30.491


 Diagonalized sT*s matrix:
 
 sDSO            23.195           43.082           38.491  iso=      34.923
 sPSO             2.736          -12.153           -3.095  iso=      -4.170
        ---------------  ---------------  ---------------
 Total           25.932           30.929           35.396  iso=      30.752

 --------------
 Nucleus  70H :
 --------------

Diamagnetic contribution to the shielding tensor (ppm) : 
            31.572          1.214         3.641
            -6.877         40.399         7.601
             0.117          9.524        35.767

Paramagnetic contribution to the shielding tensor (ppm): 
             0.528         -1.166        -3.049
             8.156        -10.116        -1.963
             1.375         -4.797        -7.331

Total shielding tensor (ppm): 
            32.100          0.048         0.592
             1.279         30.284         5.638
             1.492          4.727        28.436


 Diagonalized sT*s matrix:
 
 sDSO            28.939           34.737           44.063  iso=      35.913
 sPSO            -4.860           -3.084           -8.974  iso=      -5.640
        ---------------  ---------------  ---------------
 Total           24.079           31.652           35.089  iso=      30.273

 --------------
 Nucleus  71H :
 --------------

Diamagnetic contribution to the shielding tensor (ppm) : 
            28.622         -6.241         0.875
           -12.332         40.264        -6.892
            -0.417         -5.164        34.336

Paramagnetic contribution to the shielding tensor (ppm): 
             2.400          4.139         0.663
            10.827         -7.328         4.210
             1.201          2.816        -4.584

Total shielding tensor (ppm): 
            31.022         -2.101         1.539
            -1.504         32.936        -2.682
             0.784         -2.348        29.751


 Diagonalized sT*s matrix:
 
 sDSO            31.302           24.423           47.497  iso=      34.407
 sPSO            -2.946            5.558          -12.124  iso=      -3.171
        ---------------  ---------------  ---------------
 Total           28.356           29.981           35.373  iso=      31.237

 --------------
 Nucleus  72H :
 --------------

Diamagnetic contribution to the shielding tensor (ppm) : 
            37.080         -8.283        -7.581
           -13.258         27.599        -1.046
            -9.579          6.036        30.126

Paramagnetic contribution to the shielding tensor (ppm): 
            -2.413          6.630         3.850
            11.028          1.113         4.327
             6.191         -3.807        -1.330

Total shielding tensor (ppm): 
            34.667         -1.653        -3.731
            -2.230         28.712         3.281
            -3.387          2.229        28.796


 Diagonalized sT*s matrix:
 
 sDSO            27.059           20.114           47.631  iso=      31.602
 sPSO            -1.260            8.893          -10.263  iso=      -0.877
        ---------------  ---------------  ---------------
 Total           25.800           29.007           37.368  iso=      30.725



--------------------------------
CHEMICAL SHIELDING SUMMARY (ppm)
--------------------------------


  Nucleus  Element    Isotropic     Anisotropy
  -------  -------  ------------   ------------
      3       H           29.364          6.477 
      4       H           29.050          7.427 
      8       H           29.570          7.958 
      9       H           29.339          5.425 
     10       H           30.103          8.372 
     11       H           29.859         10.219 
     13       H           27.732          7.778 
     16       H           26.800          4.699 
     17       H           26.514          4.774 
     19       H           25.401         10.422 
     21       H           25.591         14.930 
     24       H           28.900         10.168 
     25       H           30.014          9.459 
     27       H           30.240          7.186 
     28       H           30.119         11.793 
     30       H           29.734          8.015 
     31       H           30.414          6.842 
     33       H           29.771          4.013 
     35       H           30.158         14.834 
     37       H           30.366         10.665 
     38       H           30.278          9.933 
     40       H           29.729          9.603 
     41       H           30.759          7.633 
     42       H           30.137          7.712 
     45       H           31.234          7.501 
     46       H           31.014          8.067 
     47       H           31.268          9.481 
     48       H           29.773          3.587 
     52       H           26.280          8.399 
     53       H           26.051         13.469 
     57       H           29.551          6.764 
     58       H           30.322          8.805 
     61       H           30.530          6.023 
     62       H           30.934         10.824 
     63       H           30.716          9.649 
     64       H           30.811          9.020 
     65       H           31.261          7.236 
     66       H           31.170         10.972 
     67       H           30.683          9.109 
     68       H           30.662         10.894 
     69       H           30.752          6.966 
     70       H           30.273          7.223 
     71       H           31.237          6.204 
     72       H           30.725          9.965 



Maximum memory used throughout the entire EPRNMR-calculation: 141.5 MB

Timings for individual modules:

Sum of individual times         ...      144.870 sec (=   2.414 min)
GTO integral calculation        ...        0.850 sec (=   0.014 min)   0.6 %
SCF iterations                  ...       98.608 sec (=   1.643 min)  68.1 %
EPR/NMR calculation             ...       45.412 sec (=   0.757 min)  31.3 %
                             ****ORCA TERMINATED NORMALLY****
TOTAL RUN TIME: 0 days 0 hours 2 minutes 25 seconds 377 msec
