
                                 *****************
                                 * O   R   C   A *
                                 *****************

                                            #,                                       
                                            ###                                      
                                            ####                                     
                                            #####                                    
                                            ######                                   
                                           ########,                                 
                                     ,,################,,,,,                         
                               ,,#################################,,                 
                          ,,##########################################,,             
                       ,#########################################, ''#####,          
                    ,#############################################,,   '####,        
                  ,##################################################,,,,####,       
                ,###########''''           ''''###############################       
              ,#####''   ,,,,##########,,,,          '''####'''          '####       
            ,##' ,,,,###########################,,,                        '##       
           ' ,,###''''                  '''############,,,                           
         ,,##''                                '''############,,,,        ,,,,,,###''
      ,#''                                            '''#######################'''  
     '                                                          ''''####''''         
             ,#######,   #######,   ,#######,      ##                                
            ,#'     '#,  ##    ##  ,#'     '#,    #''#        ######   ,####,        
            ##       ##  ##   ,#'  ##            #'  '#       #        #'  '#        
            ##       ##  #######   ##           ,######,      #####,   #    #        
            '#,     ,#'  ##    ##  '#,     ,#' ,#      #,         ##   #,  ,#        
             '#######'   ##     ##  '#######'  #'      '#     #####' # '####'        



                  #######################################################
                  #                        -***-                        #
                  #          Department of theory and spectroscopy      #
                  #    Directorship and core code : Frank Neese         #
                  #        Max Planck Institute fuer Kohlenforschung    #
                  #                Kaiser Wilhelm Platz 1               #
                  #                 D-45470 Muelheim/Ruhr               #
                  #                      Germany                        #
                  #                                                     #
                  #                  All rights reserved                #
                  #                        -***-                        #
                  #######################################################


                         Program Version 5.0.2 -  RELEASE  -


 With contributions from (in alphabetic order):
   Daniel Aravena         : Magnetic Suceptibility
   Michael Atanasov       : Ab Initio Ligand Field Theory (pilot matlab implementation)
   Alexander A. Auer      : GIAO ZORA, VPT2 properties, NMR spectrum
   Ute Becker             : Parallelization
   Giovanni Bistoni       : ED, misc. LED, open-shell LED, HFLD
   Martin Brehm           : Molecular dynamics
   Dmytro Bykov           : SCF Hessian
   Vijay G. Chilkuri      : MRCI spin determinant printing, contributions to CSF-ICE
   Dipayan Datta          : RHF DLPNO-CCSD density
   Achintya Kumar Dutta   : EOM-CC, STEOM-CC
   Dmitry Ganyushin       : Spin-Orbit,Spin-Spin,Magnetic field MRCI
   Miquel Garcia          : C-PCM and meta-GGA Hessian, CC/C-PCM, Gaussian charge scheme
   Yang Guo               : DLPNO-NEVPT2, F12-NEVPT2, CIM, IAO-localization
   Andreas Hansen         : Spin unrestricted coupled pair/coupled cluster methods
   Benjamin Helmich-Paris : MC-RPA, TRAH-SCF, COSX integrals
   Lee Huntington         : MR-EOM, pCC
   Robert Izsak           : Overlap fitted RIJCOSX, COSX-SCS-MP3, EOM
   Marcus Kettner         : VPT2
   Christian Kollmar      : KDIIS, OOCD, Brueckner-CCSD(T), CCSD density, CASPT2, CASPT2-K
   Simone Kossmann        : Meta GGA functionals, TD-DFT gradient, OOMP2, MP2 Hessian
   Martin Krupicka        : Initial AUTO-CI
   Lucas Lang             : DCDCAS
   Marvin Lechner         : AUTO-CI (C++ implementation), FIC-MRCC
   Dagmar Lenk            : GEPOL surface, SMD
   Dimitrios Liakos       : Extrapolation schemes; Compound Job, initial MDCI parallelization
   Dimitrios Manganas     : Further ROCIS development; embedding schemes
   Dimitrios Pantazis     : SARC Basis sets
   Anastasios Papadopoulos: AUTO-CI, single reference methods and gradients
   Taras Petrenko         : DFT Hessian,TD-DFT gradient, ASA, ECA, R-Raman, ABS, FL, XAS/XES, NRVS
   Peter Pinski           : DLPNO-MP2, DLPNO-MP2 Gradient
   Christoph Reimann      : Effective Core Potentials
   Marius Retegan         : Local ZFS, SOC
   Christoph Riplinger    : Optimizer, TS searches, QM/MM, DLPNO-CCSD(T), (RO)-DLPNO pert. Triples
   Tobias Risthaus        : Range-separated hybrids, TD-DFT gradient, RPA, STAB
   Michael Roemelt        : Original ROCIS implementation
   Masaaki Saitow         : Open-shell DLPNO-CCSD energy and density
   Barbara Sandhoefer     : DKH picture change effects
   Avijit Sen             : IP-ROCIS
   Kantharuban Sivalingam : CASSCF convergence, NEVPT2, FIC-MRCI
   Bernardo de Souza      : ESD, SOC TD-DFT
   Georgi Stoychev        : AutoAux, RI-MP2 NMR, DLPNO-MP2 response
   Willem Van den Heuvel  : Paramagnetic NMR
   Boris Wezisla          : Elementary symmetry handling
   Frank Wennmohs         : Technical directorship


 We gratefully acknowledge several colleagues who have allowed us to
 interface, adapt or use parts of their codes:
   Stefan Grimme, W. Hujo, H. Kruse, P. Pracht,  : VdW corrections, initial TS optimization,
                  C. Bannwarth, S. Ehlert          DFT functionals, gCP, sTDA/sTD-DF
   Ed Valeev, F. Pavosevic, A. Kumar             : LibInt (2-el integral package), F12 methods
   Garnet Chan, S. Sharma, J. Yang, R. Olivares  : DMRG
   Ulf Ekstrom                                   : XCFun DFT Library
   Mihaly Kallay                                 : mrcc  (arbitrary order and MRCC methods)
   Jiri Pittner, Ondrej Demel                    : Mk-CCSD
   Frank Weinhold                                : gennbo (NPA and NBO analysis)
   Christopher J. Cramer and Donald G. Truhlar   : smd solvation model
   Lars Goerigk                                  : TD-DFT with DH, B97 family of functionals
   V. Asgeirsson, H. Jonsson                     : NEB implementation
   FAccTs GmbH                                   : IRC, NEB, NEB-TS, DLPNO-Multilevel, CI-OPT
                                                   MM, QMMM, 2- and 3-layer-ONIOM, Crystal-QMMM,
                                                   LR-CPCM, SF, NACMEs, symmetry and pop. for TD-DFT,
                                                   nearIR, NL-DFT gradient (VV10), updates on ESD,
                                                   ML-optimized integration grids
   S Lehtola, MJT Oliveira, MAL Marques          : LibXC Library
   Liviu Ungur et al                             : ANISO software


 Your calculation uses the libint2 library for the computation of 2-el integrals
 For citations please refer to: http://libint.valeyev.net

 Your ORCA version has been built with support for libXC version: 5.1.0
 For citations please refer to: https://tddft.org/programs/libxc/

 This ORCA versions uses:
   CBLAS   interface :  Fast vector & matrix operations
   LAPACKE interface :  Fast linear algebra routines
   SCALAPACK package :  Parallel linear algebra routines
   Shared memory     :  Shared parallel matrices
   BLAS/LAPACK       :  OpenBLAS 0.3.15  USE64BITINT DYNAMIC_ARCH NO_AFFINITY Zen SINGLE_THREADED
        Core in use  :  Zen
   Copyright (c) 2011-2014, The OpenBLAS Project


Your calculation utilizes the atom-pairwise dispersion correction
based on tight binding partial charges (D4)
Cite in your paper:
E.Caldeweyher, C.Bannwarth, S.Grimme, J.Chem.Phys., (2017), 147, 034112.
E.Caldeweyher, S.Ehlert, A.Hansen, H.Neugebauer, S.Grimme, J.Chem.Phys., (2018), in progress.
   

================================================================================

----- Orbital basis set information -----
Your calculation utilizes the basis: pcJ-0
   F. Jensen, Theor. Chem. Acc. 126, 371 (2010).

----- AuxJ basis set information -----
Your calculation utilizes the auxiliary basis: def2/J
   F. Weigend, Phys. Chem. Chem. Phys. 8, 1057 (2006).

================================================================================
                                        WARNINGS
                       Please study these warnings very carefully!
================================================================================


INFO   : the flag for use of the SHARK integral package has been found!

================================================================================
                                       INPUT FILE
================================================================================
NAME = inpJ
|  1> ! pbe0
|  2> ! D4
|  3> ! pcJ-0
|  4> ! def2/J RIJCOSX
|  5> ! DEFGRID2
|  6> ! scfconv7
|  7> ! smallprint printgap noloewdin
|  8> ! NOSOSCF
|  9> %MaxCore 4000
| 10> %output
| 11>        print[P_BondOrder_M] 1
| 12>        print[P_Mayer] 1
| 13>        print[P_basis] 2
| 14> end
| 15> %pal
| 16>     nprocs 4
| 17> end
| 18> ! CPCM(chloroform)
| 19> *xyz 0 1
| 20> C   -5.0207103100   0.3046406100   0.3236680900
| 21> C   -6.4269711900  -0.1326767100  -0.0126531700
| 22> C   -6.9809103000   0.6197688000  -1.2286278200
| 23> H   -7.0925836500   0.0886533000   0.8389792000
| 24> H   -6.4636488800  -1.2126048900  -0.1933154700
| 25> C   -4.8502562000   1.7693149100   0.4295897600
| 26> C   -5.4493190900   2.5535336700  -0.7160046400
| 27> C   -6.8946984500   2.1251919700  -1.0039005900
| 28> H   -4.8459679100   2.3670002900  -1.6174300600
| 29> H   -5.3994948200   3.6272111200  -0.5062850600
| 30> H   -7.2787039100   2.6529852000  -1.8848114900
| 31> H   -7.5357458700   2.3910182000  -0.1498069500
| 32> O   -8.3182050900   0.2015715300  -1.5321683400
| 33> H   -6.3922335000   0.3490338100  -2.1163258700
| 34> C   -4.0252771400  -0.6029624300   0.4616803500
| 35> C   -4.2577914400   2.3679662700   1.4692100100
| 36> H   -3.8557481900   1.7935483000   2.2990732000
| 37> H   -4.1725525900   3.4510216600   1.5164662600
| 38> C   -2.6274838700  -0.3171397200   0.6871449900
| 39> H   -4.3101325900  -1.6482703700   0.3501422600
| 40> C   -1.6485310600  -1.2225970200   0.9003643400
| 41> H   -2.3476412200   0.7337347800   0.6704684900
| 42> C   -1.8371166700  -2.7149949500   1.0042625300
| 43> C   -0.8926951400  -3.4797030100   0.0576963200
| 44> H   -2.8719961700  -3.0167735300   0.8209262700
| 45> H   -1.5996842300  -3.0120378800   2.0384648500
| 46> C    0.5706208000  -3.0380055100   0.1980769500
| 47> H   -1.2263571000  -3.3324269600  -0.9772174700
| 48> H   -0.9729311700  -4.5547076100   0.2606586600
| 49> C    0.7265030400  -1.5199007600   0.0336615900
| 50> H    1.1780342400  -3.5827449100  -0.5321909600
| 51> H    0.9395056500  -3.3192660800   1.1960536700
| 52> C   -0.2118896000  -0.8372057600   1.0787820000
| 53> H    0.1039198100  -1.2608403900   2.0502913100
| 54> C    0.2190085900   0.6264777200   1.0676243000
| 55> H   -8.8733564600   0.4279343100  -0.7739776600
| 56> C    1.7510356200   0.5516188800   0.8538709300
| 57> H   -0.0580487500   1.1449763500   1.9915852300
| 58> H   -0.2572810900   1.1645586200   0.2403592900
| 59> C    2.0900013000  -0.9221397500   0.4781153100
| 60> H    2.3045150200   0.8581047300   1.7470912400
| 61> H    2.0680223900   1.2255077400   0.0491366300
| 62> H    2.3789823000  -1.4604637100   1.3957277100
| 63> C    3.2893335800  -0.9973476500  -0.4879916800
| 64> C    0.3738804500  -1.0799021500  -1.3933897400
| 65> H   -0.6891741900  -1.2285213400  -1.6065931400
| 66> H    0.9492271100  -1.6535829000  -2.1284672800
| 67> H    0.5939145700  -0.0197648500  -1.5539800600
| 68> H    3.0342776400  -0.4392096500  -1.4011182000
| 69> C    3.6711469700  -2.4330646700  -0.8794597000
| 70> C    4.4809298900  -0.3275656500   0.1434034100
| 71> C    5.1388984800   0.7139602300  -0.3614837400
| 72> H    4.8237912000  -0.7646807300   1.0867305900
| 73> H    4.7950002200   1.1494047900  -1.3053562900
| 74> C    6.3246847400   1.3887491100   0.2696697100
| 75> C    5.9409096300   2.8287072900   0.6476902900
| 76> C    7.5574954400   1.3381917600  -0.6664346500
| 77> H    6.5836927700   0.8419383300   1.1905915900
| 78> H    7.2757196500   1.8459357400  -1.6032832400
| 79> C    7.9359580000  -0.1080476900  -0.9965249900
| 80> C    8.7642221000   2.0672756000  -0.0683424200
| 81> H    5.0199123100   2.8341044300   1.2398910600
| 82> H    5.7665577900   3.4294723400  -0.2538796500
| 83> H    6.7227450300   3.3172999100   1.2365021800
| 84> H    8.7978784400  -0.1403041800  -1.6719965900
| 85> H    7.1078559400  -0.6449534400  -1.4689602600
| 86> H    8.2054783000  -0.6493454700  -0.0800834900
| 87> H    9.0086195400   1.6557666300   0.9196227000
| 88> H    8.5889769800   3.1408322400   0.0448965100
| 89> H    9.6434753600   1.9405464900  -0.7095310600
| 90> H    4.6035660700  -2.4327916900  -1.4542582100
| 91> H    2.8991978000  -2.9046256700  -1.4928215200
| 92> H    3.8231473200  -3.0522019800   0.0131575500
| 93> *
| 94> %eprnmr
| 95>  Nuclei = all H { ssfc }
| 96>  SpinSpinRThresh 8.0
| 97> end
| 98> 
| 99>                          ****END OF INPUT****
================================================================================

                       ****************************
                       * Single Point Calculation *
                       ****************************

---------------------------------
CARTESIAN COORDINATES (ANGSTROEM)
---------------------------------
  C     -5.020710    0.304641    0.323668
  C     -6.426971   -0.132677   -0.012653
  C     -6.980910    0.619769   -1.228628
  H     -7.092584    0.088653    0.838979
  H     -6.463649   -1.212605   -0.193315
  C     -4.850256    1.769315    0.429590
  C     -5.449319    2.553534   -0.716005
  C     -6.894698    2.125192   -1.003901
  H     -4.845968    2.367000   -1.617430
  H     -5.399495    3.627211   -0.506285
  H     -7.278704    2.652985   -1.884811
  H     -7.535746    2.391018   -0.149807
  O     -8.318205    0.201572   -1.532168
  H     -6.392233    0.349034   -2.116326
  C     -4.025277   -0.602962    0.461680
  C     -4.257791    2.367966    1.469210
  H     -3.855748    1.793548    2.299073
  H     -4.172553    3.451022    1.516466
  C     -2.627484   -0.317140    0.687145
  H     -4.310133   -1.648270    0.350142
  C     -1.648531   -1.222597    0.900364
  H     -2.347641    0.733735    0.670468
  C     -1.837117   -2.714995    1.004263
  C     -0.892695   -3.479703    0.057696
  H     -2.871996   -3.016774    0.820926
  H     -1.599684   -3.012038    2.038465
  C      0.570621   -3.038006    0.198077
  H     -1.226357   -3.332427   -0.977217
  H     -0.972931   -4.554708    0.260659
  C      0.726503   -1.519901    0.033662
  H      1.178034   -3.582745   -0.532191
  H      0.939506   -3.319266    1.196054
  C     -0.211890   -0.837206    1.078782
  H      0.103920   -1.260840    2.050291
  C      0.219009    0.626478    1.067624
  H     -8.873356    0.427934   -0.773978
  C      1.751036    0.551619    0.853871
  H     -0.058049    1.144976    1.991585
  H     -0.257281    1.164559    0.240359
  C      2.090001   -0.922140    0.478115
  H      2.304515    0.858105    1.747091
  H      2.068022    1.225508    0.049137
  H      2.378982   -1.460464    1.395728
  C      3.289334   -0.997348   -0.487992
  C      0.373880   -1.079902   -1.393390
  H     -0.689174   -1.228521   -1.606593
  H      0.949227   -1.653583   -2.128467
  H      0.593915   -0.019765   -1.553980
  H      3.034278   -0.439210   -1.401118
  C      3.671147   -2.433065   -0.879460
  C      4.480930   -0.327566    0.143403
  C      5.138898    0.713960   -0.361484
  H      4.823791   -0.764681    1.086731
  H      4.795000    1.149405   -1.305356
  C      6.324685    1.388749    0.269670
  C      5.940910    2.828707    0.647690
  C      7.557495    1.338192   -0.666435
  H      6.583693    0.841938    1.190592
  H      7.275720    1.845936   -1.603283
  C      7.935958   -0.108048   -0.996525
  C      8.764222    2.067276   -0.068342
  H      5.019912    2.834104    1.239891
  H      5.766558    3.429472   -0.253880
  H      6.722745    3.317300    1.236502
  H      8.797878   -0.140304   -1.671997
  H      7.107856   -0.644953   -1.468960
  H      8.205478   -0.649345   -0.080083
  H      9.008620    1.655767    0.919623
  H      8.588977    3.140832    0.044897
  H      9.643475    1.940546   -0.709531
  H      4.603566   -2.432792   -1.454258
  H      2.899198   -2.904626   -1.492822
  H      3.823147   -3.052202    0.013158

----------------------------
CARTESIAN COORDINATES (A.U.)
----------------------------
  NO LB      ZA    FRAG     MASS         X           Y           Z
   0 C     6.0000    0    12.011   -9.487767    0.575687    0.611644
   1 C     6.0000    0    12.011  -12.145215   -0.250723   -0.023911
   2 C     6.0000    0    12.011  -13.192009    1.171193   -2.321770
   3 H     1.0000    0     1.008  -13.403041    0.167530    1.585441
   4 H     1.0000    0     1.008  -12.214526   -2.291491   -0.365313
   5 C     6.0000    0    12.011   -9.165656    3.343521    0.811807
   6 C     6.0000    0    12.011  -10.297721    4.825479   -1.353053
   7 C     6.0000    0    12.011  -13.029092    4.016031   -1.897097
   8 H     1.0000    0     1.008   -9.157552    4.472982   -3.056500
   9 H     1.0000    0     1.008  -10.203566    6.854436   -0.956740
  10 H     1.0000    0     1.008  -13.754757    5.013415   -3.561778
  11 H     1.0000    0     1.008  -14.240496    4.518370   -0.283094
  12 O     8.0000    0    15.999  -15.719130    0.380915   -2.895379
  13 H     1.0000    0     1.008  -12.079571    0.659578   -3.999276
  14 C     6.0000    0    12.011   -7.606671   -1.139434    0.872449
  15 C     6.0000    0    12.011   -8.046060    4.474808    2.776405
  16 H     1.0000    0     1.008   -7.286308    3.389315    4.344619
  17 H     1.0000    0     1.008   -7.884982    6.521486    2.865706
  18 C     6.0000    0    12.011   -4.965225   -0.599307    1.298516
  19 H     1.0000    0     1.008   -8.144970   -3.114780    0.661673
  20 C     6.0000    0    12.011   -3.115272   -2.310374    1.701442
  21 H     1.0000    0     1.008   -4.436399    1.386558    1.267002
  22 C     6.0000    0    12.011   -3.471647   -5.130597    1.897781
  23 C     6.0000    0    12.011   -1.686949   -6.575686    0.109030
  24 H     1.0000    0     1.008   -5.427286   -5.700876    1.551326
  25 H     1.0000    0     1.008   -3.022965   -5.691927    3.852140
  26 C     6.0000    0    12.011    1.078317   -5.740998    0.374311
  27 H     1.0000    0     1.008   -2.317479   -6.297374   -1.846673
  28 H     1.0000    0     1.008   -1.838573   -8.607150    0.492573
  29 C     6.0000    0    12.011    1.372892   -2.872196    0.063611
  30 H     1.0000    0     1.008    2.226162   -6.770407   -1.005695
  31 H     1.0000    0     1.008    1.775408   -6.272504    2.260214
  32 C     6.0000    0    12.011   -0.400413   -1.582090    2.038603
  33 H     1.0000    0     1.008    0.196380   -2.382643    3.874489
  34 C     6.0000    0    12.011    0.413866    1.183871    2.017518
  35 H     1.0000    0     1.008  -16.768214    0.808679   -1.462606
  36 C     6.0000    0    12.011    3.308978    1.042409    1.613582
  37 H     1.0000    0     1.008   -0.109696    2.163692    3.763551
  38 H     1.0000    0     1.008   -0.486191    2.200697    0.454213
  39 C     6.0000    0    12.011    3.949530   -1.742592    0.903507
  40 H     1.0000    0     1.008    4.354902    1.621583    3.301524
  41 H     1.0000    0     1.008    3.907996    2.315874    0.092855
  42 H     1.0000    0     1.008    4.495625   -2.759876    2.637543
  43 C     6.0000    0    12.011    6.215940   -1.884714   -0.922171
  44 C     6.0000    0    12.011    0.706532   -2.040719   -2.633125
  45 H     1.0000    0     1.008   -1.302350   -2.321569   -3.036021
  46 H     1.0000    0     1.008    1.793779   -3.124819   -4.022220
  47 H     1.0000    0     1.008    1.122336   -0.037350   -2.936597
  48 H     1.0000    0     1.008    5.733954   -0.829986   -2.647730
  49 C     6.0000    0    12.011    6.937462   -4.597826   -1.661938
  50 C     6.0000    0    12.011    8.467730   -0.619009    0.270993
  51 C     6.0000    0    12.011    9.711111    1.349189   -0.683105
  52 H     1.0000    0     1.008    9.115644   -1.445037    2.053623
  53 H     1.0000    0     1.008    9.061237    2.172060   -2.466766
  54 C     6.0000    0    12.011   11.951922    2.624355    0.509602
  55 C     6.0000    0    12.011   11.226692    5.345482    1.223957
  56 C     6.0000    0    12.011   14.281597    2.528816   -1.259379
  57 H     1.0000    0     1.008   12.441376    1.591033    2.249892
  58 H     1.0000    0     1.008   13.749118    3.488313   -3.029766
  59 C     6.0000    0    12.011   14.996787   -0.204181   -1.883159
  60 C     6.0000    0    12.011   16.561980    3.906585   -0.129148
  61 H     1.0000    0     1.008    9.486259    5.355681    2.343055
  62 H     1.0000    0     1.008   10.897215    6.480764   -0.479763
  63 H     1.0000    0     1.008   12.704147    6.268788    2.336650
  64 H     1.0000    0     1.008   16.625581   -0.265136   -3.159616
  65 H     1.0000    0     1.008   13.431901   -1.218785   -2.775933
  66 H     1.0000    0     1.008   15.506107   -1.227085   -0.151336
  67 H     1.0000    0     1.008   17.023824    3.128945    1.737835
  68 H     1.0000    0     1.008   16.230814    5.935313    0.084842
  69 H     1.0000    0     1.008   18.223527    3.667101   -1.340819
  70 H     1.0000    0     1.008    8.699479   -4.597310   -2.748150
  71 H     1.0000    0     1.008    5.478690   -5.488947   -2.821024
  72 H     1.0000    0     1.008    7.224701   -5.767826    0.024864

--------------------------------
INTERNAL COORDINATES (ANGSTROEM)
--------------------------------
 C      0   0   0     0.000000000000     0.00000000     0.00000000
 C      1   0   0     1.510605206835     0.00000000     0.00000000
 C      2   1   0     1.533498331447   111.76287202     0.00000000
 H      2   1   3     1.103315283074   109.37109983   241.45376024
 H      2   1   3     1.095549630799   110.68629056   122.88888503
 C      1   2   3     1.478358822773   114.21145422    50.41736885
 C      6   1   2     1.512039000496   114.44903301   312.14407649
 C      3   2   1     1.524543778236   110.31657811   305.04063025
 H      7   6   1     1.100633970075   108.38679477   289.89269984
 H      7   6   1     1.095101833966   110.20512969   172.69696033
 H      8   3   2     1.096371242181   109.70139893   179.13298433
 H      8   3   2     1.100491401663   108.66198905   296.58108851
 O      3   2   1     1.433660754599   111.20473155   180.35135358
 H      3   2   1     1.099020308112   109.03304520    65.18954736
 C      1   2   3     1.354133618984   120.86294251   232.52581474
 C      6   1   2     1.337986624328   123.36778454   129.95752567
 H     16   6   1     1.086401257937   121.38745666     0.63562800
 H     16   6   1     1.087431741546   120.93743258   181.32968816
 C     15   1   2     1.444422012813   126.48816441   175.34921275
 H     15   1   2     1.089151992305   116.14019372   357.98690865
 C     19  15   1     1.350431048793   126.40468897   175.94832499
 H     19  15   1     1.087624580984   115.96307220   355.25016505
 C     21  19  15     1.507849776222   125.72097100   357.16147096
 C     23  21  19     1.540356463053   111.85977193   127.90557231
 H     23  21  19     1.093461510570   112.33195604     3.77321085
 H     23  21  19     1.101899770633   107.73008072   246.58192402
 C     24  23  21     1.534958287070   112.67132469    50.80048242
 H     24  23  21     1.097299909408   109.05692963   288.70802972
 H     24  23  21     1.096935012656   109.14594561   172.74669426
 C     27  24  23     1.534918146132   111.81601895   306.21829418
 H     27  24  23     1.094980968502   108.94641688   182.69661003
 H     27  24  23     1.100518547985   109.20436692    66.19939191
 C     21  19  15     1.498098117373   122.78561043   177.81721440
 H     33  21  19     1.105907872563   106.25594835   123.97057549
 C     33  21  19     1.525833239263   121.11257847     1.77862401
 H     13   3   2     0.966584843157   107.53861638    62.63567197
 C     35  33  21     1.548677232274   103.53307245   196.31168569
 H     35  33  21     1.095128028646   112.12075695    74.27855971
 H     35  33  21     1.095787530039   110.72095820   314.69778320
 C     30  27  24     1.553700369866   116.04024178   166.28321788
 H     37  35  33     1.094584644818   111.96558755   249.35548842
 H     37  35  33     1.096450683608   110.95209598   130.76949861
 H     40  30  27     1.102413362086   106.27702326   320.81889514
 C     40  30  27     1.541887434996   118.98677357    81.59534433
 C     30  27  24     1.534410950898   111.09381445   294.22228357
 H     45  30  27     1.094362152595   111.43721949    66.69098055
 H     45  30  27     1.095660701087   110.67940660   306.54478300
 H     45  30  27     1.094575424397   111.59137362   186.68787414
 H     44  40  30     1.100168896625   108.35934318    61.32743281
 C     44  40  30     1.536330705605   113.48739452   300.52416170
 C     44  40  30     1.505712274376   109.33705045   178.58348198
 C     51  44  40     1.331393953108   125.45479355   239.35493740
 H     51  44  40     1.094755515896   115.56717250    60.45509412
 H     52  51  44     1.094885093838   118.86900885     1.09276626
 C     52  51  44     1.503257717234   125.57471006   179.69339327
 C     55  52  51     1.537420714739   109.07206895   244.90788961
 C     55  52  51     1.548763907277   111.06749305   120.73731395
 H     55  52  51     1.101900312093   108.27375769     2.84254959
 H     57  55  52     1.102219046125   107.16996967    59.10020119
 C     57  55  52     1.530948101217   110.97338553   300.95927546
 C     57  55  52     1.531491688939   112.06232537   177.78016115
 H     56  55  52     1.094973490344   110.33803514    51.82187047
 H     56  55  52     1.097335667025   110.51280980   292.52022508
 H     56  55  52     1.093932714026   111.85532773   171.98075321
 H     60  57  55     1.095540601002   110.80843674   179.06011495
 H     60  57  55     1.094173610767   111.68761924    58.16093512
 H     60  57  55     1.097956967129   110.26989870   298.42984135
 H     61  57  55     1.097790881455   110.39095477    56.03120051
 H     61  57  55     1.093644259638   112.42626099   295.25277034
 H     61  57  55     1.095568087618   110.41018191   175.05234288
 H     50  44  40     1.095353267061   110.18392996   187.52725145
 H     50  44  40     1.092926356173   111.75725718    67.61160846
 H     50  44  40     1.096905041483   110.76658816   306.98149842

---------------------------
INTERNAL COORDINATES (A.U.)
---------------------------
 C      0   0   0     0.000000000000     0.00000000     0.00000000
 C      1   0   0     2.854630137394     0.00000000     0.00000000
 C      2   1   0     2.897891873259   111.76287202     0.00000000
 H      2   1   3     2.084963724381   109.37109983   241.45376024
 H      2   1   3     2.070288768328   110.68629056   122.88888503
 C      1   2   3     2.793693302708   114.21145422    50.41736885
 C      6   1   2     2.857339614746   114.44903301   312.14407649
 C      3   2   1     2.880970220039   110.31657811   305.04063025
 H      7   6   1     2.079896777133   108.38679477   289.89269984
 H      7   6   1     2.069442554950   110.20512969   172.69696033
 H      8   3   2     2.071841388830   109.70139893   179.13298433
 H      8   3   2     2.079627361877   108.66198905   296.58108851
 O      3   2   1     2.709226195144   111.20473155   180.35135358
 H      3   2   1     2.076847397949   109.03304520    65.18954736
 C      1   2   3     2.558941688616   120.86294251   232.52581474
 C      6   1   2     2.528428290830   123.36778454   129.95752567
 H     16   6   1     2.053000849048   121.38745666     0.63562800
 H     16   6   1     2.054948180855   120.93743258   181.32968816
 C     15   1   2     2.729562026024   126.48816441   175.34921275
 H     15   1   2     2.058198983672   116.14019372   357.98690865
 C     19  15   1     2.551944844963   126.40468897   175.94832499
 H     19  15   1     2.055312594581   115.96307220   355.25016505
 C     21  19  15     2.849423128154   125.72097100   357.16147096
 C     23  21  19     2.910851863786   111.85977193   127.90557231
 H     23  21  19     2.066342792961   112.33195604     3.77321085
 H     23  21  19     2.082288793527   107.73008072   246.58192402
 C     24  23  21     2.900650789554   112.67132469    50.80048242
 H     24  23  21     2.073596315558   109.05692963   288.70802972
 H     24  23  21     2.072906760628   109.14594561   172.74669426
 C     27  24  23     2.900574934175   111.81601895   306.21829418
 H     27  24  23     2.069214152324   108.94641688   182.69661003
 H     27  24  23     2.079678660992   109.20436692    66.19939191
 C     21  19  15     2.830995163577   122.78561043   177.81721440
 H     33  21  19     2.089863008491   106.25594835   123.97057549
 C     33  21  19     2.883406948241   121.11257847     1.77862401
 H     13   3   2     1.826580638766   107.53861638    62.63567197
 C     35  33  21     2.926575838837   103.53307245   196.31168569
 H     35  33  21     2.069492055722   112.12075695    74.27855971
 H     35  33  21     2.070738332740   110.72095820   314.69778320
 C     30  27  24     2.936068193218   116.04024178   166.28321788
 H     37  35  33     2.068465209101   111.96558755   249.35548842
 H     37  35  33     2.071991511369   110.95209598   130.76949861
 H     40  30  27     2.083259340717   106.27702326   320.81889514
 C     40  30  27     2.913744981477   118.98677357    81.59534433
 C     30  27  24     2.899616474086   111.09381445   294.22228357
 H     45  30  27     2.068044759734   111.43721949    66.69098055
 H     45  30  27     2.070498660754   110.67940660   306.54478300
 H     45  30  27     2.068447785030   111.59137362   186.68787414
 H     44  40  30     2.079017915679   108.35934318    61.32743281
 C     44  40  30     2.903244284727   113.48739452   300.52416170
 C     44  40  30     2.845383835054   109.33705045   178.58348198
 C     51  44  40     2.515969947732   125.45479355   239.35493740
 H     51  44  40     2.068788108643   115.56717250    60.45509412
 H     52  51  44     2.069032975466   118.86900885     1.09276626
 C     52  51  44     2.840745394276   125.57471006   179.69339327
 C     55  52  51     2.905304103474   109.07206895   244.90788961
 C     55  52  51     2.926739630856   111.06749305   120.73731395
 H     55  52  51     2.082289816739   108.27375769     2.84254959
 H     57  55  52     2.082892136769   107.16996967    59.10020119
 C     57  55  52     2.893072636547   110.97338553   300.95927546
 C     57  55  52     2.894099868472   112.06232537   177.78016115
 H     56  55  52     2.069200020654   110.33803514    51.82187047
 H     56  55  52     2.073663887660   110.51280980   292.52022508
 H     56  55  52     2.067233238447   111.85532773   171.98075321
 H     60  57  55     2.070271704485   110.80843674   179.06011495
 H     60  57  55     2.067688467314   111.68761924    58.16093512
 H     60  57  55     2.074837974705   110.26989870   298.42984135
 H     61  57  55     2.074524118266   110.39095477    56.03120051
 H     61  57  55     2.066688138651   112.42626099   295.25277034
 H     61  57  55     2.070323646662   110.41018191   175.05234288
 H     50  44  40     2.069917694641   110.18392996   187.52725145
 H     50  44  40     2.065331497712   111.75725718    67.61160846
 H     50  44  40     2.072850123321   110.76658816   306.98149842

---------------------
BASIS SET INFORMATION
---------------------
There are 3 groups of distinct atoms

 Group   1 Type C   : 7s4p contracted to 4s3p pattern {4111/211}
 Group   2 Type H   : 5s contracted to 3s pattern {311}
 Group   3 Type O   : 7s4p contracted to 4s3p pattern {4111/211}

Atom   0C    basis set group =>   1
Atom   1C    basis set group =>   1
Atom   2C    basis set group =>   1
Atom   3H    basis set group =>   2
Atom   4H    basis set group =>   2
Atom   5C    basis set group =>   1
Atom   6C    basis set group =>   1
Atom   7C    basis set group =>   1
Atom   8H    basis set group =>   2
Atom   9H    basis set group =>   2
Atom  10H    basis set group =>   2
Atom  11H    basis set group =>   2
Atom  12O    basis set group =>   3
Atom  13H    basis set group =>   2
Atom  14C    basis set group =>   1
Atom  15C    basis set group =>   1
Atom  16H    basis set group =>   2
Atom  17H    basis set group =>   2
Atom  18C    basis set group =>   1
Atom  19H    basis set group =>   2
Atom  20C    basis set group =>   1
Atom  21H    basis set group =>   2
Atom  22C    basis set group =>   1
Atom  23C    basis set group =>   1
Atom  24H    basis set group =>   2
Atom  25H    basis set group =>   2
Atom  26C    basis set group =>   1
Atom  27H    basis set group =>   2
Atom  28H    basis set group =>   2
Atom  29C    basis set group =>   1
Atom  30H    basis set group =>   2
Atom  31H    basis set group =>   2
Atom  32C    basis set group =>   1
Atom  33H    basis set group =>   2
Atom  34C    basis set group =>   1
Atom  35H    basis set group =>   2
Atom  36C    basis set group =>   1
Atom  37H    basis set group =>   2
Atom  38H    basis set group =>   2
Atom  39C    basis set group =>   1
Atom  40H    basis set group =>   2
Atom  41H    basis set group =>   2
Atom  42H    basis set group =>   2
Atom  43C    basis set group =>   1
Atom  44C    basis set group =>   1
Atom  45H    basis set group =>   2
Atom  46H    basis set group =>   2
Atom  47H    basis set group =>   2
Atom  48H    basis set group =>   2
Atom  49C    basis set group =>   1
Atom  50C    basis set group =>   1
Atom  51C    basis set group =>   1
Atom  52H    basis set group =>   2
Atom  53H    basis set group =>   2
Atom  54C    basis set group =>   1
Atom  55C    basis set group =>   1
Atom  56C    basis set group =>   1
Atom  57H    basis set group =>   2
Atom  58H    basis set group =>   2
Atom  59C    basis set group =>   1
Atom  60C    basis set group =>   1
Atom  61H    basis set group =>   2
Atom  62H    basis set group =>   2
Atom  63H    basis set group =>   2
Atom  64H    basis set group =>   2
Atom  65H    basis set group =>   2
Atom  66H    basis set group =>   2
Atom  67H    basis set group =>   2
Atom  68H    basis set group =>   2
Atom  69H    basis set group =>   2
Atom  70H    basis set group =>   2
Atom  71H    basis set group =>   2
Atom  72H    basis set group =>   2

-------------------------
BASIS SET IN INPUT FORMAT
-------------------------

 # Basis set for element : H 
 NewGTO H 
 S 3 
   1    1357.7500000000      0.0012928364
   2      54.3100000000      0.0588280685
   3       4.3448000000      0.9761499708
 S 1 
   1       0.6604910000      1.0000000000
 S 1 
   1       0.1366870000      1.0000000000
  end;

 # Basis set for element : C 
 NewGTO C 
 S 4 
   1  139534.0000000000      0.0001655246
   2    5581.3600000000      0.0074486101
   3     446.5090000000      0.1285821065
   4      67.4620000000      0.9218029311
 S 1 
   1      15.0674000000      1.0000000000
 S 1 
   1       3.9387600000      1.0000000000
 S 1 
   1       0.2999150000      1.0000000000
 P 2 
   1      28.3900000000      0.0816325586
   2       4.3676900000      0.9660360576
 P 1 
   1       0.8698170000      1.0000000000
 P 1 
   1       0.1889340000      1.0000000000
  end;

 # Basis set for element : O 
 NewGTO O 
 S 4 
   1  253789.0000000000      0.0001641076
   2   10151.6000000000      0.0074010921
   3     812.1250000000      0.1277711901
   4     122.6930000000      0.9223372164
 S 1 
   1      27.5608000000      1.0000000000
 S 1 
   1       7.3172600000      1.0000000000
 S 1 
   1       0.5792400000      1.0000000000
 P 2 
   1      53.4157000000      0.0793786106
   2       8.2177900000      0.9670506337
 P 1 
   1       1.6754400000      1.0000000000
 P 1 
   1       0.3506720000      1.0000000000
  end;

---------------------------------
AUXILIARY/J BASIS SET INFORMATION
---------------------------------
There are 3 groups of distinct atoms

 Group   1 Type C   : 12s5p4d2f1g contracted to 6s4p3d1f1g pattern {711111/2111/211/2/1}
 Group   2 Type H   : 5s2p1d contracted to 3s1p1d pattern {311/2/1}
 Group   3 Type O   : 12s5p4d2f1g contracted to 6s4p3d1f1g pattern {711111/2111/211/2/1}

Atom   0C    basis set group =>   1
Atom   1C    basis set group =>   1
Atom   2C    basis set group =>   1
Atom   3H    basis set group =>   2
Atom   4H    basis set group =>   2
Atom   5C    basis set group =>   1
Atom   6C    basis set group =>   1
Atom   7C    basis set group =>   1
Atom   8H    basis set group =>   2
Atom   9H    basis set group =>   2
Atom  10H    basis set group =>   2
Atom  11H    basis set group =>   2
Atom  12O    basis set group =>   3
Atom  13H    basis set group =>   2
Atom  14C    basis set group =>   1
Atom  15C    basis set group =>   1
Atom  16H    basis set group =>   2
Atom  17H    basis set group =>   2
Atom  18C    basis set group =>   1
Atom  19H    basis set group =>   2
Atom  20C    basis set group =>   1
Atom  21H    basis set group =>   2
Atom  22C    basis set group =>   1
Atom  23C    basis set group =>   1
Atom  24H    basis set group =>   2
Atom  25H    basis set group =>   2
Atom  26C    basis set group =>   1
Atom  27H    basis set group =>   2
Atom  28H    basis set group =>   2
Atom  29C    basis set group =>   1
Atom  30H    basis set group =>   2
Atom  31H    basis set group =>   2
Atom  32C    basis set group =>   1
Atom  33H    basis set group =>   2
Atom  34C    basis set group =>   1
Atom  35H    basis set group =>   2
Atom  36C    basis set group =>   1
Atom  37H    basis set group =>   2
Atom  38H    basis set group =>   2
Atom  39C    basis set group =>   1
Atom  40H    basis set group =>   2
Atom  41H    basis set group =>   2
Atom  42H    basis set group =>   2
Atom  43C    basis set group =>   1
Atom  44C    basis set group =>   1
Atom  45H    basis set group =>   2
Atom  46H    basis set group =>   2
Atom  47H    basis set group =>   2
Atom  48H    basis set group =>   2
Atom  49C    basis set group =>   1
Atom  50C    basis set group =>   1
Atom  51C    basis set group =>   1
Atom  52H    basis set group =>   2
Atom  53H    basis set group =>   2
Atom  54C    basis set group =>   1
Atom  55C    basis set group =>   1
Atom  56C    basis set group =>   1
Atom  57H    basis set group =>   2
Atom  58H    basis set group =>   2
Atom  59C    basis set group =>   1
Atom  60C    basis set group =>   1
Atom  61H    basis set group =>   2
Atom  62H    basis set group =>   2
Atom  63H    basis set group =>   2
Atom  64H    basis set group =>   2
Atom  65H    basis set group =>   2
Atom  66H    basis set group =>   2
Atom  67H    basis set group =>   2
Atom  68H    basis set group =>   2
Atom  69H    basis set group =>   2
Atom  70H    basis set group =>   2
Atom  71H    basis set group =>   2
Atom  72H    basis set group =>   2

-------------------------------------
AUXILIARY/J BASIS SET IN INPUT FORMAT
-------------------------------------

 # Auxiliary/J basis set for element : H 
 NewAuxJGTO H 
 S 3 
   1      15.6752927000      0.1007184237
   2       3.6063578000      0.3404257499
   3       1.2080016000      0.6491996172
 S 1 
   1       0.4726794000      1.0000000000
 S 1 
   1       0.2018100000      1.0000000000
 P 2 
   1       2.0281365000      0.5596620919
   2       0.5358730000      0.5596620919
 D 1 
   1       2.2165124000      1.0000000000
  end;

 # Auxiliary/J basis set for element : C 
 NewAuxJGTO C 
 S 7 
   1    1861.0916331000      0.0134602335
   2     642.9939764000      0.0299160374
   3     235.1105725000      0.1008649584
   4      90.7028894000      0.2370970548
   5      36.7794552000      0.3924037254
   6      15.6046273000      0.3195862154
   7       6.8907294000      0.0530104441
 S 1 
   1       3.1478850000     -1.0000000000
 S 1 
   1       1.4777287000      1.0000000000
 S 1 
   1       0.7076466000      1.0000000000
 S 1 
   1       0.3430122000      1.0000000000
 S 1 
   1       0.1669453000      1.0000000000
 P 2 
   1      13.5472892000     -0.6769313712
   2       5.4669419000     -0.3779500978
 P 1 
   1       2.1751721000      1.0000000000
 P 1 
   1       0.8582194000      1.0000000000
 P 1 
   1       0.3376720000      1.0000000000
 D 2 
   1       5.9287253000     -0.3533329857
   2       1.9809209000     -0.7456525731
 D 1 
   1       0.8055417000     -1.0000000000
 D 1 
   1       0.3531244000     -1.0000000000
 F 2 
   1       1.6755626000      0.6311076882
   2       0.5997536000      0.4968166032
 G 1 
   1       1.0024600000     -1.0000000000
  end;

 # Auxiliary/J basis set for element : O 
 NewAuxJGTO O 
 S 7 
   1    2876.8216605000      0.0168151159
   2    1004.7443032000      0.0340137548
   3     369.7579954000      0.1194951309
   4     142.9442404000      0.2664627624
   5      57.8366425000      0.4202764046
   6      24.3864983000      0.2765077335
   7      10.6622662000      0.0057008815
 S 1 
   1       4.8070437000     -1.0000000000
 S 1 
   1       2.2210770000      1.0000000000
 S 1 
   1       1.0447795000      1.0000000000
 S 1 
   1       0.4968425000      1.0000000000
 S 1 
   1       0.2371384000      1.0000000000
 P 2 
   1      64.2613382000     -0.2731534179
   2      16.3006076000     -0.8168011598
 P 1 
   1       4.3550542000      1.0000000000
 P 1 
   1       1.2019554000      1.0000000000
 P 1 
   1       0.3354196000      1.0000000000
 D 2 
   1       9.2146611000     -0.4661230638
   2       2.8435251000     -0.6600908911
 D 1 
   1       0.9955759000     -1.0000000000
 D 1 
   1       0.3649441000     -1.0000000000
 F 2 
   1       2.6420115000      0.5931563945
   2       0.7345613000      0.5931563945
 G 1 
   1       1.3931000000     -1.0000000000
  end;



           ************************************************************
           *        Program running with 4 parallel MPI-processes     *
           *              working on a common directory               *
           ************************************************************
------------------------------------------------------------------------------
                           ORCA GTO INTEGRAL CALCULATION
                           -- RI-GTO INTEGRALS CHOSEN --
------------------------------------------------------------------------------
------------------------------------------------------------------------------
                   ___                                                        
                  /   \      - P O W E R E D   B Y -                         
                 /     \                                                     
                 |  |  |   _    _      __       _____    __    __             
                 |  |  |  | |  | |    /  \     |  _  \  |  |  /  |          
                  \  \/   | |  | |   /    \    | | | |  |  | /  /          
                 / \  \   | |__| |  /  /\  \   | |_| |  |  |/  /          
                |  |  |   |  __  | /  /__\  \  |    /   |      \           
                |  |  |   | |  | | |   __   |  |    \   |  |\   \          
                \     /   | |  | | |  |  |  |  | |\  \  |  | \   \       
                 \___/    |_|  |_| |__|  |__|  |_| \__\ |__|  \__/        
                                                                              
                      - O R C A' S   B I G   F R I E N D -                    
                                      &                                       
                       - I N T E G R A L  F E E D E R -                       
                                                                              
 v1 FN, 2020, v2 2021                                                         
------------------------------------------------------------------------------


Reading SHARK input file inpJ.SHARKINP.tmp ... ok
----------------------
SHARK INTEGRAL PACKAGE
----------------------

Number of atoms                             ...     73
Number of basis functions                   ...    509
Number of shells                            ...    335
Maximum angular momentum                    ...      1
Integral batch strategy                     ... SHARK/LIBINT Hybrid
RI-J (if used) integral strategy            ... SPLIT-RIJ (Revised 2003 algorithm where possible)
Printlevel                                  ...      1
Contraction scheme used                     ... SEGMENTED contraction
Coulomb Range Separation                    ... NOT USED
Exchange Range Separation                   ... NOT USED
Finite Nucleus Model                        ... NOT USED
Auxiliary Coulomb fitting basis             ... AVAILABLE
   # of basis functions in Aux-J            ...   1905
   # of shells in Aux-J                     ...    655
   Maximum angular momentum in Aux-J        ...      4
Auxiliary J/K fitting basis                 ... NOT available
Auxiliary Correlation fitting basis         ... NOT available
Auxiliary 'external' fitting basis          ... NOT available
Integral threshold                          ...     3.000000e-11
Primitive cut-off                           ...     1.000000e-12
Primitive pair pre-selection threshold      ...     1.000000e-12

Calculating pre-screening integrals         ... done (  0.0 sec) Dimension = 335
Organizing shell pair data                  ... done (  0.1 sec)
Shell pair information
Total number of shell pairs                 ...     56280
Shell pairs after pre-screening             ...     21426
Total number of primitive shell pairs       ...    145865
Primitive shell pairs kept                  ...     36872
          la=0 lb=0:  10785 shell pairs
          la=1 lb=0:   8811 shell pairs
          la=1 lb=1:   1830 shell pairs

Calculating one electron integrals          ... done (  0.0 sec)
Calculating RI/J V-Matrix + Cholesky decomp.... done (  0.2 sec)
Calculating Nuclear repulsion               ... done (  0.0 sec) ENN=   2749.141506634930 Eh

SHARK setup successfully completed in   0.4 seconds

Maximum memory used throughout the entire GTOINT-calculation: 46.0 MB


           ************************************************************
           *        Program running with 4 parallel MPI-processes     *
           *              working on a common directory               *
           ************************************************************
-------------------------------------------------------------------------------
                                 ORCA SCF
-------------------------------------------------------------------------------

------------
SCF SETTINGS
------------
Hamiltonian:
 Density Functional     Method          .... DFT(GTOs)
 Exchange Functional    Exchange        .... PBE
   PBE kappa parameter   XKappa         ....  0.804000
   PBE mue parameter    XMuePBE         ....  0.219520
 Correlation Functional Correlation     .... PBE
   PBE beta parameter  CBetaPBE         ....  0.066725
 LDA part of GGA corr.  LDAOpt          .... PW91-LDA
 Gradients option       PostSCFGGA      .... off
 Hybrid DFT is turned on
   Fraction HF Exchange ScalHFX         ....  0.250000
   Scaling of DF-GGA-X  ScalDFX         ....  0.750000
   Scaling of DF-GGA-C  ScalDFC         ....  1.000000
   Scaling of DF-LDA-C  ScalLDAC        ....  1.000000
   Perturbative correction              ....  0.000000
   Density functional embedding theory  .... OFF
   NL short-range parameter             ....  6.900000
 RI-approximation to the Coulomb term is turned on
   Number of AuxJ basis functions       .... 1905
   RIJ-COSX (HFX calculated with COS-X)).... on


General Settings:
 Integral files         IntName         .... inpJ
 Hartree-Fock type      HFTyp           .... RHF
 Total Charge           Charge          ....    0
 Multiplicity           Mult            ....    1
 Number of Electrons    NEL             ....  220
 Basis Dimension        Dim             ....  509
 Nuclear Repulsion      ENuc            ....   2749.1415066349 Eh

Convergence Acceleration:
 DIIS                   CNVDIIS         .... on
   Start iteration      DIISMaxIt       ....    12
   Startup error        DIISStart       ....  0.200000
   # of expansion vecs  DIISMaxEq       ....     5
   Bias factor          DIISBfac        ....   1.050
   Max. coefficient     DIISMaxC        ....  10.000
 Trust-Rad. Augm. Hess. CNVTRAH         .... auto
   Auto Start mean grad. ratio tolernc. ....  1.125000
   Auto Start start iteration           ....    20
   Auto Start num. interpolation iter.  ....    10
   Max. Number of Micro iterations      ....    16
   Max. Number of Macro iterations      .... Maxiter - #DIIS iter
   Number of Davidson start vectors     ....     2
   Converg. threshold I  (grad. norm)   ....   1.000e-04
   Converg. threshold II (energy diff.) ....   1.000e-07
   Grad. Scal. Fac. for Micro threshold ....   0.100
   Minimum threshold for Micro iter.    ....   0.010
   NR start threshold (gradient norm)   ....   0.001
   Initial trust radius                 ....   0.400
   Minimum AH scaling param. (alpha)    ....   1.000
   Maximum AH scaling param. (alpha)    .... 1000.000
   Orbital update algorithm             .... Taylor
   White noise on init. David. guess    .... on
   Maximum white noise                  ....   0.010
   Quad. conv. algorithm                .... NR
 SOSCF                  CNVSOSCF        .... off
 Level Shifting         CNVShift        .... on
   Level shift para.    LevelShift      ....    0.2500
   Turn off err/grad.   ShiftErr        ....    0.0010
 Zerner damping         CNVZerner       .... off
 Static damping         CNVDamp         .... on
   Fraction old density DampFac         ....    0.7000
   Max. Damping (<1)    DampMax         ....    0.9800
   Min. Damping (>=0)   DampMin         ....    0.0000
   Turn off err/grad.   DampErr         ....    0.1000
 Fernandez-Rico         CNVRico         .... off

SCF Procedure:
 Maximum # iterations   MaxIter         ....   125
 SCF integral mode      SCFMode         .... Direct
   Integral package                     .... SHARK and LIBINT hybrid scheme
 Reset frequency        DirectResetFreq ....    20
 Integral Threshold     Thresh          ....  3.000e-11 Eh
 Primitive CutOff       TCut            ....  1.000e-12 Eh

Convergence Tolerance:
 Convergence Check Mode ConvCheckMode   .... Total+1el-Energy
 Convergence forced     ConvForced      .... 0
 Energy Change          TolE            ....  1.000e-07 Eh
 1-El. energy change                    ....  1.000e-04 Eh
 DIIS Error             TolErr          ....  1.000e-07


Diagonalization of the overlap matrix:
Smallest eigenvalue                        ... 7.548e-03
Time for diagonalization                   ...    0.028 sec
Threshold for overlap eigenvalues          ... 1.000e-08
Number of eigenvalues below threshold      ... 0
Time for construction of square roots      ...    0.025 sec
Total time needed                          ...    0.054 sec

Time for model grid setup =    0.741 sec

------------------------------
INITIAL GUESS: MODEL POTENTIAL
------------------------------
Loading Hartree-Fock densities                     ... done
Calculating cut-offs                               ... done
Initializing the effective Hamiltonian             ... done
Setting up the integral package (SHARK)            ... done
Starting the Coulomb interaction                   ... done (   0.3 sec)
Reading the grid                                   ... done
Mapping shells                                     ... done
Starting the XC term evaluation                    ... done (   0.2 sec)
  promolecular density results
     # of electrons  =    219.989045383
     EX              =   -164.430007564
     EC              =     -7.321254269
     EX+EC           =   -171.751261833
Transforming the Hamiltonian                       ... done (   0.0 sec)
Diagonalizing the Hamiltonian                      ... done (   0.0 sec)
Back transforming the eigenvectors                 ... done (   0.0 sec)
Now organizing SCF variables                       ... done
                      ------------------
                      INITIAL GUESS DONE (   1.3 sec)
                      ------------------
-------------------
DFT GRID GENERATION
-------------------

General Integration Accuracy     IntAcc      ... 4.388
Radial Grid Type                 RadialGrid  ... OptM3 with GC (2021)
Angular Grid (max. ang.)         AngularGrid ... 4 (Lebedev-302)
Angular grid pruning method      GridPruning ... 4 (adaptive)
Weight generation scheme         WeightScheme... Becke
Basis function cutoff            BFCut       ... 1.0000e-11
Integration weight cutoff        WCut        ... 1.0000e-14
Angular grids for H and He will be reduced by one unit
Partially contracted basis set               ... off
Rotationally invariant grid construction     ... off

Total number of grid points                  ...   310020
Total number of batches                      ...     4876
Average number of points per batch           ...       63
Average number of grid points per atom       ...     4247
Time for grid setup =    2.810 sec

--------------------
COSX GRID GENERATION
--------------------

GRIDX 1
-------
General Integration Accuracy     IntAcc      ... 3.816
Radial Grid Type                 RadialGrid  ... OptM3 with GC (2021)
Angular Grid (max. ang.)         AngularGrid ... 1 (Lebedev-50)
Angular grid pruning method      GridPruning ... 4 (adaptive)
Weight generation scheme         WeightScheme... Becke
Basis function cutoff            BFCut       ... 1.0000e-11
Integration weight cutoff        WCut        ... 1.0000e-14
Angular grids for H and He will be reduced by one unit
Partially contracted basis set               ... on
Rotationally invariant grid construction     ... off

Total number of grid points                  ...    39443
Total number of batches                      ...      662
Average number of points per batch           ...       59
Average number of grid points per atom       ...      540
UseSFitting                                  ... on

GRIDX 2
-------
General Integration Accuracy     IntAcc      ... 4.020
Radial Grid Type                 RadialGrid  ... OptM3 with GC (2021)
Angular Grid (max. ang.)         AngularGrid ... 2 (Lebedev-110)
Angular grid pruning method      GridPruning ... 4 (adaptive)
Weight generation scheme         WeightScheme... Becke
Basis function cutoff            BFCut       ... 1.0000e-11
Integration weight cutoff        WCut        ... 1.0000e-14
Angular grids for H and He will be reduced by one unit
Partially contracted basis set               ... on
Rotationally invariant grid construction     ... off

Total number of grid points                  ...    81489
Total number of batches                      ...     1313
Average number of points per batch           ...       62
Average number of grid points per atom       ...     1116
UseSFitting                                  ... on

GRIDX 3
-------
General Integration Accuracy     IntAcc      ... 4.338
Radial Grid Type                 RadialGrid  ... OptM3 with GC (2021)
Angular Grid (max. ang.)         AngularGrid ... 3 (Lebedev-194)
Angular grid pruning method      GridPruning ... 4 (adaptive)
Weight generation scheme         WeightScheme... Becke
Basis function cutoff            BFCut       ... 1.0000e-11
Integration weight cutoff        WCut        ... 1.0000e-14
Angular grids for H and He will be reduced by one unit
Partially contracted basis set               ... on
Rotationally invariant grid construction     ... off

Total number of grid points                  ...   176632
Total number of batches                      ...     2799
Average number of points per batch           ...       63
Average number of grid points per atom       ...     2420
UseSFitting                                  ... on

Time for X-Grid setup             =    2.739 sec


--------------------
CPCM SOLVATION MODEL
--------------------
CPCM parameters:
  Epsilon                                         ...       4.9000
  Refrac                                          ...       1.4500
  Rsolv                                           ...       1.3000
  Surface type                                    ... GAUSSIAN VDW
  Epsilon function type                           ...         CPCM
Radii:
 Radius for C  used is    3.8550 Bohr (=   2.0400 Ang.)
 Radius for H  used is    2.4944 Bohr (=   1.3200 Ang.)
 Radius for O  used is    3.4469 Bohr (=   1.8240 Ang.)
Calculating surface                               ...        done! (  0.0s)
GEPOL surface points                              ...         3682
GEPOL Volume                                      ...    3599.3971
GEPOL Surface-area                                ...    1806.4880
Calculating surface distance matrix               ...        done! (  0.1s)
Performing Cholesky decomposition & store         ...        done! (  0.7s)
Overall time for CPCM initialization              ...                 0.9s
--------------
SCF ITERATIONS
--------------
ITER       Energy         Delta-E        Max-DP      RMS-DP      [F,P]     Damp
               ***  Starting incremental Fock matrix formation  ***

  HOMO= 109 E= -3.885 eV LUMO=  7.787 eV gap=  11.672 eV
  0  -1165.0102523661   0.000000000000 0.09772851  0.00105649  0.1934506 0.7000

  HOMO= 109 E= -4.734 eV LUMO=  7.091 eV gap=  11.826 eV
  1  -1165.2283815199  -0.218129153790 0.06553835  0.00077921  0.0940830 0.7000
                               ***Turning on DIIS***

  HOMO= 109 E= -5.334 eV LUMO=  6.534 eV gap=  11.868 eV
  2  -1165.3293585897  -0.100977069768 0.10352589  0.00138491  0.0376750 0.0000

  HOMO= 109 E= -5.901 eV LUMO=  5.991 eV gap=  11.892 eV
  3  -1165.4737439474  -0.144385357675 0.05176785  0.00056652  0.0453160 0.0000

  HOMO= 109 E= -5.980 eV LUMO=  5.912 eV gap=  11.892 eV
  4  -1165.5091418286  -0.035397881251 0.01158262  0.00013550  0.0061829 0.0000

  HOMO= 109 E= -5.927 eV LUMO=  5.972 eV gap=  11.899 eV
  5  -1165.5100237189  -0.000881890252 0.00283202  0.00003823  0.0044795 0.0000

  HOMO= 109 E= -5.914 eV LUMO=  5.985 eV gap=  11.899 eV
  6  -1165.5101018034  -0.000078084551 0.00114383  0.00001161  0.0010587 0.0000

  HOMO= 109 E= -5.915 eV LUMO= -0.818 eV gap=   5.097 eV
  7  -1165.5101065186  -0.000004715141 0.00051251  0.00000595  0.0002351 0.0000
               *** Restarting incremental Fock matrix formation ***
                                   *** Resetting DIIS ***

  HOMO= 109 E= -5.915 eV LUMO= -0.817 eV gap=   5.097 eV
  8  -1165.5102528954  -0.000146376812 0.00041108  0.00000277  0.0001138 0.0000

  HOMO= 109 E= -5.915 eV LUMO= -0.817 eV gap=   5.098 eV
  9  -1165.5102529510  -0.000000055617 0.00013367  0.00000123  0.0001469 0.0000

  HOMO= 109 E= -5.915 eV LUMO= -0.818 eV gap=   5.098 eV
 10  -1165.5102530681  -0.000000117121 0.00006389  0.00000040  0.0000399 0.0000

  HOMO= 109 E= -5.915 eV LUMO= -0.817 eV gap=   5.098 eV
 11  -1165.5102531012  -0.000000033138 0.00002409  0.00000017  0.0000214 0.0000

  HOMO= 109 E= -5.915 eV LUMO= -0.817 eV gap=   5.098 eV
 12  -1165.5102530762   0.000000025088 0.00000724  0.00000005  0.0000038 0.0000
                 **** Energy Check signals convergence ****

               *****************************************************
               *                     SUCCESS                       *
               *           SCF CONVERGED AFTER  13 CYCLES          *
               *****************************************************

Old exchange energy                            =    -42.066921889 Eh
New exchange energy                            =    -42.066985236 Eh
Exchange energy change after final integration =     -0.000063347 Eh
Total energy after final integration           =  -1165.510316419 Eh
Final COS-X integration done in                =    13.188 sec

----------------
TOTAL SCF ENERGY
----------------

Total Energy       :        -1165.51031642 Eh          -31715.14808 eV

Components:
Nuclear Repulsion  :         2749.14150663 Eh           74807.94356 eV
Electronic Energy  :        -3914.65182305 Eh         -106523.09163 eV
One Electron Energy:        -7040.34117477 Eh         -191577.42297 eV
Two Electron Energy:         3125.68935172 Eh           85054.33134 eV
Max COSX asymmetry :            0.00000243 Eh               0.00007 eV
CPCM Dielectric    :           -0.01524338 Eh              -0.41479 eV

Virial components:
Potential Energy   :        -2322.41230490 Eh          -63196.05164 eV
Kinetic Energy     :         1156.90198848 Eh           31480.90356 eV
Virial Ratio       :            2.00744084


DFT components:
N(Alpha)           :      110.000245317017 electrons
N(Beta)            :      110.000245317017 electrons
N(Total)           :      220.000490634035 electrons
E(X)               :     -125.744086047064 Eh       
E(C)               :       -7.324910287590 Eh       
E(XC)              :     -133.068996334654 Eh       
DFET-embed. en.    :        0.000000000000 Eh       
CPCM Solvation Model Properties:
Surface-charge          :           -0.03486584
Charge-correction       :           -0.00005677 Eh              -0.00154 eV
Free-energy (cav+disp)  :  This term is not implemented in the current solvation scheme

---------------
SCF CONVERGENCE
---------------

  Last Energy change         ...    4.2633e-09  Tolerance :   1.0000e-07
  Last MAX-Density change    ...    0.0000e+00  Tolerance :   1.0000e-05
  Last RMS-Density change    ...    0.0000e+00  Tolerance :   1.0000e-06
  Last DIIS Error            ...    2.5725e-06  Tolerance :   1.0000e-07

             **** THE GBW FILE WAS UPDATED (inpJ.gbw) ****
             **** DENSITY inpJ.scfp WAS UPDATED ****
             **** ENERGY FILE WAS UPDATED (inpJ.en.tmp) ****
             **** THE GBW FILE WAS UPDATED (inpJ.gbw) ****
             **** DENSITY inpJ.scfp WAS UPDATED ****
----------------
ORBITAL ENERGIES
----------------

  NO   OCC          E(Eh)            E(eV) 
   0   2.0000     -19.214960      -522.8657 
   1   2.0000     -10.301267      -280.3117 
   2   2.0000     -10.269379      -279.4440 
   3   2.0000     -10.266604      -279.3685 
   4   2.0000     -10.261663      -279.2340 
   5   2.0000     -10.256028      -279.0807 
   6   2.0000     -10.253248      -279.0051 
   7   2.0000     -10.249969      -278.9158 
   8   2.0000     -10.249813      -278.9116 
   9   2.0000     -10.249139      -278.8933 
  10   2.0000     -10.248588      -278.8783 
  11   2.0000     -10.245974      -278.8071 
  12   2.0000     -10.245179      -278.7855 
  13   2.0000     -10.244639      -278.7708 
  14   2.0000     -10.244340      -278.7627 
  15   2.0000     -10.243793      -278.7478 
  16   2.0000     -10.243750      -278.7466 
  17   2.0000     -10.242947      -278.7248 
  18   2.0000     -10.241850      -278.6949 
  19   2.0000     -10.240945      -278.6703 
  20   2.0000     -10.239055      -278.6188 
  21   2.0000     -10.233816      -278.4763 
  22   2.0000     -10.233543      -278.4688 
  23   2.0000     -10.232595      -278.4431 
  24   2.0000     -10.226513      -278.2776 
  25   2.0000     -10.225932      -278.2618 
  26   2.0000     -10.224431      -278.2209 
  27   2.0000     -10.221951      -278.1534 
  28   2.0000     -10.220180      -278.1052 
  29   2.0000      -1.045713       -28.4553 
  30   2.0000      -0.900569       -24.5057 
  31   2.0000      -0.883517       -24.0417 
  32   2.0000      -0.860188       -23.4069 
  33   2.0000      -0.845871       -23.0173 
  34   2.0000      -0.822351       -22.3773 
  35   2.0000      -0.813708       -22.1421 
  36   2.0000      -0.794968       -21.6322 
  37   2.0000      -0.794657       -21.6237 
  38   2.0000      -0.777556       -21.1584 
  39   2.0000      -0.757297       -20.6071 
  40   2.0000      -0.741002       -20.1637 
  41   2.0000      -0.735007       -20.0005 
  42   2.0000      -0.713531       -19.4162 
  43   2.0000      -0.700922       -19.0731 
  44   2.0000      -0.698990       -19.0205 
  45   2.0000      -0.693354       -18.8671 
  46   2.0000      -0.668811       -18.1993 
  47   2.0000      -0.657196       -17.8832 
  48   2.0000      -0.629026       -17.1167 
  49   2.0000      -0.621560       -16.9135 
  50   2.0000      -0.619272       -16.8512 
  51   2.0000      -0.605192       -16.4681 
  52   2.0000      -0.596567       -16.2334 
  53   2.0000      -0.575980       -15.6732 
  54   2.0000      -0.572342       -15.5742 
  55   2.0000      -0.554644       -15.0926 
  56   2.0000      -0.540353       -14.7038 
  57   2.0000      -0.529669       -14.4130 
  58   2.0000      -0.514922       -14.0118 
  59   2.0000      -0.509833       -13.8733 
  60   2.0000      -0.495436       -13.4815 
  61   2.0000      -0.489323       -13.3152 
  62   2.0000      -0.480735       -13.0815 
  63   2.0000      -0.478692       -13.0259 
  64   2.0000      -0.475734       -12.9454 
  65   2.0000      -0.468175       -12.7397 
  66   2.0000      -0.461375       -12.5546 
  67   2.0000      -0.458069       -12.4647 
  68   2.0000      -0.456848       -12.4315 
  69   2.0000      -0.450397       -12.2559 
  70   2.0000      -0.447496       -12.1770 
  71   2.0000      -0.441667       -12.0184 
  72   2.0000      -0.434402       -11.8207 
  73   2.0000      -0.430491       -11.7143 
  74   2.0000      -0.428122       -11.6498 
  75   2.0000      -0.423789       -11.5319 
  76   2.0000      -0.416208       -11.3256 
  77   2.0000      -0.413550       -11.2533 
  78   2.0000      -0.407428       -11.0867 
  79   2.0000      -0.401994       -10.9388 
  80   2.0000      -0.400632       -10.9017 
  81   2.0000      -0.397031       -10.8038 
  82   2.0000      -0.395764       -10.7693 
  83   2.0000      -0.390990       -10.6394 
  84   2.0000      -0.389913       -10.6101 
  85   2.0000      -0.385147       -10.4804 
  86   2.0000      -0.377561       -10.2740 
  87   2.0000      -0.371025       -10.0961 
  88   2.0000      -0.367384        -9.9970 
  89   2.0000      -0.366637        -9.9767 
  90   2.0000      -0.362199        -9.8559 
  91   2.0000      -0.356269        -9.6946 
  92   2.0000      -0.350073        -9.5260 
  93   2.0000      -0.344175        -9.3655 
  94   2.0000      -0.341766        -9.2999 
  95   2.0000      -0.340352        -9.2615 
  96   2.0000      -0.338615        -9.2142 
  97   2.0000      -0.333152        -9.0655 
  98   2.0000      -0.330366        -8.9897 
  99   2.0000      -0.328887        -8.9495 
 100   2.0000      -0.326132        -8.8745 
 101   2.0000      -0.324510        -8.8304 
 102   2.0000      -0.316603        -8.6152 
 103   2.0000      -0.316066        -8.6006 
 104   2.0000      -0.311412        -8.4740 
 105   2.0000      -0.299163        -8.1406 
 106   2.0000      -0.279884        -7.6160 
 107   2.0000      -0.274647        -7.4735 
 108   2.0000      -0.257423        -7.0048 
 109   2.0000      -0.217372        -5.9150 
 110   0.0000      -0.030038        -0.8174 
 111   0.0000       0.021406         0.5825 
 112   0.0000       0.028280         0.7695 
 113   0.0000       0.080443         2.1890 
 114   0.0000       0.088848         2.4177 
 115   0.0000       0.101240         2.7549 
 116   0.0000       0.103659         2.8207 
 117   0.0000       0.107599         2.9279 
 118   0.0000       0.109825         2.9885 
 119   0.0000       0.116977         3.1831 
 120   0.0000       0.118161         3.2153 
 121   0.0000       0.119388         3.2487 
 122   0.0000       0.127487         3.4691 
 123   0.0000       0.128915         3.5080 
 124   0.0000       0.133895         3.6435 
 125   0.0000       0.134023         3.6470 
 126   0.0000       0.140916         3.8345 
 127   0.0000       0.141640         3.8542 
 128   0.0000       0.144967         3.9448 
 129   0.0000       0.150227         4.0879 
 130   0.0000       0.158572         4.3150 
 131   0.0000       0.159812         4.3487 
 132   0.0000       0.161883         4.4051 
 133   0.0000       0.164761         4.4834 
 134   0.0000       0.166520         4.5312 
 135   0.0000       0.169505         4.6125 
 136   0.0000       0.171445         4.6652 
 137   0.0000       0.174544         4.7496 
 138   0.0000       0.179809         4.8929 
 139   0.0000       0.183403         4.9906 
 140   0.0000       0.183749         5.0001 
 141   0.0000       0.186277         5.0689 
 142   0.0000       0.187987         5.1154 
 143   0.0000       0.189605         5.1594 
 144   0.0000       0.190988         5.1970 
 145   0.0000       0.193782         5.2731 
 146   0.0000       0.198042         5.3890 
 147   0.0000       0.199171         5.4197 
 148   0.0000       0.201337         5.4787 
 149   0.0000       0.204633         5.5684 
 150   0.0000       0.208084         5.6623 
 151   0.0000       0.216550         5.8926 
 152   0.0000       0.222841         6.0638 
 153   0.0000       0.229718         6.2509 
 154   0.0000       0.232200         6.3185 
 155   0.0000       0.236267         6.4292 
 156   0.0000       0.242594         6.6013 
 157   0.0000       0.244243         6.6462 
 158   0.0000       0.249281         6.7833 
 159   0.0000       0.250348         6.8123 
 160   0.0000       0.256929         6.9914 
 161   0.0000       0.259734         7.0677 
 162   0.0000       0.260721         7.0946 
 163   0.0000       0.264978         7.2104 
 164   0.0000       0.268870         7.3163 
 165   0.0000       0.274444         7.4680 
 166   0.0000       0.276566         7.5257 
 167   0.0000       0.281082         7.6486 
 168   0.0000       0.286172         7.7871 
 169   0.0000       0.292795         7.9674 
 170   0.0000       0.295764         8.0482 
 171   0.0000       0.297231         8.0881 
 172   0.0000       0.302791         8.2394 
 173   0.0000       0.306882         8.3507 
 174   0.0000       0.311410         8.4739 
 175   0.0000       0.318936         8.6787 
 176   0.0000       0.324955         8.8425 
 177   0.0000       0.337574         9.1859 
 178   0.0000       0.354982         9.6595 
 179   0.0000       0.357413         9.7257 
 180   0.0000       0.367382         9.9970 
 181   0.0000       0.374640        10.1945 
 182   0.0000       0.379368        10.3231 
 183   0.0000       0.401636        10.9291 
 184   0.0000       0.418945        11.4001 
 185   0.0000       0.462858        12.5950 
 186   0.0000       0.470275        12.7968 
 187   0.0000       0.490829        13.3561 
 188   0.0000       0.502983        13.6869 
 189   0.0000       0.518727        14.1153 
 190   0.0000       0.521135        14.1808 
 191   0.0000       0.525537        14.3006 
 192   0.0000       0.542323        14.7574 
 193   0.0000       0.546040        14.8585 
 194   0.0000       0.558930        15.2093 
 195   0.0000       0.565309        15.3828 
 196   0.0000       0.572152        15.5690 
 197   0.0000       0.582413        15.8483 
 198   0.0000       0.583881        15.8882 
 199   0.0000       0.589224        16.0336 
 200   0.0000       0.596824        16.2404 
 201   0.0000       0.614384        16.7182 
 202   0.0000       0.622110        16.9285 
 203   0.0000       0.626884        17.0584 
 204   0.0000       0.638961        17.3870 
 205   0.0000       0.641795        17.4641 
 206   0.0000       0.647518        17.6198 
 207   0.0000       0.650684        17.7060 
 208   0.0000       0.659372        17.9424 
 209   0.0000       0.666256        18.1298 
 210   0.0000       0.668937        18.2027 
 211   0.0000       0.681209        18.5367 
 212   0.0000       0.689664        18.7667 
 213   0.0000       0.694548        18.8996 
 214   0.0000       0.701755        19.0957 
 215   0.0000       0.705217        19.1899 
 216   0.0000       0.712265        19.3817 
 217   0.0000       0.716677        19.5018 
 218   0.0000       0.724388        19.7116 
 219   0.0000       0.726694        19.7743 
 220   0.0000       0.729144        19.8410 
 221   0.0000       0.731134        19.8952 
 222   0.0000       0.735529        20.0148 
 223   0.0000       0.739991        20.1362 
 224   0.0000       0.748444        20.3662 
 225   0.0000       0.750195        20.4138 
 226   0.0000       0.751377        20.4460 
 227   0.0000       0.757533        20.6135 
 228   0.0000       0.758830        20.6488 
 229   0.0000       0.765712        20.8361 
 230   0.0000       0.771068        20.9818 
 231   0.0000       0.776507        21.1298 
 232   0.0000       0.777894        21.1676 
 233   0.0000       0.784667        21.3519 
 234   0.0000       0.787030        21.4162 
 235   0.0000       0.794074        21.6079 
 236   0.0000       0.798130        21.7182 
 237   0.0000       0.804346        21.8874 
 238   0.0000       0.817020        22.2322 
 239   0.0000       0.822869        22.3914 
 240   0.0000       0.825848        22.4725 
 241   0.0000       0.834285        22.7021 
 242   0.0000       0.838957        22.8292 
 243   0.0000       0.844252        22.9733 
 244   0.0000       0.846388        23.0314 
 245   0.0000       0.855627        23.2828 
 246   0.0000       0.856199        23.2984 
 247   0.0000       0.861803        23.4509 
 248   0.0000       0.864832        23.5333 
 249   0.0000       0.871155        23.7053 
 250   0.0000       0.875195        23.8153 
 251   0.0000       0.877612        23.8810 
 252   0.0000       0.878321        23.9003 
 253   0.0000       0.879985        23.9456 
 254   0.0000       0.882912        24.0253 
 255   0.0000       0.886218        24.1152 
 256   0.0000       0.889000        24.1909 
 257   0.0000       0.892924        24.2977 
 258   0.0000       0.895581        24.3700 
 259   0.0000       0.900196        24.4956 
 260   0.0000       0.902282        24.5523 
 261   0.0000       0.905006        24.6265 
 262   0.0000       0.915611        24.9150 
 263   0.0000       0.920391        25.0451 
 264   0.0000       0.923101        25.1188 
 265   0.0000       0.928014        25.2525 
 266   0.0000       0.929674        25.2977 
 267   0.0000       0.931909        25.3585 
 268   0.0000       0.935571        25.4582 
 269   0.0000       0.941617        25.6227 
 270   0.0000       0.944053        25.6890 
 271   0.0000       0.945742        25.7349 
 272   0.0000       0.948991        25.8234 
 273   0.0000       0.955221        25.9929 
 274   0.0000       0.955593        26.0030 
 275   0.0000       0.965410        26.2701 
 276   0.0000       0.967381        26.3238 
 277   0.0000       0.972660        26.4674 
 278   0.0000       0.976350        26.5678 
 279   0.0000       0.978436        26.6246 
 280   0.0000       0.984883        26.8000 
 281   0.0000       0.993354        27.0305 
 282   0.0000       1.000426        27.2230 
 283   0.0000       1.011837        27.5335 
 284   0.0000       1.016061        27.6484 
 285   0.0000       1.023283        27.8450 
 286   0.0000       1.030845        28.0507 
 287   0.0000       1.048711        28.5369 
 288   0.0000       1.053496        28.6671 
 289   0.0000       1.058298        28.7978 
 290   0.0000       1.072719        29.1902 
 291   0.0000       1.079052        29.3625 
 292   0.0000       1.085101        29.5271 
 293   0.0000       1.089318        29.6419 
 294   0.0000       1.095296        29.8045 
 295   0.0000       1.113243        30.2929 
 296   0.0000       1.132044        30.8045 
 297   0.0000       1.137133        30.9430 
 298   0.0000       1.139469        31.0065 
 299   0.0000       1.147269        31.2188 
 300   0.0000       1.161368        31.6024 
 301   0.0000       1.170069        31.8392 
 302   0.0000       1.191453        32.4211 
 303   0.0000       1.204998        32.7897 
 304   0.0000       1.231630        33.5143 
 305   0.0000       1.242523        33.8108 
 306   0.0000       1.255365        34.1602 
 307   0.0000       1.265346        34.4318 
 308   0.0000       1.281588        34.8738 
 309   0.0000       1.301783        35.4233 
 310   0.0000       1.333008        36.2730 
 311   0.0000       1.333703        36.2919 
 312   0.0000       1.371900        37.3313 
 313   0.0000       1.382758        37.6268 
 314   0.0000       1.406023        38.2598 
 315   0.0000       1.511391        41.1270 
 316   0.0000       1.525797        41.5191 
 317   0.0000       1.571770        42.7700 
 318   0.0000       1.606037        43.7025 
 319   0.0000       1.657426        45.1009 
 320   0.0000       6.207869       168.9247 
 321   0.0000       6.239821       169.7942 
 322   0.0000       6.265552       170.4943 
 323   0.0000       6.276155       170.7829 
 324   0.0000       6.286646       171.0683 
 325   0.0000       6.293927       171.2665 
 326   0.0000       6.300952       171.4576 
 327   0.0000       6.313409       171.7966 
 328   0.0000       6.317235       171.9007 
 329   0.0000       6.337796       172.4602 
 330   0.0000       6.343541       172.6165 
 331   0.0000       6.349542       172.7798 
 332   0.0000       6.354745       172.9214 
 333   0.0000       6.362201       173.1243 
 334   0.0000       6.383871       173.7140 
 335   0.0000       6.388582       173.8422 
 336   0.0000       6.392955       173.9611 
 337   0.0000       6.405911       174.3137 
 338   0.0000       6.416338       174.5974 
 339   0.0000       6.421752       174.7448 
 340   0.0000       6.428033       174.9157 
 341   0.0000       6.438835       175.2096 
 342   0.0000       6.452947       175.5936 
 343   0.0000       6.465963       175.9478 
 344   0.0000       6.468997       176.0304 
 345   0.0000       6.471443       176.0969 
 346   0.0000       6.480771       176.3507 
 347   0.0000       6.491941       176.6547 
 348   0.0000       6.504990       177.0098 
 349   0.0000       6.510998       177.1733 
 350   0.0000       6.523741       177.5200 
 351   0.0000       6.529028       177.6639 
 352   0.0000       6.537841       177.9037 
 353   0.0000       6.542766       178.0377 
 354   0.0000       6.547118       178.1561 
 355   0.0000       6.554720       178.3630 
 356   0.0000       6.557662       178.4431 
 357   0.0000       6.561224       178.5400 
 358   0.0000       6.562799       178.5828 
 359   0.0000       6.573896       178.8848 
 360   0.0000       6.582557       179.1205 
 361   0.0000       6.585167       179.1915 
 362   0.0000       6.588116       179.2718 
 363   0.0000       6.596754       179.5068 
 364   0.0000       6.603094       179.6793 
 365   0.0000       6.607274       179.7931 
 366   0.0000       6.607372       179.7957 
 367   0.0000       6.614576       179.9918 
 368   0.0000       6.618280       180.0925 
 369   0.0000       6.618943       180.1106 
 370   0.0000       6.623578       180.2367 
 371   0.0000       6.626194       180.3079 
 372   0.0000       6.629440       180.3962 
 373   0.0000       6.634716       180.5398 
 374   0.0000       6.641527       180.7251 
[...]
     69 H        0.000      0.000      0.000      0.000      0.000      0.000
     70 H        0.000      0.000      0.000      0.000      0.003      0.036
     71 H        0.000      0.000      0.000     -0.000      0.001      0.020
     72 H        0.000      0.000      0.000      0.000      0.001      0.009
                 25 H       27 H       28 H       30 H       31 H       33 H  
      3 H        2.499     -0.106      0.066      0.000      0.000      2.425
      4 H        0.113     -0.004      0.004      0.000      0.000      0.101
      8 H       -0.342      0.012      0.000      0.000      0.000     -0.314
      9 H        0.000      0.000      0.000      0.000      0.000      0.136
     10 H        0.000      0.000      0.000      0.000      0.000      0.000
     11 H        0.000      0.000      0.000      0.000      0.000      0.000
     13 H       -0.101      0.004     -0.004      0.000      0.000     -0.105
     16 H       -0.374      0.012     -0.006     -0.022     -0.001     -0.347
     17 H       -0.367      0.011      0.000      0.000      0.000     -0.323
     19 H        0.939     -0.048      0.021      0.086      0.006      1.153
     21 H       -2.842      0.197      0.640     -0.215     -0.026     -2.611
     24 H      -14.097      4.352      2.283      0.720     -0.505     -0.124
     25 H        0.000     13.023      5.260     -0.631     -0.351     -2.363
     27 H       13.023      0.000    -13.585      3.994     12.991      0.070
     28 H        5.260    -13.585      0.000      2.640      4.118      0.283
     30 H       -0.631      3.994      2.640      0.000    -12.948      0.015
     31 H       -0.351     12.991      4.118    -12.948      0.000     -0.325
     33 H       -2.363      0.070      0.283      0.015     -0.325      0.000
     35 H        0.000      0.000      0.000      0.000      0.000      0.000
     37 H        0.270      0.005     -0.036      0.519     -0.037      6.473
     38 H        0.193      0.001     -0.029     -0.014      0.124     12.162
     40 H       -0.013      0.020      0.146     -0.003     -0.034     -0.239
     41 H        0.014      0.022     -0.025      0.013      0.078     -0.416
     42 H       -0.018      0.013     -0.010     -0.259     -0.372     -0.207
     45 H       -0.018     -0.223      0.014     -0.207     -0.479     -0.183
     46 H        0.012      0.046      0.069     -0.338      0.030      0.926
     47 H       -0.058     -0.124     -0.145     -0.151      1.826     -0.467
     48 H       -0.015      0.030      0.022      0.028      0.010     -0.002
     52 H        0.001      0.001      0.002     -0.003      0.001      0.003
     53 H        0.000     -0.000      0.000      0.000     -0.002     -0.003
     57 H        0.000      0.000      0.000      0.000     -0.000     -0.000
     58 H        0.000      0.000      0.000      0.000      0.000      0.000
     61 H        0.000      0.000      0.000      0.000      0.000     -0.000
     62 H        0.000      0.000      0.000      0.000      0.000     -0.000
     63 H        0.000      0.000      0.000      0.000      0.000      0.000
     64 H        0.000      0.000      0.000      0.000      0.000      0.000
     65 H        0.000      0.000      0.000      0.000      0.000      0.000
     66 H        0.000      0.000      0.000     -0.000      0.000      0.000
     67 H        0.000      0.000      0.000      0.000      0.000      0.000
     68 H        0.000      0.000      0.000      0.000      0.000      0.000
     69 H        0.000      0.000      0.000      0.000      0.000      0.000
     70 H        0.000     -0.010     -0.011      0.078     -0.044      0.004
     71 H        0.004     -0.010     -0.009     -0.451     -0.079      0.004
     72 H        0.000     -0.002     -0.004      0.072      0.013     -0.001
                 35 H       37 H       38 H       40 H       41 H       42 H  
      3 H       -0.076     -0.044     -0.038      0.000      0.000      0.000
      4 H       -0.166     -0.002     -0.002      0.000      0.000      0.000
      8 H        0.020      0.006      0.004      0.000      0.001      0.000
      9 H       -0.092     -0.002     -0.001      0.000     -0.000      0.000
     10 H       -0.180      0.000     -0.001      0.000      0.000      0.000
     11 H       -0.101     -0.000     -0.000      0.000      0.000      0.000
     13 H       13.740      0.002      0.001      0.000      0.000      0.000
     16 H        0.005      0.007      0.002     -0.001      0.001     -0.001
     17 H        0.007      0.005      0.005      0.000      0.002      0.000
     19 H       -0.005     -0.012      0.115      0.005     -0.009      0.006
     21 H       -0.004      0.042     -0.529     -0.011      0.059     -0.025
     24 H       -0.001     -0.053     -0.079     -0.019      0.068     -0.025
     25 H        0.000      0.270      0.193     -0.013      0.014     -0.018
     27 H        0.000      0.005      0.001      0.020      0.022      0.013
     28 H        0.000     -0.036     -0.029      0.146     -0.025     -0.010
     30 H        0.000      0.519     -0.014     -0.003      0.013     -0.259
     31 H        0.000     -0.037      0.124     -0.034      0.078     -0.372
     33 H        0.000      6.473     12.162     -0.239     -0.416     -0.207
     35 H        0.000      0.000      0.000      0.000      0.000      0.000
     37 H        0.000      0.000    -12.191      9.481      2.627     -0.263
     38 H        0.000    -12.191      0.000      6.720     11.601     -0.467
     40 H        0.000      9.481      6.720      0.000    -13.834      9.506
     41 H        0.000      2.627     11.601    -13.834      0.000      8.708
     42 H        0.000     -0.263     -0.467      9.506      8.708      0.000
     45 H        0.000      0.063      0.037     -0.083      0.006      1.122
     46 H        0.000     -0.171      0.008      0.048      0.044     -0.408
     47 H        0.000      0.066     -0.068     -0.112     -0.064     -0.079
     48 H        0.000      0.099     -0.009     -0.204     -0.432     10.378
     52 H        0.000     -0.000      0.004      0.074     -0.020     -0.281
     53 H        0.000      0.003      0.005     -0.118      0.023      0.091
     57 H        0.000      0.000      0.001      0.005     -0.002      0.035
     58 H        0.000      0.000      0.000     -0.005      0.000      0.001
     61 H        0.000      0.000     -0.000     -0.016     -0.001     -0.001
     62 H        0.000      0.000      0.001     -0.006     -0.000      0.001
     63 H        0.000     -0.001     -0.000      0.013      0.004     -0.025
     64 H        0.000      0.000      0.000     -0.002      0.000      0.001
     65 H        0.000      0.000     -0.000      0.000     -0.000      0.000
     66 H        0.000      0.000      0.000     -0.000     -0.000     -0.000
     67 H        0.000      0.000      0.000      0.000      0.000      0.000
     68 H        0.000      0.000      0.000      0.000     -0.000     -0.000
     69 H        0.000      0.000      0.000      0.008     -0.001      0.000
     70 H        0.000      0.066      0.009     -0.023      0.007     -0.439
     71 H        0.000     -0.006      0.004      0.084      0.025     -0.196
     72 H        0.000     -0.020      0.037      0.028     -0.054     -0.344
                 45 H       46 H       47 H       48 H       52 H       53 H  
      3 H       -0.021      0.000      0.000      0.000      0.000      0.000
      4 H       -0.001     -0.001      0.001      0.000      0.000      0.000
      8 H        0.002      0.002     -0.003      0.000      0.000      0.000
      9 H       -0.001      0.000      0.001      0.000      0.000      0.000
     10 H       -0.001      0.000      0.000      0.000      0.000      0.000
     11 H       -0.000      0.000      0.000      0.000      0.000      0.000
     13 H        0.001      0.001     -0.001      0.000      0.000      0.000
     16 H        0.002      0.002     -0.004      0.000      0.000      0.000
     17 H        0.003      0.000     -0.004      0.000      0.000      0.000
     19 H       -0.009     -0.007      0.011      0.006      0.000      0.000
     21 H        0.032      0.014     -0.016     -0.017      0.001     -0.001
     24 H       -0.023     -0.017     -0.023      0.002      0.000      0.000
     25 H       -0.018      0.012     -0.058     -0.015      0.001      0.000
     27 H       -0.223      0.046     -0.124      0.030      0.001     -0.000
     28 H        0.014      0.069     -0.145      0.022      0.002      0.000
     30 H       -0.207     -0.338     -0.151      0.028     -0.003      0.000
     31 H       -0.479      0.030      1.826      0.010      0.001     -0.002
     33 H       -0.183      0.926     -0.467     -0.002      0.003     -0.003
     35 H        0.000      0.000      0.000      0.000      0.000      0.000
     37 H        0.063     -0.171      0.066      0.099     -0.000      0.003
     38 H        0.037      0.008     -0.068     -0.009      0.004      0.005
     40 H       -0.083      0.048     -0.112     -0.204      0.074     -0.118
     41 H        0.006      0.044     -0.064     -0.432     -0.020      0.023
     42 H        1.122     -0.408     -0.079     10.378     -0.281      0.091
     45 H        0.000    -12.847    -13.547     -0.104      0.240     -0.001
     46 H      -12.847      0.000    -12.973     -0.046      0.074     -0.002
     47 H      -13.547    -12.973      0.000     -0.170      0.071     -0.002
     48 H       -0.104     -0.046     -0.170      0.000      9.778     -0.616
     52 H        0.240      0.074      0.071      9.778      0.000     15.956
     53 H       -0.001     -0.002     -0.002     -0.616     15.956      0.000
     57 H        0.000      0.000     -0.000     -0.042     -0.619      9.972
     58 H        0.000      0.000      0.000      0.028      0.090     -0.322
     61 H       -0.000      0.000     -0.000     -0.002      0.082     -0.141
     62 H        0.000      0.000      0.000      0.016      0.092     -0.290
     63 H        0.000      0.000      0.001      0.044     -0.435     -0.059
     64 H        0.000      0.000      0.000     -0.003      0.038     -0.038
     65 H       -0.000     -0.000      0.000      0.000     -0.005      0.019
     66 H        0.000      0.000      0.000      0.002      0.010      0.000
     67 H        0.000      0.000      0.000     -0.002      0.040      0.119
     68 H        0.000      0.000      0.000     -0.001     -0.009      0.037
     69 H        0.000      0.000      0.000      0.006     -0.087      0.031
     70 H       -0.028     -0.016     -0.011      2.311     -0.155      0.087
     71 H       -0.049     -0.197     -0.018      4.494     -0.095     -0.409
     72 H       -0.031     -0.036      0.033     12.673     -0.266      0.099
                 57 H       58 H       61 H       62 H       63 H       64 H  
      3 H        0.000      0.000      0.000      0.000      0.000      0.000
      4 H        0.000      0.000      0.000      0.000      0.000      0.000
      8 H        0.000      0.000      0.000      0.000      0.000      0.000
      9 H        0.000      0.000      0.000      0.000      0.000      0.000
     10 H        0.000      0.000      0.000      0.000      0.000      0.000
     11 H        0.000      0.000      0.000      0.000      0.000      0.000
     13 H        0.000      0.000      0.000      0.000      0.000      0.000
     16 H        0.000      0.000      0.000      0.000      0.000      0.000
     17 H        0.000      0.000      0.000      0.000      0.000      0.000
     19 H        0.000      0.000      0.000      0.000      0.000      0.000
     21 H        0.000      0.000     -0.000      0.000      0.000      0.000
     24 H        0.000      0.000      0.000      0.000      0.000      0.000
     25 H        0.000      0.000      0.000      0.000      0.000      0.000
     27 H        0.000      0.000      0.000      0.000      0.000      0.000
     28 H        0.000      0.000      0.000      0.000      0.000      0.000
     30 H        0.000      0.000      0.000      0.000      0.000      0.000
     31 H       -0.000      0.000      0.000      0.000      0.000      0.000
     33 H       -0.000      0.000     -0.000     -0.000      0.000      0.000
     35 H        0.000      0.000      0.000      0.000      0.000      0.000
     37 H        0.000      0.000      0.000      0.000     -0.001      0.000
     38 H        0.001      0.000     -0.000      0.001     -0.000      0.000
     40 H        0.005     -0.005     -0.016     -0.006      0.013     -0.002
     41 H       -0.002      0.000     -0.001     -0.000      0.004      0.000
     42 H        0.035      0.001     -0.001      0.001     -0.025      0.001
     45 H        0.000      0.000     -0.000      0.000      0.000      0.000
     46 H        0.000      0.000      0.000      0.000      0.000      0.000
     47 H       -0.000      0.000     -0.000      0.000      0.001      0.000
     48 H       -0.042      0.028     -0.002      0.016      0.044     -0.003
     52 H       -0.619      0.090      0.082      0.092     -0.435      0.038
     53 H        9.972     -0.322     -0.141     -0.290     -0.059     -0.038
     57 H        0.000      9.939      2.589     12.728      4.182     -0.307
     58 H        9.939      0.000     -0.471     -0.324     -0.196      3.121
     61 H        2.589     -0.471      0.000    -12.644    -13.061      0.683
     62 H       12.728     -0.324    -12.644      0.000    -12.305     -0.083
     63 H        4.182     -0.196    -13.061    -12.305      0.000      0.014
     64 H       -0.307      3.121      0.683     -0.083      0.014      0.000
     65 H       -0.210      3.478      0.029      0.034      0.017    -12.410
     66 H       -0.345     12.825     -0.053      0.067      0.056    -12.402
     67 H       -0.333     12.616      0.006      0.090     -0.029     -0.213
     68 H       -0.194      4.229      0.009     -0.024     -0.252      0.015
     69 H       -0.456      2.424     -0.073      0.016     -0.075     -0.249
     70 H       -0.004     -0.001     -0.001      0.001     -0.017     -0.005
     71 H        0.040     -0.026     -0.015     -0.012      0.027     -0.003
     72 H        0.015      0.002      0.001      0.003     -0.012     -0.000
                 65 H       66 H       67 H       68 H       69 H       70 H  
      3 H        0.000      0.000      0.000      0.000      0.000      0.000
      4 H        0.000      0.000      0.000      0.000      0.000      0.000
      8 H        0.000      0.000      0.000      0.000      0.000      0.000
      9 H        0.000      0.000      0.000      0.000      0.000      0.000
     10 H        0.000      0.000      0.000      0.000      0.000      0.000
     11 H        0.000      0.000      0.000      0.000      0.000      0.000
     13 H        0.000      0.000      0.000      0.000      0.000      0.000
     16 H        0.000      0.000      0.000      0.000      0.000      0.000
     17 H        0.000      0.000      0.000      0.000      0.000      0.000
     19 H        0.000      0.000      0.000      0.000      0.000      0.000
     21 H        0.000      0.000      0.000      0.000      0.000      0.003
     24 H        0.000      0.000      0.000      0.000      0.000      0.036
     25 H        0.000      0.000      0.000      0.000      0.000      0.000
     27 H        0.000      0.000      0.000      0.000      0.000     -0.010
     28 H        0.000      0.000      0.000      0.000      0.000     -0.011
     30 H        0.000     -0.000      0.000      0.000      0.000      0.078
     31 H        0.000      0.000      0.000      0.000      0.000     -0.044
     33 H        0.000      0.000      0.000      0.000      0.000      0.004
     35 H        0.000      0.000      0.000      0.000      0.000      0.000
     37 H        0.000      0.000      0.000      0.000      0.000      0.066
     38 H       -0.000      0.000      0.000      0.000      0.000      0.009
     40 H        0.000     -0.000      0.000      0.000      0.008     -0.023
     41 H       -0.000     -0.000      0.000     -0.000     -0.001      0.007
     42 H        0.000     -0.000      0.000     -0.000      0.000     -0.439
     45 H       -0.000      0.000      0.000      0.000      0.000     -0.028
     46 H       -0.000      0.000      0.000      0.000      0.000     -0.016
     47 H        0.000      0.000      0.000      0.000      0.000     -0.011
     48 H        0.000      0.002     -0.002     -0.001      0.006      2.311
     52 H       -0.005      0.010      0.040     -0.009     -0.087     -0.155
     53 H        0.019      0.000      0.119      0.037      0.031      0.087
     57 H       -0.210     -0.345     -0.333     -0.194     -0.456     -0.004
     58 H        3.478     12.825     12.616      4.229      2.424     -0.001
     61 H        0.029     -0.053      0.006      0.009     -0.073     -0.001
     62 H        0.034      0.067      0.090     -0.024      0.016      0.001
     63 H        0.017      0.056     -0.029     -0.252     -0.075     -0.017
     64 H      -12.410    -12.402     -0.213      0.015     -0.249     -0.005
     65 H        0.000    -12.629     -0.379      2.877      0.186     -0.036
     66 H      -12.629      0.000     -0.291     -0.287     -0.216     -0.003
     67 H       -0.379     -0.291      0.000    -12.031    -12.727      0.000
     68 H        2.877     -0.287    -12.031      0.000    -13.023     -0.002
     69 H        0.186     -0.216    -12.727    -13.023      0.000      0.000
     70 H       -0.036     -0.003      0.000     -0.002      0.000      0.000
     71 H       -0.000      0.008     -0.001      0.000      0.000    -13.269
     72 H       -0.006      0.000      0.000     -0.000     -0.008    -12.571
                 71 H       72 H  
      3 H        0.000      0.000
      4 H        0.000      0.000
      8 H        0.000      0.000
      9 H        0.000      0.000
     10 H        0.000      0.000
     11 H        0.000      0.000
     13 H        0.000      0.000
     16 H        0.000      0.000
     17 H        0.000      0.000
     19 H       -0.000      0.000
     21 H        0.001      0.001
     24 H        0.020      0.009
     25 H        0.004      0.000
     27 H       -0.010     -0.002
     28 H       -0.009     -0.004
     30 H       -0.451      0.072
     31 H       -0.079      0.013
     33 H        0.004     -0.001
     35 H        0.000      0.000
     37 H       -0.006     -0.020
     38 H        0.004      0.037
     40 H        0.084      0.028
     41 H        0.025     -0.054
     42 H       -0.196     -0.344
     45 H       -0.049     -0.031
     46 H       -0.197     -0.036
     47 H       -0.018      0.033
     48 H        4.494     12.673
     52 H       -0.095     -0.266
     53 H       -0.409      0.099
     57 H        0.040      0.015
     58 H       -0.026      0.002
     61 H       -0.015      0.001
     62 H       -0.012      0.003
     63 H        0.027     -0.012
     64 H       -0.003     -0.000
     65 H       -0.000     -0.006
     66 H        0.008      0.000
     67 H       -0.001      0.000
     68 H        0.000     -0.000
     69 H        0.000     -0.008
     70 H      -13.269    -12.571
     71 H        0.000    -12.404
     72 H      -12.404      0.000

Maximum memory used throughout the entire EPRNMR-calculation: 969.1 MB

Timings for individual modules:

Sum of individual times         ...      407.946 sec (=   6.799 min)
GTO integral calculation        ...        0.577 sec (=   0.010 min)   0.1 %
SCF iterations                  ...      101.027 sec (=   1.684 min)  24.8 %
EPR/NMR calculation             ...      306.342 sec (=   5.106 min)  75.1 %
                             ****ORCA TERMINATED NORMALLY****
TOTAL RUN TIME: 0 days 0 hours 6 minutes 48 seconds 300 msec
