
                                 *****************
                                 * O   R   C   A *
                                 *****************

                                            #,                                       
                                            ###                                      
                                            ####                                     
                                            #####                                    
                                            ######                                   
                                           ########,                                 
                                     ,,################,,,,,                         
                               ,,#################################,,                 
                          ,,##########################################,,             
                       ,#########################################, ''#####,          
                    ,#############################################,,   '####,        
                  ,##################################################,,,,####,       
                ,###########''''           ''''###############################       
              ,#####''   ,,,,##########,,,,          '''####'''          '####       
            ,##' ,,,,###########################,,,                        '##       
           ' ,,###''''                  '''############,,,                           
         ,,##''                                '''############,,,,        ,,,,,,###''
      ,#''                                            '''#######################'''  
     '                                                          ''''####''''         
             ,#######,   #######,   ,#######,      ##                                
            ,#'     '#,  ##    ##  ,#'     '#,    #''#        ,####,   ,####,        
            ##       ##  ##   ,#'  ##            #'  '#       #'       #'  '#        
            ##       ##  #######   ##           ,######,      #####,   #    #        
            '#,     ,#'  ##    ##  '#,     ,#' ,#      #,     #,   #   #,  ,#        
             '#######'   ##     ##  '#######'  #'      '#     '####' # '####'        



                #########################################################
                #                        -***-                          #
                #          Department of theory and spectroscopy        #
                #                                                       #
                #                      Frank Neese                      #
                #                                                       #
                #     Directorship, Architecture, Infrastructure        #
                #                    SHARK, DRIVERS                     #
                #        Core code/Algorithms in most modules           #
                #                                                       #
                #        Max Planck Institute fuer Kohlenforschung      #
                #                Kaiser Wilhelm Platz 1                 #
                #                 D-45470 Muelheim/Ruhr                 #
                #                      Germany                          #
                #                                                       #
                #                  All rights reserved                  #
                #                        -***-                          #
                #########################################################


                         Program Version 6.0.0  -   RELEASE  -


 With contributions from (in alphabetic order):
   Daniel Aravena         : Magnetic Suceptibility
   Michael Atanasov       : Ab Initio Ligand Field Theory (pilot matlab implementation)
   Alexander A. Auer      : GIAO ZORA, VPT2 properties, NMR spectrum
   Ute Becker             : All parallelization in ORCA, NUMFREQ, NUMCALC
   Giovanni Bistoni       : ED, misc. LED, open-shell LED, HFLD
   Martin Brehm           : Molecular dynamics
   Dmytro Bykov           : pre 5.0 version of the SCF Hessian
   Marcos Casanova-Páez   : Triplet and SCS-CIS(D). UHF-(DLPNO)-IP/EA/STEOM-CCSD. UHF-CVS-IP/STEOM-CCSD
   Vijay G. Chilkuri      : MRCI spin determinant printing, contributions to CSF-ICE
   Pauline Colinet        : FMM embedding
   Dipayan Datta          : RHF DLPNO-CCSD density
   Achintya Kumar Dutta   : EOM-CC, STEOM-CC
   Nicolas Foglia         : Exact transition moments, OPA infrastructure, MCD improvements
   Dmitry Ganyushin       : Spin-Orbit,Spin-Spin,Magnetic field MRCI
   Miquel Garcia          : C-PCM and meta-GGA Hessian, CCSD/C-PCM, Gaussian charge scheme
   Tiago L. C. Gouveia    : GS-ROHF, GS-ROCIS
   Yang Guo               : DLPNO-NEVPT2, F12-NEVPT2, CIM, IAO-localization
   Andreas Hansen         : Spin unrestricted coupled pair/coupled cluster methods
   Ingolf Harden          : AUTO-CI MPn and infrastructure 
   Benjamin Helmich-Paris : MC-RPA, TRAH-(SCF,CASSCF), AVAS, COSX integrals, SCF dyn. polar.
   Lee Huntington         : MR-EOM, pCC
   Robert Izsak           : Overlap fitted RIJCOSX, COSX-SCS-MP3, EOM
   Riya Kayal             : Wick's Theorem for AUTO-CI, AUTO-CI UHF-CCSDT
   Emily Kempfer          : AUTO-CI, RHF CISDT and CCSDT
   Christian Kollmar      : KDIIS, OOCD, Brueckner-CCSD(T), CCSD density, CASPT2, CASPT2-K, improved NEVPT2
   Axel Koslowski         : Symmetry handling
   Simone Kossmann        : Meta GGA functionals, TD-DFT gradient, OOMP2, (MP2 Hessian; deprecated post 5.0)
   Lucas Lang             : DCDCAS
   Marvin Lechner         : AUTO-CI (C++ implementation), FIC-MRCC
   Spencer Leger          : CASSCF response
   Dagmar Lenk            : GEPOL surface, SMD, ORCA-2-JSON
   Dimitrios Liakos       : Extrapolation schemes; Compound Job, initial MDCI parallelization
   Dimitrios Manganas     : Further ROCIS development; embedding schemes. LFT, Crystal Embedding
   Dimitrios Pantazis     : SARC Basis sets
   Anastasios Papadopoulos: AUTO-CI, single reference methods and gradients
   Taras Petrenko         : pre 6.0 DFT Hessian and TD-DFT gradient, (ASA, deprecated), ECA, 1-Electron XAS/XES, NRVS
   Peter Pinski           : DLPNO-MP2, DLPNO-MP2 Gradient
   Christoph Reimann      : Effective Core Potentials
   Marius Retegan         : Local ZFS, SOC
   Christoph Riplinger    : Optimizer, TS searches, QM/MM, DLPNO-CCSD(T), (RO)-DLPNO pert. Triples
   Michael Roemelt        : Original ROCIS implementation
   Masaaki Saitow         : Open-shell DLPNO-CCSD energy and density
   Barbara Sandhoefer     : DKH picture change effects
   Kantharuban Sivalingam : CASSCF convergence/infrastructure, NEVPT2 and variants, FIC-MRCI
   Bernardo de Souza      : ESD, SOC TD-DFT
   Georgi Stoychev        : AutoAux, RI-MP2 NMR, DLPNO-MP2 response, X2C
   Van Anh Tran           : RI-MP2 g-tensors
   Willem Van den Heuvel  : Paramagnetic NMR
   Zikuan Wang            : NOTCH, Electric field optimization 
   Frank Wennmohs         : Technical directorship and infrastructure
   Hang Xu                : AUTO-CI-Response properties 


 We gratefully acknowledge several colleagues who have allowed us to
 interface, adapt or use parts of their codes:
   Stefan Grimme, W. Hujo, H. Kruse, P. Pracht,  : VdW corrections, initial TS optimization,
                  C. Bannwarth, S. Ehlert,         DFT functionals, gCP, sTDA/sTD-DF
                  L. Wittmann, M. Mueller
   Ed Valeev, F. Pavosevic, A. Kumar             : LibInt (2-el integral package), F12 methods
   Garnet Chan, S. Sharma, J. Yang, R. Olivares  : DMRG
   Ulf Ekstrom                                   : XCFun DFT Library
   Mihaly Kallay                                 : mrcc  (arbitrary order and MRCC methods)
   Frank Weinhold                                : gennbo (NPA and NBO analysis)
   Simon Mueller                                 : openCOSMO-RS
   Christopher J. Cramer and Donald G. Truhlar   : smd solvation model
   Lars Goerigk                                  : TD-DFT with DH, B97 family of functionals
   V. Asgeirsson, H. Jonsson                     : NEB implementation
   FAccTs GmbH                                   : IRC, NEB, NEB-TS, DLPNO-Multilevel, CI-OPT
                                                   MM, QMMM, 2- and 3-layer-ONIOM, Crystal-QMMM,
                                                   LR-CPCM, SF, NACMEs, symmetry and pop. for TD-DFT,
                                                   nearIR, NL-DFT gradient (VV10), updates on ESD,
                                                   ML-optimized integration grids, MBIS, APM,
                                                   GOAT, DOCKER, SOLVATOR, interface openCOSMO-RS
   S Lehtola, MJT Oliveira, MAL Marques          : LibXC Library
   Liviu Ungur et al                             : ANISO software


 Your calculation uses the libint2 library for the computation of 2-el integrals
 For citations please refer to: http://libint.valeyev.net

 Your ORCA version has been built with support for libXC version: 6.2.2
 For citations please refer to: https://libxc.gitlab.io

 This ORCA versions uses:
   CBLAS   interface :  Fast vector & matrix operations
   LAPACKE interface :  Fast linear algebra routines
   SCALAPACK package :  Parallel linear algebra routines
   Shared memory     :  Shared parallel matrices
   BLAS/LAPACK       :  OpenBLAS 0.3.27  USE64BITINT DYNAMIC_ARCH NO_AFFINITY Zen SINGLE_THREADED
        Core in use  :  Zen
   Copyright (c) 2011-2014, The OpenBLAS Project


NOTE: MaxCore=8000 MB was set to SCF,MP2,MDCI,CIPSI,MRCI and CIS
      => If you want to overwrite this, your respective input block should be placed after the MaxCore statement
Your calculation utilizes the atom-pairwise dispersion correction
based on EEQ partial charges (D4)


================================================================================

----- Orbital basis set information -----
Your calculation utilizes the basis: def2-SVP
   F. Weigend and R. Ahlrichs, Phys. Chem. Chem. Phys. 7, 3297 (2005).

----- AuxJ basis set information -----
Your calculation utilizes the auxiliary basis: def2/J
   F. Weigend, Phys. Chem. Chem. Phys. 8, 1057 (2006).

================================================================================
                                        WARNINGS
                       Please study these warnings very carefully!
================================================================================

WARNING: Old DensityContainer found on disk!
         Will remove this file - 
         If you want to keep old densities, please start your calculation with a different basename. 


================================================================================
                                       INPUT FILE
================================================================================
NAME = inpS
|  1> ! wb97x-d4
|  2> ! def2-svp
|  3> ! def2/J RIJCOSX
|  4> ! DEFGRID2
|  5> ! scfconv7
|  6> ! smallprint printgap noloewdin
|  7> ! NOSOSCF
|  8> %MaxCore 8000
|  9> %output
| 10>        print[P_BondOrder_M] 1
| 11>        print[P_Mayer] 1
| 12>        print[P_basis] 2
| 13> end
| 14> %pal
| 15>     nprocs 4
| 16> end
| 17> ! CPCM(chloroform)
| 18> *xyz 0 1
| 19> C   -5.0316843800   0.3031452700   0.3138049700
| 20> C   -6.4392359100  -0.1192093400  -0.0356727800
| 21> C   -6.9772031200   0.6468486000  -1.2504447400
| 22> H   -7.1090024200   0.1023474400   0.8126242500
| 23> H   -6.4843337500  -1.1974686400  -0.2242421800
| 24> C   -4.8499865900   1.7655388800   0.4329247900
| 25> C   -5.4329079300   2.5634722600  -0.7115687300
| 26> C   -6.8795228800   2.1498627600  -1.0142080100
| 27> H   -4.8239009900   2.3782316300  -1.6094502900
| 28> H   -5.3754478400   3.6350916300  -0.4934270000
| 29> H   -7.2517626400   2.6871692700  -1.8944329500
| 30> H   -7.5252325200   2.4152446400  -0.1634876400
| 31> O   -8.3157131000   0.2428323900  -1.5674457400
| 32> H   -6.3839076000   0.3772400300  -2.1354009100
| 33> C   -4.0442670700  -0.6134552300   0.4500989800
| 34> C   -4.2616129800   2.3512949000   1.4821176900
| 35> H   -3.8710352200   1.7673788700   2.3108555200
| 36> H   -4.1680572900   3.4332336000   1.5385067900
| 37> C   -2.6459943700  -0.3389959200   0.6867179700
| 38> H   -4.3358466700  -1.6557208800   0.3276873700
| 39> C   -1.6730424200  -1.2516877100   0.8961521100
| 40> H   -2.3604383800   0.7104279300   0.6822902600
| 41> C   -1.8688167900  -2.7441736200   0.9827539900
| 42> C   -0.9217951900  -3.5023290300   0.0333584200
| 43> H   -2.9039314700  -3.0392896400   0.7899861500
| 44> H   -1.6384838700  -3.0532698400   2.0150074000
| 45> C    0.5426494900  -3.0684695500   0.1868516100
| 46> H   -1.2489974800  -3.3422194100  -1.0017231800
| 47> H   -1.0076376100  -4.5791452100   0.2240207500
| 48> C    0.7057720800  -1.5494136700   0.0394577500
| 49> H    1.1517709400  -3.6079879900  -0.5458746000
| 50> H    0.9045901300  -3.3620476700   1.1838275300
| 51> C   -0.2357694200  -0.8745046400   1.0867855700
| 52> H    0.0730715900  -1.3094567000   2.0554918500
| 53> C    0.2000676400   0.5875793700   1.0933383900
| 54> H   -8.8750000300   0.4695205400  -0.8123934000
| 55> C    1.7325911600   0.5092521600   0.8880677100
| 56> H   -0.0807005000   1.0976286400   2.0208823700
| 57> H   -0.2692789100   1.1357339600   0.2687338300
| 58> C    2.0697377300  -0.9604755700   0.4960373400
| 59> H    2.2815244700   0.8024521900   1.7885926400
| 60> H    2.0576789600   1.1924504600   0.0944531200
| 61> H    2.3553227900  -1.5098567900   1.4081425700
| 62> C    3.2711245000  -1.0265953600  -0.4687904700
| 63> C    0.3616835800  -1.0929946000  -1.3846635700
| 64> H   -0.7010544700  -1.2341792600  -1.6044368500
| 65> H    0.9377119100  -1.6618754200  -2.1229639300
| 66> H    0.5875644900  -0.0323334900  -1.5333334000
| 67> H    3.0133707700  -0.4668957200  -1.3801482500
| 68> C    3.6566214400  -2.4600397000  -0.8640360900
| 69> C    4.4601385600  -0.3521904600   0.1654190500
| 70> C    5.0896020900   0.7081762000  -0.3410834900
| 71> H    4.8074551400  -0.8046229400   1.0970551400
| 72> H    4.7082159200   1.1193684000  -1.2782894800
| 73> C    6.2876826400   1.4159800000   0.2342981800
| 74> C    6.8793024400   0.7261756400   1.4632577400
| 75> C    5.9984648400   2.9213397000   0.5029747200
| 76> H    7.0630319800   1.4077996800  -0.5506934400
| 77> H    6.9344304400   3.3375918200   0.9058437100
| 78> C    4.8959198000   3.1356785800   1.5413420600
| 79> C    5.6704580500   3.6833677400  -0.7839956400
| 80> H    7.2114460600  -0.2890316300   1.2212712300
| 81> H    6.1550753600   0.6509479700   2.2810346300
| 82> H    7.7441882400   1.2885695500   1.8312705500
| 83> H    4.7524635100   4.2053020200   1.7314188700
| 84> H    5.1300214600   2.6565497400   2.4974128200
| 85> H    3.9446205300   2.7257586400   1.1823752500
| 86> H    4.6899926800   3.3949461600  -1.1796834900
| 87> H    6.4199678300   3.4975345300  -1.5621330000
| 88> H    5.6410373700   4.7617606400  -0.5926593900
| 89> H    4.5884355700  -2.4565919000  -1.4395910700
| 90> H    2.8852992800  -2.9322396200  -1.4777320300
| 91> H    3.8105181900  -3.0808197700   0.0271805600
| 92> *
| 93> %eprnmr
| 94>  Nuclei = all C { shift }
| 95>  origin giao
| 96>  giao_2el giao_2el_same_as_scf
| 97>  giao_1el giao_1el_analytic
| 98> end
| 99> 
|100>                          ****END OF INPUT****
================================================================================

                       ****************************
                       * Single Point Calculation *
                       ****************************

---------------------------------
CARTESIAN COORDINATES (ANGSTROEM)
---------------------------------
  C     -5.031684    0.303145    0.313805
  C     -6.439236   -0.119209   -0.035673
  C     -6.977203    0.646849   -1.250445
  H     -7.109002    0.102347    0.812624
  H     -6.484334   -1.197469   -0.224242
  C     -4.849987    1.765539    0.432925
  C     -5.432908    2.563472   -0.711569
  C     -6.879523    2.149863   -1.014208
  H     -4.823901    2.378232   -1.609450
  H     -5.375448    3.635092   -0.493427
  H     -7.251763    2.687169   -1.894433
  H     -7.525233    2.415245   -0.163488
  O     -8.315713    0.242832   -1.567446
  H     -6.383908    0.377240   -2.135401
  C     -4.044267   -0.613455    0.450099
  C     -4.261613    2.351295    1.482118
  H     -3.871035    1.767379    2.310856
  H     -4.168057    3.433234    1.538507
  C     -2.645994   -0.338996    0.686718
  H     -4.335847   -1.655721    0.327687
  C     -1.673042   -1.251688    0.896152
  H     -2.360438    0.710428    0.682290
  C     -1.868817   -2.744174    0.982754
  C     -0.921795   -3.502329    0.033358
  H     -2.903931   -3.039290    0.789986
  H     -1.638484   -3.053270    2.015007
  C      0.542649   -3.068470    0.186852
  H     -1.248997   -3.342219   -1.001723
  H     -1.007638   -4.579145    0.224021
  C      0.705772   -1.549414    0.039458
  H      1.151771   -3.607988   -0.545875
  H      0.904590   -3.362048    1.183828
  C     -0.235769   -0.874505    1.086786
  H      0.073072   -1.309457    2.055492
  C      0.200068    0.587579    1.093338
  H     -8.875000    0.469521   -0.812393
  C      1.732591    0.509252    0.888068
  H     -0.080700    1.097629    2.020882
  H     -0.269279    1.135734    0.268734
  C      2.069738   -0.960476    0.496037
  H      2.281524    0.802452    1.788593
  H      2.057679    1.192450    0.094453
  H      2.355323   -1.509857    1.408143
  C      3.271124   -1.026595   -0.468790
  C      0.361684   -1.092995   -1.384664
  H     -0.701054   -1.234179   -1.604437
  H      0.937712   -1.661875   -2.122964
  H      0.587564   -0.032333   -1.533333
  H      3.013371   -0.466896   -1.380148
  C      3.656621   -2.460040   -0.864036
  C      4.460139   -0.352190    0.165419
  C      5.089602    0.708176   -0.341083
  H      4.807455   -0.804623    1.097055
  H      4.708216    1.119368   -1.278289
  C      6.287683    1.415980    0.234298
  C      6.879302    0.726176    1.463258
  C      5.998465    2.921340    0.502975
  H      7.063032    1.407800   -0.550693
  H      6.934430    3.337592    0.905844
  C      4.895920    3.135679    1.541342
  C      5.670458    3.683368   -0.783996
  H      7.211446   -0.289032    1.221271
  H      6.155075    0.650948    2.281035
  H      7.744188    1.288570    1.831271
  H      4.752464    4.205302    1.731419
  H      5.130021    2.656550    2.497413
  H      3.944621    2.725759    1.182375
  H      4.689993    3.394946   -1.179683
  H      6.419968    3.497535   -1.562133
  H      5.641037    4.761761   -0.592659
  H      4.588436   -2.456592   -1.439591
  H      2.885299   -2.932240   -1.477732
  H      3.810518   -3.080820    0.027181

----------------------------
CARTESIAN COORDINATES (A.U.)
----------------------------
  NO LB      ZA    FRAG     MASS         X           Y           Z
   0 C     6.0000    0    12.011   -9.508505    0.572862    0.593005
   1 C     6.0000    0    12.011  -12.168392   -0.225273   -0.067412
   2 C     6.0000    0    12.011  -13.185003    1.222367   -2.362998
   3 H     1.0000    0     1.008  -13.434068    0.193409    1.535637
   4 H     1.0000    0     1.008  -12.253615   -2.262888   -0.423756
   5 C     6.0000    0    12.011   -9.165146    3.336385    0.818109
   6 C     6.0000    0    12.011  -10.266708    4.844261   -1.344670
   7 C     6.0000    0    12.011  -13.000414    4.062652   -1.916575
   8 H     1.0000    0     1.008   -9.115852    4.494206   -3.041420
   9 H     1.0000    0     1.008  -10.158124    6.869328   -0.932442
  10 H     1.0000    0     1.008  -13.703845    5.078014   -3.579959
  11 H     1.0000    0     1.008  -14.220629    4.564151   -0.308947
  12 O     8.0000    0    15.999  -15.714420    0.458887   -2.962043
  13 H     1.0000    0     1.008  -12.063837    0.712880   -4.035323
  14 C     6.0000    0    12.011   -7.642557   -1.159262    0.850564
  15 C     6.0000    0    12.011   -8.053281    4.443303    2.800797
  16 H     1.0000    0     1.008   -7.315196    3.339862    4.366884
  17 H     1.0000    0     1.008   -7.876487    6.487871    2.907356
  18 C     6.0000    0    12.011   -5.000205   -0.640609    1.297709
  19 H     1.0000    0     1.008   -8.193563   -3.128859    0.619239
  20 C     6.0000    0    12.011   -3.161592   -2.365347    1.693482
  21 H     1.0000    0     1.008   -4.460582    1.342514    1.289342
  22 C     6.0000    0    12.011   -3.531552   -5.185737    1.857136
  23 C     6.0000    0    12.011   -1.741940   -6.618443    0.063038
  24 H     1.0000    0     1.008   -5.487635   -5.743425    1.492857
  25 H     1.0000    0     1.008   -3.096286   -5.769844    3.807812
  26 C     6.0000    0    12.011    1.025459   -5.798567    0.353098
  27 H     1.0000    0     1.008   -2.360263   -6.315879   -1.892982
  28 H     1.0000    0     1.008   -1.904159   -8.653330    0.423338
  29 C     6.0000    0    12.011    1.333716   -2.927968    0.074564
  30 H     1.0000    0     1.008    2.176532   -6.818109   -1.031553
  31 H     1.0000    0     1.008    1.709428   -6.353349    2.237110
  32 C     6.0000    0    12.011   -0.445540   -1.652574    2.053727
  33 H     1.0000    0     1.008    0.138085   -2.474515    3.884317
  34 C     6.0000    0    12.011    0.378073    1.110364    2.066110
  35 H     1.0000    0     1.008  -16.771319    0.887265   -1.535201
  36 C     6.0000    0    12.011    3.274123    0.962347    1.678205
  37 H     1.0000    0     1.008   -0.152502    2.074218    3.818914
  38 H     1.0000    0     1.008   -0.508863    2.146226    0.507833
  39 C     6.0000    0    12.011    3.911237   -1.815036    0.937375
  40 H     1.0000    0     1.008    4.311456    1.516415    3.379950
  41 H     1.0000    0     1.008    3.888450    2.253405    0.178491
  42 H     1.0000    0     1.008    4.450915   -2.853216    2.661004
  43 C     6.0000    0    12.011    6.181529   -1.939984   -0.885886
  44 C     6.0000    0    12.011    0.683483   -2.065460   -2.616635
  45 H     1.0000    0     1.008   -1.324801   -2.332261   -3.031946
  46 H     1.0000    0     1.008    1.772019   -3.140489   -4.011820
  47 H     1.0000    0     1.008    1.110336   -0.061101   -2.897580
  48 H     1.0000    0     1.008    5.694445   -0.882305   -2.608102
  49 C     6.0000    0    12.011    6.910013   -4.648801   -1.632792
  50 C     6.0000    0    12.011    8.428440   -0.665544    0.312597
  51 C     6.0000    0    12.011    9.617954    1.338259   -0.644554
  52 H     1.0000    0     1.008    9.084774   -1.520517    2.073134
  53 H     1.0000    0     1.008    8.897239    2.115300   -2.415617
  54 C     6.0000    0    12.011   11.881998    2.675814    0.442759
  55 C     6.0000    0    12.011   12.999998    1.372273    2.765156
  56 C     6.0000    0    12.011   11.335456    5.520532    0.950484
  57 H     1.0000    0     1.008   13.347196    2.660356   -1.040660
  58 H     1.0000    0     1.008   13.104174    6.307134    1.711797
  59 C     6.0000    0    12.011    9.251948    5.925574    2.912714
  60 C     6.0000    0    12.011   10.715613    6.960556   -1.481537
  61 H     1.0000    0     1.008   13.627658   -0.546191    2.307868
  62 H     1.0000    0     1.008   11.631407    1.230113    4.310531
  63 H     1.0000    0     1.008   14.634395    2.435044    3.460600
  64 H     1.0000    0     1.008    8.980854    7.946869    3.271907
  65 H     1.0000    0     1.008    9.694336    5.020151    4.719426
  66 H     1.0000    0     1.008    7.454253    5.150937    2.234365
  67 H     1.0000    0     1.008    8.862802    6.415518   -2.229279
  68 H     1.0000    0     1.008   12.131981    6.609382   -2.952004
  69 H     1.0000    0     1.008   10.660016    8.998424   -1.119964
  70 H     1.0000    0     1.008    8.670887   -4.642286   -2.720433
  71 H     1.0000    0     1.008    5.452425   -5.541130   -2.792509
  72 H     1.0000    0     1.008    7.200836   -5.821906    0.051364

--------------------------------
INTERNAL COORDINATES (ANGSTROEM)
--------------------------------
 C      0   0   0     0.000000000000     0.00000000     0.00000000
 C      1   0   0     1.510536137912     0.00000000     0.00000000
 C      2   1   0     1.533598513717   111.74433327     0.00000000
 H      2   1   3     1.103305232376   109.36794680   241.46258624
 H      2   1   3     1.095552532664   110.69373095   122.88350355
 C      1   2   3     1.478444685802   114.18788328    50.49968197
 C      6   1   2     1.512071554149   114.43221417   312.05018820
 C      3   2   1     1.524598565868   110.31817293   305.01772786
 H      7   6   1     1.100633835460   108.38156804   289.93857612
 H      7   6   1     1.095105269127   110.20563479   172.73861653
 H      8   3   2     1.096383450081   109.69299492   179.11109978
 H      8   3   2     1.100496991979   108.65823507   296.54961574
 O      3   2   1     1.433641412105   111.21620792   180.32674243
 H      3   2   1     1.099015822402   109.02092925    65.16018575
 C      1   2   3     1.354151201990   120.89661503   232.66399496
 C      6   1   2     1.337945948580   123.38602860   129.85839327
 H     16   6   1     1.086423171499   121.39779899     0.65627052
 H     16   6   1     1.087439077966   120.93634866   181.33627755
 C     15   1   2     1.444466338424   126.42242850   175.31862466
 H     15   1   2     1.089183616554   116.18099498   357.96501108
 C     19  15   1     1.350371970806   126.47332485   176.07222337
 H     19  15   1     1.087590108906   115.90208993   355.35556924
 C     21  19  15     1.507760485328   125.75983927   357.20113888
 C     23  21  19     1.540454960365   111.83617880   127.89283607
 H     23  21  19     1.093487679926   112.32987736     3.76013588
 H     23  21  19     1.101880587773   107.71851905   246.54661830
 C     24  23  21     1.535054536016   112.69098800    50.79022769
 H     24  23  21     1.097310506491   109.04014582   288.69384350
 H     24  23  21     1.096929410064   109.14171226   172.73993707
 C     27  24  23     1.534882632613   111.80855130   306.19895556
 H     27  24  23     1.094987117171   108.93673844   182.68966713
 H     27  24  23     1.100522659688   109.20447103    66.18952021
 C     21  19  15     1.498119441465   122.73887000   177.81966679
 H     33  21  19     1.105874278961   106.28236936   123.98132782
 C     33  21  19     1.525675763266   121.05690997     1.79502594
 H     13   3   2     0.966588549259   107.54217176    62.69780876
 C     35  33  21     1.548192346980   103.51639774   196.28993952
 H     35  33  21     1.095134165799   112.13112463    74.25899809
 H     35  33  21     1.095779320350   110.71998000   314.66644301
 C     30  27  24     1.554257154404   116.10819919   166.35938742
 H     37  35  33     1.094641121999   111.94840922   249.48051765
 H     37  35  33     1.096478961172   110.97275289   130.95121460
 H     40  30  27     1.102413036016   106.35301947   320.93781726
 C     40  30  27     1.542269334685   118.91968911    81.77991948
 C     30  27  24     1.534547750111   111.07876356   294.28272119
 H     45  30  27     1.094369940075   111.45350406    66.72626616
 H     45  30  27     1.095683095563   110.67274196   306.57772194
 H     45  30  27     1.094589829169   111.59148391   186.72759111
 H     44  40  30     1.100124390927   108.29597801    60.59765579
 C     44  40  30     1.536095591673   113.35735664   299.90867414
 C     44  40  30     1.506916759241   109.40013188   177.85185713
 C     51  44  40     1.333096625255   124.65569853   240.46084164
 H     51  44  40     1.092368875377   115.11597597    61.37898573
 H     52  51  44     1.092194810325   117.42622440     0.52867550
 C     52  51  44     1.505804532386   127.18514261   180.72094087
 C     55  52  51     1.528458583980   113.77005208     5.84344868
 C     55  52  51     1.556258926197   111.88727217   238.09128605
 H     55  52  51     1.103379064576   106.48515489   123.77600075
 H     57  55  52     1.100727420796   105.72117974   180.66886769
 C     57  55  52     1.529625265706   112.74882502    62.70701007
 C     57  55  52     1.531198189507   112.09202801   297.56507826
 H     56  55  52     1.095227216786   110.98145682    60.31525479
 H     56  55  52     1.094953472782   112.05546260   300.03287347
 H     56  55  52     1.095329989259   110.12445875   179.98050416
 H     60  57  55     1.095811664584   110.41927713   177.65906900
 H     60  57  55     1.094732538414   112.17203294    57.54853471
 H     60  57  55     1.096294590424   110.53572898   297.03956334
 H     61  57  55     1.095932581967   111.35440301    70.53353588
 H     61  57  55     1.096264860005   111.45513274   309.72434867
 H     61  57  55     1.095630587263   110.41449036   189.67697850
 H     50  44  40     1.095241067161   110.23000935   187.39065202
 H     50  44  40     1.092947091916   111.74898549    67.46069634
 H     50  44  40     1.096959079550   110.74776305   306.87410286

---------------------------
INTERNAL COORDINATES (A.U.)
---------------------------
 C      0   0   0     0.000000000000     0.00000000     0.00000000
 C      1   0   0     2.854499616045     0.00000000     0.00000000
 C      2   1   0     2.898081190313   111.74433327     0.00000000
 H      2   1   3     2.084944731313   109.36794680   241.46258624
 H      2   1   3     2.070294252058   110.69373095   122.88350355
 C      1   2   3     2.793855560317   114.18788328    50.49968197
 C      6   1   2     2.857401132235   114.43221417   312.05018820
 C      3   2   1     2.881073753660   110.31817293   305.01772786
 H      7   6   1     2.079896522746   108.38156804   289.93857612
 H      7   6   1     2.069449046464   110.20563479   172.73861653
 H      8   3   2     2.071864458417   109.69299492   179.11109978
 H      8   3   2     2.079637926044   108.65823507   296.54961574
 O      3   2   1     2.709189643127   111.21620792   180.32674243
 H      3   2   1     2.076838921187   109.02092925    65.16018575
 C      1   2   3     2.558974915681   120.89661503   232.66399496
 C      6   1   2     2.528351424805   123.38602860   129.85839327
 H     16   6   1     2.053042259680   121.39779899     0.65627052
 H     16   6   1     2.054962044680   120.93634866   181.33627755
 C     15   1   2     2.729645789289   126.42242850   175.31862466
 H     15   1   2     2.058258744840   116.18099498   357.96501108
 C     19  15   1     2.551833203748   126.47332485   176.07222337
 H     19  15   1     2.055247451793   115.90208993   355.35556924
 C     21  19  15     2.849254392818   125.75983927   357.20113888
 C     23  21  19     2.911037996731   111.83617880   127.89283607
 H     23  21  19     2.066392245877   112.32987736     3.76013588
 H     23  21  19     2.082252543175   107.71851905   246.54661830
 C     24  23  21     2.900832673703   112.69098800    50.79022769
 H     24  23  21     2.073616341143   109.04014582   288.69384350
 H     24  23  21     2.072896173264   109.14171226   172.73993707
 C     27  24  23     2.900507823350   111.80855130   306.19895556
 H     27  24  23     2.069225771626   108.93673844   182.68966713
 H     27  24  23     2.079686430984   109.20447103    66.18952021
 C     21  19  15     2.831035460272   122.73887000   177.81966679
 H     33  21  19     2.089799525784   106.28236936   123.98132782
 C     33  21  19     2.883109361734   121.05690997     1.79502594
 H     13   3   2     1.826587642284   107.54217176    62.69780876
 C     35  33  21     2.925659538425   103.51639774   196.28993952
 H     35  33  21     2.069503653261   112.13112463    74.25899809
 H     35  33  21     2.070722818677   110.71998000   314.66644301
 C     30  27  24     2.937120363511   116.10819919   166.35938742
 H     37  35  33     2.068571935506   111.94840922   249.48051765
 H     37  35  33     2.072044948221   110.97275289   130.95121460
 H     40  30  27     2.083258724534   106.35301947   320.93781726
 C     40  30  27     2.914466667300   118.91968911    81.77991948
 C     30  27  24     2.899874987135   111.07876356   294.28272119
 H     45  30  27     2.068059475937   111.45350406    66.72626616
 H     45  30  27     2.070540980181   110.67274196   306.57772194
 H     45  30  27     2.068475006106   111.59148391   186.72759111
 H     44  40  30     2.078933812098   108.29597801    60.59765579
 C     44  40  30     2.902799983785   113.35735664   299.90867414
 C     44  40  30     2.847659981581   109.40013188   177.85185713
 C     51  44  40     2.519187531786   124.65569853   240.46084164
 H     51  44  40     2.064278011682   115.11597597    61.37898573
 H     52  51  44     2.063949076404   117.42622440     0.52867550
 C     52  51  44     2.845558177427   127.18514261   180.72094087
 C     55  52  51     2.888368130763   113.77005208     5.84344868
 C     55  52  51     2.940903163982   111.88727217   238.09128605
 H     55  52  51     2.085084253950   106.48515489   123.77600075
 H     57  55  52     2.080073373401   105.72117974   180.66886769
 C     57  55  52     2.890572839711   112.74882502    62.70701007
 C     57  55  52     2.893545234925   112.09202801   297.56507826
 H     56  55  52     2.069679494143   110.98145682    60.31525479
 H     56  55  52     2.069162192944   112.05546260   300.03287347
 H     56  55  52     2.069873705971   110.12445875   179.98050416
 H     60  57  55     2.070783940420   110.41927713   177.65906900
 H     60  57  55     2.068744687494   112.17203294    57.54853471
 H     60  57  55     2.071696538001   110.53572898   297.03956334
 H     61  57  55     2.071012441159   111.35440301    70.53353588
 H     61  57  55     2.071640355651   111.45513274   309.72434867
 H     61  57  55     2.070441753874   110.41449036   189.67697850
 H     50  44  40     2.069705667557   110.23000935   187.39065202
 H     50  44  40     2.065370682587   111.74898549    67.46069634
 H     50  44  40     2.072952240468   110.74776305   306.87410286

---------------------
BASIS SET INFORMATION
---------------------
There are 3 groups of distinct atoms

 Group   1 Type C   : 7s4p1d contracted to 3s2p1d pattern {511/31/1}
 Group   2 Type H   : 4s1p contracted to 2s1p pattern {31/1}
 Group   3 Type O   : 7s4p1d contracted to 3s2p1d pattern {511/31/1}

Atom   0C    basis set group =>   1
Atom   1C    basis set group =>   1
Atom   2C    basis set group =>   1
Atom   3H    basis set group =>   2
Atom   4H    basis set group =>   2
Atom   5C    basis set group =>   1
Atom   6C    basis set group =>   1
Atom   7C    basis set group =>   1
Atom   8H    basis set group =>   2
Atom   9H    basis set group =>   2
Atom  10H    basis set group =>   2
Atom  11H    basis set group =>   2
Atom  12O    basis set group =>   3
Atom  13H    basis set group =>   2
Atom  14C    basis set group =>   1
Atom  15C    basis set group =>   1
Atom  16H    basis set group =>   2
Atom  17H    basis set group =>   2
Atom  18C    basis set group =>   1
Atom  19H    basis set group =>   2
Atom  20C    basis set group =>   1
Atom  21H    basis set group =>   2
Atom  22C    basis set group =>   1
Atom  23C    basis set group =>   1
Atom  24H    basis set group =>   2
Atom  25H    basis set group =>   2
Atom  26C    basis set group =>   1
Atom  27H    basis set group =>   2
Atom  28H    basis set group =>   2
Atom  29C    basis set group =>   1
Atom  30H    basis set group =>   2
Atom  31H    basis set group =>   2
Atom  32C    basis set group =>   1
Atom  33H    basis set group =>   2
Atom  34C    basis set group =>   1
Atom  35H    basis set group =>   2
Atom  36C    basis set group =>   1
Atom  37H    basis set group =>   2
Atom  38H    basis set group =>   2
Atom  39C    basis set group =>   1
Atom  40H    basis set group =>   2
Atom  41H    basis set group =>   2
Atom  42H    basis set group =>   2
Atom  43C    basis set group =>   1
Atom  44C    basis set group =>   1
Atom  45H    basis set group =>   2
Atom  46H    basis set group =>   2
Atom  47H    basis set group =>   2
Atom  48H    basis set group =>   2
Atom  49C    basis set group =>   1
Atom  50C    basis set group =>   1
Atom  51C    basis set group =>   1
Atom  52H    basis set group =>   2
Atom  53H    basis set group =>   2
Atom  54C    basis set group =>   1
Atom  55C    basis set group =>   1
Atom  56C    basis set group =>   1
Atom  57H    basis set group =>   2
Atom  58H    basis set group =>   2
Atom  59C    basis set group =>   1
Atom  60C    basis set group =>   1
Atom  61H    basis set group =>   2
Atom  62H    basis set group =>   2
Atom  63H    basis set group =>   2
Atom  64H    basis set group =>   2
Atom  65H    basis set group =>   2
Atom  66H    basis set group =>   2
Atom  67H    basis set group =>   2
Atom  68H    basis set group =>   2
Atom  69H    basis set group =>   2
Atom  70H    basis set group =>   2
Atom  71H    basis set group =>   2
Atom  72H    basis set group =>   2

-------------------------
BASIS SET IN INPUT FORMAT
-------------------------

 # Basis set for element : H 
 NewGTO H 
 S 3 
   1      13.0107010000      0.0334854848
   2       1.9622572000      0.2347218709
   3       0.4445379600      0.8137702853
 S 1 
   1       0.1219496200      1.0000000000
 P 1 
   1       0.8000000000      1.0000000000
  end;

 # Basis set for element : C 
 NewGTO C 
 S 5 
   1    1238.4016938000      0.0055173650
   2     186.2900499200      0.0410888285
   3      42.2511763460      0.1822538213
   4      11.6765579320      0.4682845944
   5       3.5930506482      0.4457581734
 S 1 
   1       0.4024514736      1.0000000000
 S 1 
   1       0.1309018267      1.0000000000
 P 3 
   1       9.4680970621      0.0568883320
   2       2.0103545142      0.3129405934
   3       0.5477100471      0.7606501651
 P 1 
   1       0.1526861379      1.0000000000
 D 1 
   1       0.8000000000      1.0000000000
  end;

 # Basis set for element : O 
 NewGTO O 
 S 5 
   1    2266.1767785000     -0.0053893504
   2     340.8701019100     -0.0402347214
   3      77.3631351670     -0.1800818421
   4      21.4796449400     -0.4682885766
   5       6.6589433124     -0.4469261716
 S 1 
   1       0.8097597567      1.0000000000
 S 1 
   1       0.2553077223      1.0000000000
 P 3 
   1      17.7215043170      0.0626302488
   2       3.8635505440      0.3333113849
   3       1.0480920883      0.7414863830
 P 1 
   1       0.2764154441      1.0000000000
 D 1 
   1       1.2000000000      1.0000000000
  end;

---------------------------------
AUXILIARY/J BASIS SET INFORMATION
---------------------------------
There are 3 groups of distinct atoms

 Group   1 Type C   : 12s5p4d2f1g contracted to 6s4p3d1f1g pattern {711111/2111/211/2/1}
 Group   2 Type H   : 5s2p1d contracted to 3s1p1d pattern {311/2/1}
 Group   3 Type O   : 12s5p4d2f1g contracted to 6s4p3d1f1g pattern {711111/2111/211/2/1}

Atom   0C    basis set group =>   1
Atom   1C    basis set group =>   1
Atom   2C    basis set group =>   1
Atom   3H    basis set group =>   2
Atom   4H    basis set group =>   2
Atom   5C    basis set group =>   1
Atom   6C    basis set group =>   1
Atom   7C    basis set group =>   1
Atom   8H    basis set group =>   2
Atom   9H    basis set group =>   2
Atom  10H    basis set group =>   2
Atom  11H    basis set group =>   2
Atom  12O    basis set group =>   3
Atom  13H    basis set group =>   2
Atom  14C    basis set group =>   1
Atom  15C    basis set group =>   1
Atom  16H    basis set group =>   2
Atom  17H    basis set group =>   2
Atom  18C    basis set group =>   1
Atom  19H    basis set group =>   2
Atom  20C    basis set group =>   1
Atom  21H    basis set group =>   2
Atom  22C    basis set group =>   1
Atom  23C    basis set group =>   1
Atom  24H    basis set group =>   2
Atom  25H    basis set group =>   2
Atom  26C    basis set group =>   1
Atom  27H    basis set group =>   2
Atom  28H    basis set group =>   2
Atom  29C    basis set group =>   1
Atom  30H    basis set group =>   2
Atom  31H    basis set group =>   2
Atom  32C    basis set group =>   1
Atom  33H    basis set group =>   2
Atom  34C    basis set group =>   1
Atom  35H    basis set group =>   2
Atom  36C    basis set group =>   1
Atom  37H    basis set group =>   2
Atom  38H    basis set group =>   2
Atom  39C    basis set group =>   1
Atom  40H    basis set group =>   2
Atom  41H    basis set group =>   2
Atom  42H    basis set group =>   2
Atom  43C    basis set group =>   1
Atom  44C    basis set group =>   1
Atom  45H    basis set group =>   2
Atom  46H    basis set group =>   2
Atom  47H    basis set group =>   2
Atom  48H    basis set group =>   2
Atom  49C    basis set group =>   1
Atom  50C    basis set group =>   1
Atom  51C    basis set group =>   1
Atom  52H    basis set group =>   2
Atom  53H    basis set group =>   2
Atom  54C    basis set group =>   1
Atom  55C    basis set group =>   1
Atom  56C    basis set group =>   1
Atom  57H    basis set group =>   2
Atom  58H    basis set group =>   2
Atom  59C    basis set group =>   1
Atom  60C    basis set group =>   1
Atom  61H    basis set group =>   2
Atom  62H    basis set group =>   2
Atom  63H    basis set group =>   2
Atom  64H    basis set group =>   2
Atom  65H    basis set group =>   2
Atom  66H    basis set group =>   2
Atom  67H    basis set group =>   2
Atom  68H    basis set group =>   2
Atom  69H    basis set group =>   2
Atom  70H    basis set group =>   2
Atom  71H    basis set group =>   2
Atom  72H    basis set group =>   2

-------------------------------------
AUXILIARY/J BASIS SET IN INPUT FORMAT
-------------------------------------

 # Auxiliary/J basis set for element : H 
 NewAuxJGTO H 
 S 3 
   1      15.6752927000      0.1007184237
   2       3.6063578000      0.3404257499
   3       1.2080016000      0.6491996172
 S 1 
   1       0.4726794000      1.0000000000
 S 1 
   1       0.2018100000      1.0000000000
 P 2 
   1       2.0281365000      0.5596620919
   2       0.5358730000      0.5596620919
 D 1 
   1       2.2165124000      1.0000000000
  end;

 # Auxiliary/J basis set for element : C 
 NewAuxJGTO C 
 S 7 
   1    1861.0916331000      0.0134602335
   2     642.9939764000      0.0299160374
   3     235.1105725000      0.1008649584
   4      90.7028894000      0.2370970548
   5      36.7794552000      0.3924037254
   6      15.6046273000      0.3195862154
   7       6.8907294000      0.0530104441
 S 1 
   1       3.1478850000     -1.0000000000
 S 1 
   1       1.4777287000      1.0000000000
 S 1 
   1       0.7076466000      1.0000000000
 S 1 
   1       0.3430122000      1.0000000000
 S 1 
   1       0.1669453000      1.0000000000
 P 2 
   1      13.5472892000     -0.6769313712
   2       5.4669419000     -0.3779500978
 P 1 
   1       2.1751721000      1.0000000000
 P 1 
   1       0.8582194000      1.0000000000
 P 1 
   1       0.3376720000      1.0000000000
 D 2 
   1       5.9287253000     -0.3533329857
   2       1.9809209000     -0.7456525731
 D 1 
   1       0.8055417000     -1.0000000000
 D 1 
   1       0.3531244000     -1.0000000000
 F 2 
   1       1.6755626000      0.6311076882
   2       0.5997536000      0.4968166032
 G 1 
   1       1.0024600000     -1.0000000000
  end;

 # Auxiliary/J basis set for element : O 
 NewAuxJGTO O 
 S 7 
   1    2876.8216605000      0.0168151159
   2    1004.7443032000      0.0340137548
   3     369.7579954000      0.1194951309
   4     142.9442404000      0.2664627624
   5      57.8366425000      0.4202764046
   6      24.3864983000      0.2765077335
   7      10.6622662000      0.0057008815
 S 1 
   1       4.8070437000     -1.0000000000
 S 1 
   1       2.2210770000      1.0000000000
 S 1 
   1       1.0447795000      1.0000000000
 S 1 
   1       0.4968425000      1.0000000000
 S 1 
   1       0.2371384000      1.0000000000
 P 2 
   1      64.2613382000     -0.2731534179
   2      16.3006076000     -0.8168011598
 P 1 
   1       4.3550542000      1.0000000000
 P 1 
   1       1.2019554000      1.0000000000
 P 1 
   1       0.3354196000      1.0000000000
 D 2 
   1       9.2146611000     -0.4661230638
   2       2.8435251000     -0.6600908911
 D 1 
   1       0.9955759000     -1.0000000000
 D 1 
   1       0.3649441000     -1.0000000000
 F 2 
   1       2.6420115000      0.5931563945
   2       0.7345613000      0.5931563945
 G 1 
   1       1.3931000000     -1.0000000000
  end;


Checking for AutoStart:
The File: inpS.gbw exists
Trying to determine its content:
     ... Fine, the file contains calculation information
     ... Fine, the calculation information was read
     ... Fine, the file contains a basis set
     ... Fine, the basis set was read
     ... Fine, the file contains a geometry
     ... Fine, the geometry was read
     ... Fine, the file contains a set of orbitals
     ... Fine, the orbitals can be read
     => possible old guess file was deleted
     => GBW file was renamed to GES file
     => GES file is set as startup file
     => Guess is set to MORead
     ... now leaving AutoStart



           ************************************************************
           *        Program running with 4 parallel MPI-processes     *
           *              working on a common directory               *
           ************************************************************
------------------------------------------------------------------------------
                             ORCA STARTUP CALCULATIONS
                           -- RI-GTO INTEGRALS CHOSEN --
------------------------------------------------------------------------------
------------------------------------------------------------------------------
                   ___                                                        
                  /   \      - P O W E R E D   B Y -                         
                 /     \                                                     
                 |  |  |   _    _      __       _____    __    __             
                 |  |  |  | |  | |    /  \     |  _  \  |  |  /  |          
                  \  \/   | |  | |   /    \    | | | |  |  | /  /          
                 / \  \   | |__| |  /  /\  \   | |_| |  |  |/  /          
                |  |  |   |  __  | /  /__\  \  |    /   |      \           
                |  |  |   | |  | | |   __   |  |    \   |  |\   \          
                \     /   | |  | | |  |  |  |  | |\  \  |  | \   \       
                 \___/    |_|  |_| |__|  |__|  |_| \__\ |__|  \__/        
                                                                              
                      - O R C A' S   B I G   F R I E N D -                    
                                      &                                       
                       - I N T E G R A L  F E E D E R -                       
                                                                              
 v1 FN, 2020, v2 2021, v3 2022-2024                                           
------------------------------------------------------------------------------


----------------------
SHARK INTEGRAL PACKAGE
----------------------

Number of atoms                             ...     73
Number of basis functions                   ...    626
Number of shells                            ...    306
Maximum angular momentum                    ...      2
Integral batch strategy                     ... SHARK/LIBINT Hybrid
RI-J (if used) integral strategy            ... SPLIT-RIJ (Revised 2003 algorithm where possible)
Printlevel                                  ...      1
Contraction scheme used                     ... SEGMENTED contraction
Prescreening option                         ... SCHWARTZ
   Thresh                                   ... 3.000e-11
   Tcut                                     ... 1.000e-12
   Tpresel                                  ... 1.000e-12 
Coulomb Range Separation                    ... NOT USED
Exchange Range Separation                   ... Long Range
   Mu parameter                             ... 3.000e-01
   Scaling (regular/separated)              ... 1.670e-01 8.330e-01
Multipole approximations                    ... NOT USED
Finite Nucleus Model                        ... NOT USED
CABS basis                                  ... NOT available
Auxiliary Coulomb fitting basis             ... AVAILABLE
   # of basis functions in Aux-J            ...   1905
   # of shells in Aux-J                     ...    655
   Maximum angular momentum in Aux-J        ...      4
Auxiliary J/K fitting basis                 ... NOT available
Auxiliary Correlation fitting basis         ... NOT available
Auxiliary 'external' fitting basis          ... NOT available

Checking pre-screening integrals            ... done (  0.0 sec) Dimension = 306
Check shell pair data                       ... done (  0.0 sec)
Shell pair information
Shell pair cut-off parameter TPreSel        ...   1.0e-12
Total number of shell pairs                 ...     46971
Shell pairs after pre-screening             ...     27804
Total number of primitive shell pairs       ...    162105
Primitive shell pairs kept                  ...     61215
          la=0 lb=0:   9750 shell pairs
          la=1 lb=0:  10686 shell pairs
          la=1 lb=1:   2947 shell pairs
          la=2 lb=0:   2750 shell pairs
          la=2 lb=1:   1477 shell pairs
          la=2 lb=2:    194 shell pairs

Calculating one electron integrals          ... done (  0.1 sec)
Calculating RI/J V-Matrix + Cholesky decomp.... done (  0.2 sec)
Calculating Nuclear repulsion               ... done (  0.0 sec) ENN=   2788.212302160256 Eh

Diagonalization of the overlap matrix:
Smallest eigenvalue                        ... 4.308e-04
Time for diagonalization                   ...    0.047 sec
Threshold for overlap eigenvalues          ... 1.000e-07
Number of eigenvalues below threshold      ... 0
Time for construction of square roots      ...    0.024 sec
Total time needed                          ...    0.075 sec

-------------------
DFT GRID GENERATION
-------------------

General Integration Accuracy     IntAcc      ... 4.388
Radial Grid Type                 RadialGrid  ... OptM3 with GC (2021)
Angular Grid (max. ang.)         AngularGrid ... 4 (Lebedev-302)
Angular grid pruning method      GridPruning ... 4 (adaptive)
Weight generation scheme         WeightScheme... mBecke (2022)
Basis function cutoff            BFCut       ... 1.0000e-11
Integration weight cutoff        WCut        ... 1.0000e-14
Partially contracted basis set               ... off
Rotationally invariant grid construction     ... off
Angular grids for H and He will be reduced by one unit

Total number of grid points                  ...   309829
Total number of batches                      ...     4877
Average number of points per batch           ...       63
Average number of grid points per atom       ...     4244

--------------------
COSX GRID GENERATION
--------------------

GRIDX 1
-------
General Integration Accuracy     IntAcc      ... 3.816
Radial Grid Type                 RadialGrid  ... OptM3 with GC (2021)
Angular Grid (max. ang.)         AngularGrid ... 1 (Lebedev-50)
Angular grid pruning method      GridPruning ... 4 (adaptive)
Weight generation scheme         WeightScheme... mBecke (2022)
Basis function cutoff            BFCut       ... 1.0000e-11
Integration weight cutoff        WCut        ... 1.0000e-14
Partially contracted basis set               ... on
Rotationally invariant grid construction     ... off
Angular grids for H and He will be reduced by one unit

Total number of grid points                  ...    39379
Total number of batches                      ...      351
Average number of points per batch           ...      112
Average number of grid points per atom       ...      539
UseSFitting                                  ... on

GRIDX 2
-------
General Integration Accuracy     IntAcc      ... 4.020
Radial Grid Type                 RadialGrid  ... OptM3 with GC (2021)
Angular Grid (max. ang.)         AngularGrid ... 2 (Lebedev-110)
Angular grid pruning method      GridPruning ... 4 (adaptive)
Weight generation scheme         WeightScheme... mBecke (2022)
Basis function cutoff            BFCut       ... 1.0000e-11
Integration weight cutoff        WCut        ... 1.0000e-14
Partially contracted basis set               ... on
Rotationally invariant grid construction     ... off
Angular grids for H and He will be reduced by one unit

Total number of grid points                  ...    81357
Total number of batches                      ...      677
Average number of points per batch           ...      120
Average number of grid points per atom       ...     1114
UseSFitting                                  ... on

GRIDX 3
-------
General Integration Accuracy     IntAcc      ... 4.338
Radial Grid Type                 RadialGrid  ... OptM3 with GC (2021)
Angular Grid (max. ang.)         AngularGrid ... 3 (Lebedev-194)
Angular grid pruning method      GridPruning ... 4 (adaptive)
Weight generation scheme         WeightScheme... mBecke (2022)
Basis function cutoff            BFCut       ... 1.0000e-11
Integration weight cutoff        WCut        ... 1.0000e-14
Partially contracted basis set               ... on
Rotationally invariant grid construction     ... off
Angular grids for H and He will be reduced by one unit

Total number of grid points                  ...   176249
Total number of batches                      ...     1416
Average number of points per batch           ...      124
Average number of grid points per atom       ...     2414
UseSFitting                                  ... on
Initializing property integral containers    ... done (  0.0 sec)

SHARK setup successfully completed in   4.5 seconds

Maximum memory used throughout the entire STARTUP-calculation: 95.7 MB


           ************************************************************
           *        Program running with 4 parallel MPI-processes     *
           *              working on a common directory               *
           ************************************************************
-------------------------------------------------------------------------------
                                 ORCA GUESS
                   Start orbitals & Density for SCF / CASSCF
-------------------------------------------------------------------------------

------------
SCF SETTINGS
------------
Hamiltonian:
 Density Functional     Method          .... DFT(GTOs)
 Exchange Functional    Exchange        .... WB97X-V
 Correlation Functional Correlation     .... WB97X-V
 Gradients option       PostSCFGGA      .... off
 Hybrid DFT is turned on
   Fraction HF Exchange ScalHFX         ....  0.167000
   Scaling of DF-GGA-X  ScalDFX         ....  0.000000
   Scaling of DF-GGA-C  ScalDFC         ....  1.000000
   Scaling of DF-LDA-C  ScalLDAC        ....  1.000000
   Perturbative correction              ....  0.000000
 Long-range corrected/Screened/Range-Separated Hybrid DFT is turned on
   Amount of maximum screened exact exchange              ....  0.833000
   Range separation parameter mu (erf(mu*r12)/r12)        ....  0.300000
 RI-approximation to the Coulomb term is turned on
   Number of AuxJ basis functions       .... 1905
   RIJ-COSX (HFX calculated with COS-X)).... on


General Settings:
 Integral files         IntName         .... inpS
 Hartree-Fock type      HFTyp           .... RHF
 Total Charge           Charge          ....    0
 Multiplicity           Mult            ....    1
 Number of Electrons    NEL             ....  220
 Basis Dimension        Dim             ....  626
 Nuclear Repulsion      ENuc            ....   2788.2123021603 Eh

Convergence Acceleration:
 AO-DIIS                CNVDIIS         .... on
   Start iteration      DIISMaxIt       ....    12
   Startup error        DIISStart       ....  0.200000
   # of expansion vecs  DIISMaxEq       ....     5
   Bias factor          DIISBfac        ....   1.050
   Max. coefficient     DIISMaxC        ....  10.000
 MO-DIIS                CNVKDIIS        .... off
 Trust-Rad. Augm. Hess. CNVTRAH         .... auto
   Auto Start mean grad. ratio tolernc. ....  1.125000
   Auto Start start iteration           ....     1
   Auto Start num. interpolation iter.  ....    10
   Max. Number of Micro iterations      ....    24
   Max. Number of Macro iterations      .... Maxiter - #DIIS iter
   Number of Davidson start vectors     ....     2
   Converg. threshold    (grad. norm)   ....   1.000e-04
   Grad. Scal. Fac. for Micro threshold ....   0.100
   Minimum threshold for Micro iter.    ....   1.000e-02
   NR start threshold (gradient norm)   ....   1.000e-04
   Initial trust radius                 ....   0.400
   Minimum AH scaling param. (alpha)    ....   1.000
   Maximum AH scaling param. (alpha)    .... 1000.000
   Quad. conv. algorithm                .... NR
   White noise on init. David. guess    .... on
   Maximum white noise                  ....   0.010
   Pseudo random numbers                .... off
   Inactive MOs                         .... canonical
   Orbital update algorithm             .... Taylor
   Preconditioner                       .... Diag
   Full preconditioner red. dimension   ....   250
 SOSCF                  CNVSOSCF        .... off
 Level Shifting         CNVShift        .... on
   Level shift para.    LevelShift      ....    0.2500
   Turn off err/grad.   ShiftErr        ....    0.0010
 Zerner damping         CNVZerner       .... off
 Static damping         CNVDamp         .... on
   Fraction old density DampFac         ....    0.7000
   Max. Damping (<1)    DampMax         ....    0.9800
   Min. Damping (>=0)   DampMin         ....    0.0000
   Turn off err/grad.   DampErr         ....    0.1000

SCF Procedure:
 Maximum # iterations   MaxIter         ....   125
 SCF integral mode      SCFMode         .... Direct
   Integral package                     .... SHARK and LIBINT hybrid scheme
 Reset frequency        DirectResetFreq ....    20
 Integral Threshold     Thresh          ....  3.000e-11 Eh
 Primitive CutOff       TCut            ....  1.000e-12 Eh

Convergence Tolerance:
 Convergence Check Mode ConvCheckMode   .... Total+1el-Energy
 Convergence forced     ConvForced      .... 0
 Energy Change          TolE            ....  1.000e-07 Eh
 1-El. energy change                    ....  1.000e-04 Eh
 DIIS Error             TolErr          ....  1.000e-07

---------------------
INITIAL GUESS: MOREAD
---------------------
Guess MOs are being read from file: inpS.ges
Input Geometry matches current geometry (good)
Input basis set matches current basis set (good)
Occupation numbers will be reassigned to an Aufbau configuration
MOs were renormalized
MOs were reorthogonalized (Cholesky)
                      ------------------
                      INITIAL GUESS DONE (   0.2 sec)
                      ------------------
             **** ENERGY FILE WAS UPDATED (inpS.en.tmp) ****
Finished Guess after   0.3 sec
Maximum memory used throughout the entire GUESS-calculation: 52.7 MB


           ************************************************************
           *        Program running with 4 parallel MPI-processes     *
           *              working on a common directory               *
           ************************************************************

-------------------------------------------------------------------------------------------
                                      ORCA LEAN-SCF
                              memory conserving SCF solver
-------------------------------------------------------------------------------------------

--------------------
CPCM SOLVATION MODEL
--------------------
CPCM parameters:
  Epsilon                                         ...       4.8030
  Refrac                                          ...       1.4459
  Rsolv                                           ...       1.3000
  Surface type                                    ... GAUSSIAN VDW
  Discretization scheme                           ... Constant charge density
    Threshold for H atoms                         ...       5.0000 (charges/Ang^2)
    Threshold for non-H atoms                     ...       5.0000 (charges/Ang^2)
  Epsilon function type                           ...         CPCM
Solvent:                                          ... CHLOROFORM
Radii:
  Scheme                                          ... Element-dependent radii
  Radius for C  used is    3.8550 Bohr (=   2.0400 Ang.)
  Radius for H  used is    2.4944 Bohr (=   1.3200 Ang.)
  Radius for O  used is    3.4469 Bohr (=   1.8240 Ang.)
Calculating surface                               ...        done! (  0.0s)
Cavity surface points                             ...         5418
Cavity Volume                                     ...    3617.9771
Cavity Surface-area                               ...    1801.2164
Calculating surface distance matrix               ...        done! (  0.2s)
Performing Cholesky decomposition & store         ...        done! (  1.0s)
Overall time for CPCM initialization              ...                 1.2s

----------------------------------------D-I-I-S--------------------------------------------
Iteration    Energy (Eh)           Delta-E    RMSDP     MaxDP     DIISErr   Damp  Time(sec)
-------------------------------------------------------------------------------------------
               ***  Starting incremental Fock matrix formation  ***
    1    -1168.3635664751259355     0.00e+00  3.17e-08  1.81e-06  6.34e-06  0.700  24.9

  HOMO= 109 E= -7.881 eV LUMO=  8.096 eV gap=  15.977 eV
    2    -1168.3635664707007891     4.43e-09  2.73e-08  1.42e-06  3.19e-06  0.700   4.8
                 **** Energy Check signals convergence ****

  HOMO= 109 E= -7.881 eV LUMO=  8.096 eV gap=  15.977 eV

               *****************************************************
               *                     SUCCESS                       *
               *           SCF CONVERGED AFTER   2 CYCLES          *
               *****************************************************

Recomputing exchange energy using gridx3       ... done (   41.316 sec)
Old exchange energy                            :    -56.782742486 Eh
New exchange energy                            :    -56.782692215 Eh
Exchange energy change after final integration :      0.000050272 Eh
Total energy after final integration           :  -1168.363516199 Eh
             **** ENERGY FILE WAS UPDATED (inpS.en.tmp) ****

----------------
TOTAL SCF ENERGY
----------------

Total Energy       :      -1168.36351619919992 Eh          -31792.78759 eV

Components:
Nuclear Repulsion  :       2788.21230216025606 Eh           75871.11395 eV
Electronic Energy  :      -3956.56532295233819 Eh         -107663.61595 eV
One Electron Energy:      -7121.75710446720677 Eh         -193792.86305 eV
Two Electron Energy:       3165.19178151486858 Eh           86129.24710 eV
CPCM Dielectric    :         -0.01054567861886 Eh              -0.28696 eV

Virial components:
Potential Energy   :      -2321.67558476138720 Eh          -63176.00447 eV
Kinetic Energy     :       1153.31206856218728 Eh           31383.21688 eV
Virial Ratio       :          2.01305062874767

DFT components:
N(Alpha)           :      110.000184586749 electrons
N(Beta)            :      110.000184586749 electrons
N(Total)           :      220.000369173497 electrons
E(X)               :     -111.769813833169 Eh       
E(C)               :       -8.950953871346 Eh       
E(XC)              :     -120.720767704515 Eh       

CPCM Solvation Model Properties:
Surface-charge          :         -0.04132783356599
Corrected charge        :          0.00000000000000
Outlying charge corr.   :          0.00006010196020 Eh               0.00164 eV
Free-energy (cav+disp)  :  This term is not implemented in the current solvation scheme

---------------
SCF CONVERGENCE
---------------

  Last Energy change         ...   -4.4251e-09  Tolerance :   1.0000e-07
  Last MAX-Density change    ...    1.4243e-06  Tolerance :   1.0000e-05
  Last RMS-Density change    ...    2.7283e-08  Tolerance :   1.0000e-06
  Last DIIS Error            ...    3.1905e-06  Tolerance :   1.0000e-07


----------------
ORBITAL ENERGIES
----------------

  NO   OCC          E(Eh)            E(eV) 
   0   2.0000     -19.213674      -522.8307 
   1   2.0000     -10.329746      -281.0867 
   2   2.0000     -10.293406      -280.0978 
   3   2.0000     -10.290186      -280.0102 
   4   2.0000     -10.285909      -279.8938 
   5   2.0000     -10.285790      -279.8906 
   6   2.0000     -10.285085      -279.8714 
   7   2.0000     -10.282451      -279.7997 
   8   2.0000     -10.281949      -279.7861 
   9   2.0000     -10.281586      -279.7762 
  10   2.0000     -10.281082      -279.7625 
  11   2.0000     -10.280789      -279.7545 
  12   2.0000     -10.279413      -279.7171 
  13   2.0000     -10.278456      -279.6910 
  14   2.0000     -10.276823      -279.6466 
  15   2.0000     -10.276710      -279.6435 
  16   2.0000     -10.276680      -279.6427 
  17   2.0000     -10.276522      -279.6384 
  18   2.0000     -10.273130      -279.5461 
  19   2.0000     -10.272291      -279.5233 
  20   2.0000     -10.271765      -279.5089 
  21   2.0000     -10.271694      -279.5070 
  22   2.0000     -10.270134      -279.4645 
  23   2.0000     -10.269533      -279.4482 
  24   2.0000     -10.269312      -279.4422 
  25   2.0000     -10.268877      -279.4303 
  26   2.0000     -10.268500      -279.4201 
  27   2.0000     -10.266779      -279.3733 
  28   2.0000     -10.266364      -279.3620 
  29   2.0000      -1.131635       -30.7933 
  30   2.0000      -0.997852       -27.1529 
  31   2.0000      -0.979093       -26.6425 
  32   2.0000      -0.957270       -26.0486 
  33   2.0000      -0.942383       -25.6435 
  34   2.0000      -0.917278       -24.9604 
  35   2.0000      -0.910360       -24.7722 
  36   2.0000      -0.889406       -24.2020 
  37   2.0000      -0.887117       -24.1397 
  38   2.0000      -0.872837       -23.7511 
  39   2.0000      -0.852694       -23.2030 
  40   2.0000      -0.833326       -22.6760 
  41   2.0000      -0.828077       -22.5331 
  42   2.0000      -0.808369       -21.9969 
  43   2.0000      -0.800858       -21.7924 
  44   2.0000      -0.794595       -21.6220 
  45   2.0000      -0.786817       -21.4104 
  46   2.0000      -0.759350       -20.6630 
  47   2.0000      -0.756774       -20.5929 
  48   2.0000      -0.724692       -19.7199 
  49   2.0000      -0.712816       -19.3967 
  50   2.0000      -0.712171       -19.3792 
  51   2.0000      -0.698985       -19.0204 
  52   2.0000      -0.689020       -18.7492 
  53   2.0000      -0.676799       -18.4166 
  54   2.0000      -0.651581       -17.7304 
  55   2.0000      -0.635715       -17.2987 
  56   2.0000      -0.630168       -17.1477 
  57   2.0000      -0.620444       -16.8831 
  58   2.0000      -0.604945       -16.4614 
  59   2.0000      -0.596908       -16.2427 
  60   2.0000      -0.588130       -16.0038 
  61   2.0000      -0.579652       -15.7731 
  62   2.0000      -0.577646       -15.7186 
  63   2.0000      -0.567976       -15.4554 
  64   2.0000      -0.563580       -15.3358 
  65   2.0000      -0.559298       -15.2193 
  66   2.0000      -0.556652       -15.1473 
  67   2.0000      -0.547542       -14.8994 
  68   2.0000      -0.545713       -14.8496 
  69   2.0000      -0.541909       -14.7461 
  70   2.0000      -0.535800       -14.5799 
  71   2.0000      -0.531340       -14.4585 
  72   2.0000      -0.526364       -14.3231 
  73   2.0000      -0.520738       -14.1700 
  74   2.0000      -0.518074       -14.0975 
  75   2.0000      -0.511755       -13.9256 
  76   2.0000      -0.503200       -13.6928 
  77   2.0000      -0.501890       -13.6571 
  78   2.0000      -0.496601       -13.5132 
  79   2.0000      -0.494657       -13.4603 
  80   2.0000      -0.488512       -13.2931 
  81   2.0000      -0.486719       -13.2443 
  82   2.0000      -0.484847       -13.1934 
  83   2.0000      -0.477651       -12.9976 
  84   2.0000      -0.475789       -12.9469 
  85   2.0000      -0.469418       -12.7735 
  86   2.0000      -0.465686       -12.6720 
  87   2.0000      -0.462008       -12.5719 
  88   2.0000      -0.455297       -12.3893 
  89   2.0000      -0.451803       -12.2942 
  90   2.0000      -0.450094       -12.2477 
  91   2.0000      -0.444971       -12.1083 
  92   2.0000      -0.438660       -11.9366 
  93   2.0000      -0.429718       -11.6932 
  94   2.0000      -0.426122       -11.5954 
  95   2.0000      -0.425025       -11.5655 
  96   2.0000      -0.421644       -11.4735 
  97   2.0000      -0.419290       -11.4095 
  98   2.0000      -0.414894       -11.2899 
  99   2.0000      -0.413827       -11.2608 
 100   2.0000      -0.411741       -11.2040 
 101   2.0000      -0.409502       -11.1431 
 102   2.0000      -0.402082       -10.9412 
 103   2.0000      -0.401206       -10.9174 
 104   2.0000      -0.394195       -10.7266 
 105   2.0000      -0.380604       -10.3568 
 106   2.0000      -0.371909       -10.1202 
 107   2.0000      -0.356997        -9.7144 
 108   2.0000      -0.336490        -9.1563 
 109   2.0000      -0.289613        -7.8808 
 110   0.0000       0.047513         1.2929 
 111   0.0000       0.100308         2.7295 
 112   0.0000       0.107651         2.9293 
 113   0.0000       0.135833         3.6962 
 114   0.0000       0.142358         3.8738 
 115   0.0000       0.145610         3.9622 
 116   0.0000       0.153216         4.1692 
 117   0.0000       0.156069         4.2469 
 118   0.0000       0.158644         4.3169 
 119   0.0000       0.164224         4.4688 
 120   0.0000       0.169208         4.6044 
*Only the first 10 virtual orbitals were printed.

                    ********************************
                    * MULLIKEN POPULATION ANALYSIS *
                    ********************************

-----------------------
MULLIKEN ATOMIC CHARGES
-----------------------
   0 C :   -0.127374
   1 C :    0.144255
   2 C :    0.081596
   3 H :    0.016686
   4 H :    0.013227
   5 C :   -0.184660
   6 C :    0.111108
   7 C :    0.006728
   8 H :    0.029806
   9 H :    0.012234
  10 H :    0.023541
  11 H :    0.011351
  12 O :   -0.355180
  13 H :    0.014173
  14 C :   -0.024442
  15 C :   -0.044310
  16 H :    0.036313
  17 H :    0.029228
  18 C :   -0.061010
  19 H :   -0.006969
  20 C :   -0.115714
  21 H :    0.000830
  22 C :    0.114985
  23 C :   -0.000668
  24 H :    0.012708
  25 H :    0.017557
  26 C :    0.105944
  27 H :    0.012582
  28 H :    0.014918
  29 C :   -0.414174
  30 H :    0.008663
  31 H :   -0.002908
  32 C :   -0.043627
  33 H :    0.011000
  34 C :    0.127357
  35 H :    0.181692
  36 C :    0.046326
  37 H :    0.006836
  38 H :    0.014366
  39 C :   -0.026727
  40 H :    0.015932
  41 H :    0.010736
  42 H :   -0.009433
  43 C :   -0.037450
  44 C :    0.092724
  45 H :    0.023105
  46 H :    0.018650
  47 H :    0.019891
  48 H :   -0.000292
  49 C :    0.053698
  50 C :   -0.048783
  51 C :   -0.071457
  52 H :    0.005917
  53 H :    0.005719
  54 C :   -0.069990
  55 C :    0.050097
  56 C :   -0.165377
  57 H :    0.016478
  58 H :    0.011793
  59 C :    0.018155
  60 C :    0.025645
  61 H :    0.021244
  62 H :    0.024964
  63 H :    0.016827
  64 H :    0.017195
  65 H :    0.018921
  66 H :    0.020538
  67 H :    0.020465
  68 H :    0.017090
  69 H :    0.019626
  70 H :    0.016030
  71 H :    0.030599
  72 H :    0.012498
Sum of atomic charges:    0.0000000

--------------------------------
MULLIKEN REDUCED ORBITAL CHARGES
--------------------------------
  0 C s       :     3.078028  s :     3.078028
      pz      :     1.004158  p :     3.006508
      px      :     0.998828
      py      :     1.003521
      dz2     :     0.003230  d :     0.042839
      dxz     :     0.007008
      dyz     :     0.006090
      dx2y2   :     0.014704
      dxy     :     0.011807

  1 C s       :     2.932296  s :     2.932296
      pz      :     0.980062  p :     2.889008
      px      :     0.941347
      py      :     0.967599
      dz2     :     0.006982  d :     0.034441
      dxz     :     0.009236
      dyz     :     0.004793
      dx2y2   :     0.009046
      dxy     :     0.004384

  2 C s       :     3.075236  s :     3.075236
      pz      :     1.040037  p :     2.772007
      px      :     0.758220
      py      :     0.973750
      dz2     :     0.011645  d :     0.071161
      dxz     :     0.016138
      dyz     :     0.009313
      dx2y2   :     0.019366
      dxy     :     0.014699

  3 H s       :     0.960123  s :     0.960123
      pz      :     0.010703  p :     0.023192
      px      :     0.007752
      py      :     0.004737

  4 H s       :     0.963982  s :     0.963982
      pz      :     0.004281  p :     0.022790
      px      :     0.003807
      py      :     0.014702

  5 C s       :     3.111899  s :     3.111899
      pz      :     1.005099  p :     3.027970
      px      :     0.974498
      py      :     1.048373
      dz2     :     0.011265  d :     0.044791
      dxz     :     0.006713
      dyz     :     0.011973
      dx2y2   :     0.008286
      dxy     :     0.006555

  6 C s       :     2.949007  s :     2.949007
      pz      :     0.974016  p :     2.904411
      px      :     0.966759
      py      :     0.963636
      dz2     :     0.006884  d :     0.035474
      dxz     :     0.009462
      dyz     :     0.005078
      dx2y2   :     0.009242
      dxy     :     0.004808

  7 C s       :     3.013004  s :     3.013004
      pz      :     0.990429  p :     2.945248
      px      :     0.988512
      py      :     0.966308
      dz2     :     0.005280  d :     0.035020
      dxz     :     0.008268
      dyz     :     0.006699
      dx2y2   :     0.009684
      dxy     :     0.005090

  8 H s       :     0.946905  s :     0.946905
      pz      :     0.011318  p :     0.023289
      px      :     0.007296
      py      :     0.004675

  9 H s       :     0.964946  s :     0.964946
      pz      :     0.004509  p :     0.022821
      px      :     0.003739
      py      :     0.014573

 10 H s       :     0.953766  s :     0.953766
      pz      :     0.011319  p :     0.022692
      px      :     0.005062
      py      :     0.006311

 11 H s       :     0.965958  s :     0.965958
      pz      :     0.010822  p :     0.022691
      px      :     0.007314
      py      :     0.004555

 12 O s       :     3.726346  s :     3.726346
      pz      :     1.539954  p :     4.616626
      px      :     1.244122
      py      :     1.832550
      dz2     :     0.002507  d :     0.012207
      dxz     :     0.004204
      dyz     :     0.001631
      dx2y2   :     0.001805
      dxy     :     0.002059

 13 H s       :     0.965606  s :     0.965606
      pz      :     0.010975  p :     0.020221
      px      :     0.005081
      py      :     0.004166

 14 C s       :     3.197320  s :     3.197320
      pz      :     0.988423  p :     2.790884
      px      :     0.888228
      py      :     0.914233
      dz2     :     0.002785  d :     0.036237
      dxz     :     0.007566
      dyz     :     0.003316
      dx2y2   :     0.012170
      dxy     :     0.010400

 15 C s       :     3.122667  s :     3.122667
      pz      :     0.976598  p :     2.895393
      px      :     1.001594
      py      :     0.917201
      dz2     :     0.007216  d :     0.026249
      dxz     :     0.004222
      dyz     :     0.007118
      dx2y2   :     0.004806
      dxy     :     0.002887

 16 H s       :     0.939139  s :     0.939139
      pz      :     0.010888  p :     0.024548
      px      :     0.006083
      py      :     0.007577

 17 H s       :     0.946146  s :     0.946146
      pz      :     0.004048  p :     0.024626
      px      :     0.004681
      py      :     0.015897

 18 C s       :     3.200921  s :     3.200921
      pz      :     1.029001  p :     2.824780
      px      :     0.877843
      py      :     0.917936
      dz2     :     0.002876  d :     0.035309
      dxz     :     0.006991
      dyz     :     0.003132
      dx2y2   :     0.012377
      dxy     :     0.009933

 19 H s       :     0.982659  s :     0.982659
      pz      :     0.004664  p :     0.024311
      px      :     0.004375
      py      :     0.015272

 20 C s       :     3.099513  s :     3.099513
      pz      :     0.956067  p :     2.972194
      px      :     0.992011
      py      :     1.024116
      dz2     :     0.003557  d :     0.044007
      dxz     :     0.007165
      dyz     :     0.006920
      dx2y2   :     0.014653
      dxy     :     0.011713

 21 H s       :     0.974633  s :     0.974633
      pz      :     0.004624  p :     0.024537
      px      :     0.004299
      py      :     0.015614

 22 C s       :     2.924316  s :     2.924316
      pz      :     1.001898  p :     2.925142
      px      :     0.975942
      py      :     0.947302
      dz2     :     0.009454  d :     0.035556
      dxz     :     0.004187
      dyz     :     0.006022
      dx2y2   :     0.009886
      dxy     :     0.006007

 23 C s       :     3.001121  s :     3.001121
      pz      :     1.009723  p :     2.963124
      px      :     0.967636
      py      :     0.985765
      dz2     :     0.009672  d :     0.036423
      dxz     :     0.007767
      dyz     :     0.003158
      dx2y2   :     0.010228
      dxy     :     0.005598

 24 H s       :     0.964058  s :     0.964058
      pz      :     0.004742  p :     0.023234
      px      :     0.013861
      py      :     0.004631

 25 H s       :     0.959133  s :     0.959133
      pz      :     0.013477  p :     0.023310
      px      :     0.004945
      py      :     0.004888

 26 C s       :     2.970596  s :     2.970596
      pz      :     0.968145  p :     2.888120
      px      :     0.974544
      py      :     0.945431
      dz2     :     0.006792  d :     0.035340
      dxz     :     0.006713
      dyz     :     0.005799
      dx2y2   :     0.008709
      dxy     :     0.007327

 27 H s       :     0.964539  s :     0.964539
      pz      :     0.013484  p :     0.022879
      px      :     0.004581
      py      :     0.004814

 28 H s       :     0.962440  s :     0.962440
      pz      :     0.004639  p :     0.022642
      px      :     0.003813
      py      :     0.014189

 29 C s       :     3.256969  s :     3.256969
      pz      :     1.044210  p :     3.106202
      px      :     1.004471
      py      :     1.057521
      dz2     :     0.011700  d :     0.051002
      dxz     :     0.010294
      dyz     :     0.009473
      dx2y2   :     0.010943
      dxy     :     0.008591

 30 H s       :     0.968302  s :     0.968302
      pz      :     0.009307  p :     0.023035
      px      :     0.007420
      py      :     0.006308

 31 H s       :     0.980378  s :     0.980378
      pz      :     0.012954  p :     0.022530
      px      :     0.005042
      py      :     0.004535

 32 C s       :     3.033094  s :     3.033094
      pz      :     0.986119  p :     2.966691
      px      :     0.949536
      py      :     1.031036
      dz2     :     0.008480  d :     0.043841
      dxz     :     0.007464
      dyz     :     0.007939
      dx2y2   :     0.011114
      dxy     :     0.008844

 33 H s       :     0.967720  s :     0.967720
      pz      :     0.012166  p :     0.021281
      px      :     0.004335
      py      :     0.004780

 34 C s       :     2.890687  s :     2.890687
      pz      :     0.986537  p :     2.947129
      px      :     0.976627
      py      :     0.983965
      dz2     :     0.005468  d :     0.034827
      dxz     :     0.005886
      dyz     :     0.008202
      dx2y2   :     0.008844
      dxy     :     0.006428

 35 H s       :     0.750182  s :     0.750182
[...]
 Total          138.241          174.283          189.377  iso=     167.300

 Orientation: 
  X           0.2860324   -0.4362539    0.8531518
  Y          -0.1598122   -0.8995993   -0.4064249
  Z           0.9447992   -0.0200934   -0.3270332

 --------------
 Nucleus  39C :
 --------------

Diamagnetic contribution to the shielding tensor (ppm) : 
           264.577          4.233        -7.406
             3.933        260.880         8.164
            -7.602          5.809       260.610

Paramagnetic contribution to the shielding tensor (ppm): 
           -99.192          0.148         8.689
             4.455       -125.685        -2.963
            13.551         -3.109      -130.856

Total shielding tensor (ppm): 
           165.385          4.381         1.283
             8.388        135.196         5.201
             5.949          2.700       129.753


 Diagonalized sT*s matrix:
 
 sDSO           254.969          266.411          264.687  iso=     262.022
 sPSO          -127.292         -130.934          -97.506  iso=    -118.578
        ---------------  ---------------  ---------------
 Total          127.676          135.476          167.181  iso=     143.445

 Orientation: 
  X          -0.0033227   -0.2287754   -0.9734736
  Y          -0.4654355    0.8619610   -0.2009803
  Z           0.8850756    0.4524214   -0.1093442

 --------------
 Nucleus  43C :
 --------------

Diamagnetic contribution to the shielding tensor (ppm) : 
           258.360         -0.539        -6.448
            -4.559        245.566         9.951
            -9.638         12.587       245.090

Paramagnetic contribution to the shielding tensor (ppm): 
           -94.723         -2.065         5.583
             8.145        -94.818        -7.167
            10.582        -10.204       -92.952

Total shielding tensor (ppm): 
           163.637         -2.604        -0.865
             3.586        150.749         2.785
             0.944          2.383       152.139


 Diagonalized sT*s matrix:
 
 sDSO           234.407          256.573          258.038  iso=     249.672
 sPSO           -85.647         -102.464          -94.382  iso=     -94.164
        ---------------  ---------------  ---------------
 Total          148.759          154.109          163.656  iso=     155.508

 Orientation: 
  X          -0.0183029   -0.0265608   -0.9994796
  Y           0.7931636    0.6082350   -0.0306884
  Z          -0.6087336    0.7933125   -0.0099346

 --------------
 Nucleus  44C :
 --------------

Diamagnetic contribution to the shielding tensor (ppm) : 
           251.480          0.495         1.912
            -1.788        256.229        -1.913
             0.492          1.930       271.172

Paramagnetic contribution to the shielding tensor (ppm): 
           -72.302         -4.630        -1.966
            -0.474        -76.576        -1.191
            -0.545         -5.163       -78.448

Total shielding tensor (ppm): 
           179.178         -4.135        -0.054
            -2.262        179.653        -3.103
            -0.053         -3.234       192.724


 Diagonalized sT*s matrix:
 
 sDSO           253.799          254.651          270.431  iso=     259.627
 sPSO           -77.891          -72.488          -76.947  iso=     -75.775
        ---------------  ---------------  ---------------
 Total          175.908          182.163          193.484  iso=     183.852

 Orientation: 
  X           0.6957608   -0.7166655    0.0480356
  Y           0.7053598    0.6690979   -0.2340418
  Z           0.1355892    0.1967195    0.9710391

 --------------
 Nucleus  49C :
 --------------

Diamagnetic contribution to the shielding tensor (ppm) : 
           242.717         -6.485        -2.775
           -19.363        255.802         5.294
            -8.821          6.518       243.111

Paramagnetic contribution to the shielding tensor (ppm): 
           -70.026          1.822        -3.340
            18.391        -68.226         2.893
             4.138         -0.759       -75.407

Total shielding tensor (ppm): 
           172.690         -4.663        -6.115
            -0.971        187.576         8.188
            -4.683          5.758       167.704


 Diagonalized sT*s matrix:
 
 sDSO           239.316          238.600          263.714  iso=     247.210
 sPSO           -75.957          -64.834          -72.869  iso=     -71.220
        ---------------  ---------------  ---------------
 Total          163.359          173.766          190.845  iso=     175.990

 Orientation: 
  X           0.4449702   -0.8642593    0.2346429
  Y          -0.2051596   -0.3534197   -0.9126906
  Z           0.8717287    0.3579809   -0.3345724

 --------------
 Nucleus  50C :
 --------------

Diamagnetic contribution to the shielding tensor (ppm) : 
           266.129         14.122         7.347
             9.794        259.923        -0.501
            15.919        -15.099       252.082

Paramagnetic contribution to the shielding tensor (ppm): 
          -196.807        -31.968       -95.066
           -41.309       -162.096        39.077
           -96.239         60.898      -238.671

Total shielding tensor (ppm): 
            69.323        -17.846       -87.719
           -31.514         97.827        38.576
           -80.319         45.799        13.411


 Diagonalized sT*s matrix:
 
 sDSO           271.408          267.374          239.352  iso=     259.378
 sPSO          -307.205         -212.977          -77.390  iso=    -199.191
        ---------------  ---------------  ---------------
 Total          -35.798           54.397          161.962  iso=      60.187

 Orientation: 
  X          -0.7009217    0.3223618   -0.6362324
  Y          -0.1488164    0.8063014    0.5724786
  Z          -0.6975403   -0.4959445    0.5171815

 --------------
 Nucleus  51C :
 --------------

Diamagnetic contribution to the shielding tensor (ppm) : 
           262.543         14.529         6.916
            13.897        263.156        -7.252
            -4.342         -3.176       269.227

Paramagnetic contribution to the shielding tensor (ppm): 
          -189.215        -37.868       -86.595
           -37.887       -155.575        41.440
           -74.912         37.318      -244.092

Total shielding tensor (ppm): 
            73.329        -23.339       -79.678
           -23.990        107.582        34.189
           -79.254         34.142        25.135


 Diagonalized sT*s matrix:
 
 sDSO           267.392          277.500          250.034  iso=     264.976
 sPSO          -302.529         -197.817          -88.535  iso=    -196.294
        ---------------  ---------------  ---------------
 Total          -35.136           79.683          161.499  iso=      68.682

 Orientation: 
  X          -0.5776155    0.5307467   -0.6202163
  Y           0.0948872    0.7982850    0.5947584
  Z          -0.8107754   -0.2846911    0.5114629

 --------------
 Nucleus  54C :
 --------------

Diamagnetic contribution to the shielding tensor (ppm) : 
           248.191         -0.289         6.386
             4.872        252.766        -5.925
            14.955         -9.509       245.531

Paramagnetic contribution to the shielding tensor (ppm): 
           -87.247         -4.875        -7.490
           -14.096        -88.606        10.172
           -16.774         15.773       -91.986

Total shielding tensor (ppm): 
           160.944         -5.164        -1.104
            -9.224        164.159         4.246
            -1.819          6.264       153.545


 Diagonalized sT*s matrix:
 
 sDSO           249.924          254.469          242.095  iso=     248.829
 sPSO           -98.838          -98.264          -70.738  iso=     -89.280
        ---------------  ---------------  ---------------
 Total          151.086          156.205          171.357  iso=     159.549

 Orientation: 
  X          -0.2071896    0.7898071   -0.5773017
  Y          -0.4599292    0.4421877    0.7700228
  Z           0.8634452    0.4250586    0.2716386

 --------------
 Nucleus  55C :
 --------------

Diamagnetic contribution to the shielding tensor (ppm) : 
           248.514          0.413         6.708
            -3.710        228.643       -12.932
            21.064        -11.591       243.439

Paramagnetic contribution to the shielding tensor (ppm): 
           -70.310         -2.757         5.386
             0.955        -46.544        11.221
            -7.671          6.173       -64.496

Total shielding tensor (ppm): 
           178.204         -2.344        12.094
            -2.755        182.098        -1.712
            13.394         -5.418       178.943


 Diagonalized sT*s matrix:
 
 sDSO           231.553          226.702          262.341  iso=     240.198
 sPSO           -65.756          -46.294          -69.300  iso=     -60.450
        ---------------  ---------------  ---------------
 Total          165.797          180.407          193.040  iso=     179.748

 Orientation: 
  X          -0.7105860   -0.2865760    0.6426054
  Y           0.0377350   -0.9275045   -0.3719025
  Z           0.7025977   -0.2400200    0.6698857

 --------------
 Nucleus  56C :
 --------------

Diamagnetic contribution to the shielding tensor (ppm) : 
           241.446         -4.570        -3.249
             2.819        253.102        -2.702
             1.270         -4.954       250.084

Paramagnetic contribution to the shielding tensor (ppm): 
           -82.299          1.770         8.825
            -0.943        -76.373         0.548
             2.169          7.265       -91.010

Total shielding tensor (ppm): 
           159.147         -2.800         5.576
             1.876        176.729        -2.153
             3.440          2.311       159.075


 Diagonalized sT*s matrix:
 
 sDSO           246.788          244.638          253.207  iso=     248.211
 sPSO           -92.189          -81.025          -76.468  iso=     -83.227
        ---------------  ---------------  ---------------
 Total          154.599          163.613          176.739  iso=     164.984

 Orientation: 
  X          -0.7069340   -0.7069873    0.0203289
  Y          -0.0074788   -0.0212687   -0.9997458
  Z           0.7072400   -0.7069063    0.0097481

 --------------
 Nucleus  59C :
 --------------

Diamagnetic contribution to the shielding tensor (ppm) : 
           246.213         -5.710        -7.122
            10.362        257.207         4.028
             6.455          2.092       259.001

Paramagnetic contribution to the shielding tensor (ppm): 
           -62.460          7.225        -4.876
           -10.389        -82.791        -2.080
           -14.216         -2.092       -72.968

Total shielding tensor (ppm): 
           183.753          1.515       -11.998
            -0.026        174.417         1.948
            -7.761          0.000       186.033


 Diagonalized sT*s matrix:
 
 sDSO           251.337          257.319          253.766  iso=     254.141
 sPSO           -77.889          -81.405          -58.926  iso=     -72.740
        ---------------  ---------------  ---------------
 Total          173.449          175.914          194.840  iso=     181.401

 Orientation: 
  X          -0.4643943   -0.5899790   -0.6605019
  Y           0.7813513   -0.6240395    0.0080471
  Z          -0.4169269   -0.5123470    0.7507812

 --------------
 Nucleus  60C :
 --------------

Diamagnetic contribution to the shielding tensor (ppm) : 
           239.017         -0.476         2.870
            12.384        248.268        -8.462
            -5.798         -8.583       254.243

Paramagnetic contribution to the shielding tensor (ppm): 
           -74.994         -7.853        -5.402
           -15.635        -76.722        -5.028
            -1.733         -3.378       -64.122

Total shielding tensor (ppm): 
           164.023         -8.329        -2.533
            -3.251        171.546       -13.489
            -7.532        -11.962       190.121


 Diagonalized sT*s matrix:
 
 sDSO           244.942          236.330          260.257  iso=     247.176
 sPSO           -87.897          -64.382          -63.559  iso=     -71.946
        ---------------  ---------------  ---------------
 Total          157.045          171.948          196.698  iso=     175.230

 Orientation: 
  X           0.7345434    0.6750050   -0.0693850
  Y           0.5856202   -0.6822644   -0.4376805
  Z           0.3427754   -0.2808620    0.8964494



--------------------------------
CHEMICAL SHIELDING SUMMARY (ppm)
--------------------------------


  Nucleus  Element    Isotropic     Anisotropy
  -------  -------  ------------   ------------
      0       C           59.656        148.092 
      1       C          151.172         30.038 
      2       C          128.864         55.189 
      5       C           51.550        179.255 
      6       C          165.017         22.977 
      7       C          161.664         22.626 
     14       C           74.717        128.429 
     15       C           83.035        121.274 
     18       C           79.554        134.236 
     20       C           52.427        174.898 
     22       C          169.292          8.650 
     23       C          174.494         12.472 
     26       C          158.587         24.148 
     29       C          154.537         16.915 
     32       C          142.785         28.873 
     34       C          174.868         23.740 
     36       C          167.300         33.115 
     39       C          143.445         35.605 
     43       C          155.508         12.222 
     44       C          183.852         14.448 
     49       C          175.990         22.282 
     50       C           60.187        152.663 
     51       C           68.682        139.226 
     54       C          159.549         17.712 
     55       C          179.748         19.938 
     56       C          164.984         17.633 
     59       C          181.401         20.159 
     60       C          175.230         32.202 


NMR shielding tensor and spin rotation calculation done in   1.0 sec 

Maximum memory used throughout the entire PROP-calculation: 52.1 MB

--------------------------------
SUGGESTED CITATIONS FOR THIS RUN
--------------------------------

Below you find a list of papers that are relevant to this ORCA run
We neither can nor want to force you to cite these papers, but we appreciate if you do
You receive ORCA, which is the product of decades of hard work by many enthusiastic individuals, for free
The only thing we kindly ask in return is that you cite our papers,
We deeply appreciate it, if you show your appreciation for ORCA by not just citing the generic ORCA reference.

Please note that relegating all ORCA citations to the supporting information does *not* help us.
SI sections are not indexed - citations you put there will not count into any citation statistics
But we need these citations in order to attract the funding resources that allow us to do what we are doing

Therefore, if you are a happy ORCA user, please consider citing a few of the papers listed below in the main body of your paper

In addition to the list printed below, the program has created the file inpS.bibtex that contains the list in bibtex format
You can import this file easily into all common literature databanks and citation aid programs


List of essential papers. We consider these as the minimum necessary citations

  1. Neese,F.
     Software update: the ORCA program system, version 5.0
     WIRES Comput. Molec. Sci., 2022 12(1)e1606
     doi.org/10.1002/wcms.1606

List of papers to cite with high priority. The work reported in these papers was absolutely
necessary for this run to complete.
Our perspective: the developers of density functionals and basis sets usually get cited in chemistry papers
Good! But without the algorithms to do something with them, the functionals or basis sets would not do anything.
Hence, in our opinion, the algorithm design and method developments papers are equally worthy of getting cited

  1. Neese,F.
     An improvement of the resolution of the identity approximation for the formation of the Coulomb matrix
     J. Comp. Chem., 2003 24(14)1740-1747
     doi.org/10.1002/jcc.10318
  2. Neese,F.; Wennmohs,F.; Hansen,A.; Becker,U.
     Efficient, approximate and parallel Hartree-Fock and hybrid DFT calculations. A 'chain-of-spheres' algorithm for the Hartree-Fock exchange
     Chem. Phys., 2009 356(1-3)98-109
     doi.org/10.1016/j.chemphys.2008.10.036
  3. Stoychev,G.L.; Auer,A.A.; Izsak,R.; Neese,F.
     Self-Consistent Field Calculation of Nuclear Magnetic Resonance Chemical Shielding Constants Using Gauge-Including Atomic Orbitals and Approximate Two-Electron Integrals
     J. Chem. Theory Comput., 2018 14(2)619-637
     doi.org/10.1021/acs.jctc.7b01006
  4. Garcia-Rates,M.; Neese,F.
     Effect of the Solute Cavity on the Solvation Energy and its Derivatives within the Framework of the Gaussian Charge Scheme
     J. Comput. Chem., 2020 41 922-939
     doi.org/10.1002/jcc.26139
  5. Helmich-Paris,B.; de Souza,B.; Neese,F.; Izsák,R.
     An improved chain of spheres for exchange algorithm
     J. Chem. Phys., 2021 155 104109
     doi.org/doi: 10.1063/5.0058766.
  6. Neese,F.
     The SHARK Integral Generation and Digestion System
     J. Comp. Chem., 2022  1-16
     doi.org/10.1002/jcc.26942
  7. Caldeweyher,E.; Bannwarth,C.; Grimme,S.
     Extension of the D3 dispersion coefficient model
     J. Chem. Phys., 2017 147 034112-XXXX
     doi.org/10.1063/1.4993215
  8. Caldeweyher,E.; Ehlert,S.; Hansen,A.; Neugebauer,H.; Spicher,S.; Bannwarth,C.; Grimme,S.
     A generally applicable atomic-charge dependent London dispersion correction
     J. Chem. Phys., 2019 150 154122-XXXX
     doi.org/10.1063/1.5090222
  9. Caldeweyher,E.; Mewes,J.; Ehlert,S.; Grimme,S.
     Extension and evaluation of the D4 London-dispersion model for periodic systems
     Phys. Chem. Chem. Phys., 2020 22(16)8499-8512
     doi.org/10.1039/D0CP00502A

List of suggested additional citations. These are papers that are important in the 'surrounding' of 
of this run, or papers that preceded the highly important papers. If you like your results we are grateful for a citation.

  1. Izsak,R.; Neese,F.
     An overlap fitted chain of spheres exchange method
     J. Chem. Phys., 2011 135 144105
     doi.org/10.1063/1.3646921
  2. Izsak,R.; Hansen,A.; Neese,F.
     The resolution of identity and chain of spheres approximations for the LPNO-CCSD singles Fock term
     Molec. Phys., 2012 110 2413-2417
     doi.org/10.1080/00268976.2012.687466
  3. Neese,F.
     The ORCA program system
     WIRES Comput. Molec. Sci., 2012 2(1)73-78
     doi.org/10.1002/wcms.81
  4. Izsak,R.; Neese,F.; Klopper,W.
     Robust fitting techniques in the chain of spheres approximation to the Fock exchange: The role of the complementary space
     J. Chem. Phys., 2013 139 
     doi.org/10.1063/1.4819264
  5. Neese,F.
     Software update: the ORCA program system, version 4.0
     WIRES Comput. Molec. Sci., 2018 8(1)1-6
     doi.org/10.1002/wcms.1327
  6. Neese,F.; Wennmohs,F.; Becker,U.; Riplinger,C.
     The ORCA quantum chemistry program package
     J. Chem. Phys., 2020 152 Art. No. L224108
     doi.org/10.1063/5.0004608

Timings for individual modules:

Sum of individual times          ...      178.928 sec (=   2.982 min)
Startup calculation              ...        4.705 sec (=   0.078 min)   2.6 %
SCF iterations                   ...       73.740 sec (=   1.229 min)  41.2 %
Property integrals               ...       60.649 sec (=   1.011 min)  33.9 %
SCF Response                     ...       38.516 sec (=   0.642 min)  21.5 %
Property calculations            ...        1.318 sec (=   0.022 min)   0.7 %
                             ****ORCA TERMINATED NORMALLY****
TOTAL RUN TIME: 0 days 0 hours 2 minutes 59 seconds 243 msec
