
                                 *****************
                                 * O   R   C   A *
                                 *****************

                                            #,                                       
                                            ###                                      
                                            ####                                     
                                            #####                                    
                                            ######                                   
                                           ########,                                 
                                     ,,################,,,,,                         
                               ,,#################################,,                 
                          ,,##########################################,,             
                       ,#########################################, ''#####,          
                    ,#############################################,,   '####,        
                  ,##################################################,,,,####,       
                ,###########''''           ''''###############################       
              ,#####''   ,,,,##########,,,,          '''####'''          '####       
            ,##' ,,,,###########################,,,                        '##       
           ' ,,###''''                  '''############,,,                           
         ,,##''                                '''############,,,,        ,,,,,,###''
      ,#''                                            '''#######################'''  
     '                                                          ''''####''''         
             ,#######,   #######,   ,#######,      ##                                
            ,#'     '#,  ##    ##  ,#'     '#,    #''#        ,####,   ,####,        
            ##       ##  ##   ,#'  ##            #'  '#       #'       #'  '#        
            ##       ##  #######   ##           ,######,      #####,   #    #        
            '#,     ,#'  ##    ##  '#,     ,#' ,#      #,     #,   #   #,  ,#        
             '#######'   ##     ##  '#######'  #'      '#     '####' # '####'        



                #########################################################
                #                        -***-                          #
                #          Department of theory and spectroscopy        #
                #                                                       #
                #                      Frank Neese                      #
                #                                                       #
                #     Directorship, Architecture, Infrastructure        #
                #                    SHARK, DRIVERS                     #
                #        Core code/Algorithms in most modules           #
                #                                                       #
                #        Max Planck Institute fuer Kohlenforschung      #
                #                Kaiser Wilhelm Platz 1                 #
                #                 D-45470 Muelheim/Ruhr                 #
                #                      Germany                          #
                #                                                       #
                #                  All rights reserved                  #
                #                        -***-                          #
                #########################################################


                         Program Version 6.0.0  -   RELEASE  -


 With contributions from (in alphabetic order):
   Daniel Aravena         : Magnetic Suceptibility
   Michael Atanasov       : Ab Initio Ligand Field Theory (pilot matlab implementation)
   Alexander A. Auer      : GIAO ZORA, VPT2 properties, NMR spectrum
   Ute Becker             : All parallelization in ORCA, NUMFREQ, NUMCALC
   Giovanni Bistoni       : ED, misc. LED, open-shell LED, HFLD
   Martin Brehm           : Molecular dynamics
   Dmytro Bykov           : pre 5.0 version of the SCF Hessian
   Marcos Casanova-Páez   : Triplet and SCS-CIS(D). UHF-(DLPNO)-IP/EA/STEOM-CCSD. UHF-CVS-IP/STEOM-CCSD
   Vijay G. Chilkuri      : MRCI spin determinant printing, contributions to CSF-ICE
   Pauline Colinet        : FMM embedding
   Dipayan Datta          : RHF DLPNO-CCSD density
   Achintya Kumar Dutta   : EOM-CC, STEOM-CC
   Nicolas Foglia         : Exact transition moments, OPA infrastructure, MCD improvements
   Dmitry Ganyushin       : Spin-Orbit,Spin-Spin,Magnetic field MRCI
   Miquel Garcia          : C-PCM and meta-GGA Hessian, CCSD/C-PCM, Gaussian charge scheme
   Tiago L. C. Gouveia    : GS-ROHF, GS-ROCIS
   Yang Guo               : DLPNO-NEVPT2, F12-NEVPT2, CIM, IAO-localization
   Andreas Hansen         : Spin unrestricted coupled pair/coupled cluster methods
   Ingolf Harden          : AUTO-CI MPn and infrastructure 
   Benjamin Helmich-Paris : MC-RPA, TRAH-(SCF,CASSCF), AVAS, COSX integrals, SCF dyn. polar.
   Lee Huntington         : MR-EOM, pCC
   Robert Izsak           : Overlap fitted RIJCOSX, COSX-SCS-MP3, EOM
   Riya Kayal             : Wick's Theorem for AUTO-CI, AUTO-CI UHF-CCSDT
   Emily Kempfer          : AUTO-CI, RHF CISDT and CCSDT
   Christian Kollmar      : KDIIS, OOCD, Brueckner-CCSD(T), CCSD density, CASPT2, CASPT2-K, improved NEVPT2
   Axel Koslowski         : Symmetry handling
   Simone Kossmann        : Meta GGA functionals, TD-DFT gradient, OOMP2, (MP2 Hessian; deprecated post 5.0)
   Lucas Lang             : DCDCAS
   Marvin Lechner         : AUTO-CI (C++ implementation), FIC-MRCC
   Spencer Leger          : CASSCF response
   Dagmar Lenk            : GEPOL surface, SMD, ORCA-2-JSON
   Dimitrios Liakos       : Extrapolation schemes; Compound Job, initial MDCI parallelization
   Dimitrios Manganas     : Further ROCIS development; embedding schemes. LFT, Crystal Embedding
   Dimitrios Pantazis     : SARC Basis sets
   Anastasios Papadopoulos: AUTO-CI, single reference methods and gradients
   Taras Petrenko         : pre 6.0 DFT Hessian and TD-DFT gradient, (ASA, deprecated), ECA, 1-Electron XAS/XES, NRVS
   Peter Pinski           : DLPNO-MP2, DLPNO-MP2 Gradient
   Christoph Reimann      : Effective Core Potentials
   Marius Retegan         : Local ZFS, SOC
   Christoph Riplinger    : Optimizer, TS searches, QM/MM, DLPNO-CCSD(T), (RO)-DLPNO pert. Triples
   Michael Roemelt        : Original ROCIS implementation
   Masaaki Saitow         : Open-shell DLPNO-CCSD energy and density
   Barbara Sandhoefer     : DKH picture change effects
   Kantharuban Sivalingam : CASSCF convergence/infrastructure, NEVPT2 and variants, FIC-MRCI
   Bernardo de Souza      : ESD, SOC TD-DFT
   Georgi Stoychev        : AutoAux, RI-MP2 NMR, DLPNO-MP2 response, X2C
   Van Anh Tran           : RI-MP2 g-tensors
   Willem Van den Heuvel  : Paramagnetic NMR
   Zikuan Wang            : NOTCH, Electric field optimization 
   Frank Wennmohs         : Technical directorship and infrastructure
   Hang Xu                : AUTO-CI-Response properties 


 We gratefully acknowledge several colleagues who have allowed us to
 interface, adapt or use parts of their codes:
   Stefan Grimme, W. Hujo, H. Kruse, P. Pracht,  : VdW corrections, initial TS optimization,
                  C. Bannwarth, S. Ehlert,         DFT functionals, gCP, sTDA/sTD-DF
                  L. Wittmann, M. Mueller
   Ed Valeev, F. Pavosevic, A. Kumar             : LibInt (2-el integral package), F12 methods
   Garnet Chan, S. Sharma, J. Yang, R. Olivares  : DMRG
   Ulf Ekstrom                                   : XCFun DFT Library
   Mihaly Kallay                                 : mrcc  (arbitrary order and MRCC methods)
   Frank Weinhold                                : gennbo (NPA and NBO analysis)
   Simon Mueller                                 : openCOSMO-RS
   Christopher J. Cramer and Donald G. Truhlar   : smd solvation model
   Lars Goerigk                                  : TD-DFT with DH, B97 family of functionals
   V. Asgeirsson, H. Jonsson                     : NEB implementation
   FAccTs GmbH                                   : IRC, NEB, NEB-TS, DLPNO-Multilevel, CI-OPT
                                                   MM, QMMM, 2- and 3-layer-ONIOM, Crystal-QMMM,
                                                   LR-CPCM, SF, NACMEs, symmetry and pop. for TD-DFT,
                                                   nearIR, NL-DFT gradient (VV10), updates on ESD,
                                                   ML-optimized integration grids, MBIS, APM,
                                                   GOAT, DOCKER, SOLVATOR, interface openCOSMO-RS
   S Lehtola, MJT Oliveira, MAL Marques          : LibXC Library
   Liviu Ungur et al                             : ANISO software


 Your calculation uses the libint2 library for the computation of 2-el integrals
 For citations please refer to: http://libint.valeyev.net

 Your ORCA version has been built with support for libXC version: 6.2.2
 For citations please refer to: https://libxc.gitlab.io

 This ORCA versions uses:
   CBLAS   interface :  Fast vector & matrix operations
   LAPACKE interface :  Fast linear algebra routines
   SCALAPACK package :  Parallel linear algebra routines
   Shared memory     :  Shared parallel matrices
   BLAS/LAPACK       :  OpenBLAS 0.3.27  USE64BITINT DYNAMIC_ARCH NO_AFFINITY Zen SINGLE_THREADED
        Core in use  :  Zen
   Copyright (c) 2011-2014, The OpenBLAS Project


NOTE: MaxCore=8000 MB was set to SCF,MP2,MDCI,CIPSI,MRCI and CIS
      => If you want to overwrite this, your respective input block should be placed after the MaxCore statement
Your calculation utilizes the atom-pairwise dispersion correction
based on EEQ partial charges (D4)


================================================================================

----- Orbital basis set information -----
Your calculation utilizes the basis: pcJ-0
   F. Jensen, Theor. Chem. Acc. 126, 371 (2010).

----- AuxJ basis set information -----
Your calculation utilizes the auxiliary basis: def2/J
   F. Weigend, Phys. Chem. Chem. Phys. 8, 1057 (2006).

================================================================================
                                        WARNINGS
                       Please study these warnings very carefully!
================================================================================

WARNING: Old DensityContainer found on disk!
         Will remove this file - 
         If you want to keep old densities, please start your calculation with a different basename. 


================================================================================
                                       INPUT FILE
================================================================================
NAME = inpJ
|  1> ! pbe0
|  2> ! D4
|  3> ! pcJ-0
|  4> ! def2/J RIJCOSX
|  5> ! DEFGRID2
|  6> ! scfconv7
|  7> ! smallprint printgap noloewdin
|  8> ! NOSOSCF
|  9> %MaxCore 8000
| 10> %output
| 11>        print[P_BondOrder_M] 1
| 12>        print[P_Mayer] 1
| 13>        print[P_basis] 2
| 14> end
| 15> %pal
| 16>     nprocs 4
| 17> end
| 18> ! CPCM(chloroform)
| 19> *xyz 0 1
| 20> C   -5.0316843800   0.3031452700   0.3138049700
| 21> C   -6.4392359100  -0.1192093400  -0.0356727800
| 22> C   -6.9772031200   0.6468486000  -1.2504447400
| 23> H   -7.1090024200   0.1023474400   0.8126242500
| 24> H   -6.4843337500  -1.1974686400  -0.2242421800
| 25> C   -4.8499865900   1.7655388800   0.4329247900
| 26> C   -5.4329079300   2.5634722600  -0.7115687300
| 27> C   -6.8795228800   2.1498627600  -1.0142080100
| 28> H   -4.8239009900   2.3782316300  -1.6094502900
| 29> H   -5.3754478400   3.6350916300  -0.4934270000
| 30> H   -7.2517626400   2.6871692700  -1.8944329500
| 31> H   -7.5252325200   2.4152446400  -0.1634876400
| 32> O   -8.3157131000   0.2428323900  -1.5674457400
| 33> H   -6.3839076000   0.3772400300  -2.1354009100
| 34> C   -4.0442670700  -0.6134552300   0.4500989800
| 35> C   -4.2616129800   2.3512949000   1.4821176900
| 36> H   -3.8710352200   1.7673788700   2.3108555200
| 37> H   -4.1680572900   3.4332336000   1.5385067900
| 38> C   -2.6459943700  -0.3389959200   0.6867179700
| 39> H   -4.3358466700  -1.6557208800   0.3276873700
| 40> C   -1.6730424200  -1.2516877100   0.8961521100
| 41> H   -2.3604383800   0.7104279300   0.6822902600
| 42> C   -1.8688167900  -2.7441736200   0.9827539900
| 43> C   -0.9217951900  -3.5023290300   0.0333584200
| 44> H   -2.9039314700  -3.0392896400   0.7899861500
| 45> H   -1.6384838700  -3.0532698400   2.0150074000
| 46> C    0.5426494900  -3.0684695500   0.1868516100
| 47> H   -1.2489974800  -3.3422194100  -1.0017231800
| 48> H   -1.0076376100  -4.5791452100   0.2240207500
| 49> C    0.7057720800  -1.5494136700   0.0394577500
| 50> H    1.1517709400  -3.6079879900  -0.5458746000
| 51> H    0.9045901300  -3.3620476700   1.1838275300
| 52> C   -0.2357694200  -0.8745046400   1.0867855700
| 53> H    0.0730715900  -1.3094567000   2.0554918500
| 54> C    0.2000676400   0.5875793700   1.0933383900
| 55> H   -8.8750000300   0.4695205400  -0.8123934000
| 56> C    1.7325911600   0.5092521600   0.8880677100
| 57> H   -0.0807005000   1.0976286400   2.0208823700
| 58> H   -0.2692789100   1.1357339600   0.2687338300
| 59> C    2.0697377300  -0.9604755700   0.4960373400
| 60> H    2.2815244700   0.8024521900   1.7885926400
| 61> H    2.0576789600   1.1924504600   0.0944531200
| 62> H    2.3553227900  -1.5098567900   1.4081425700
| 63> C    3.2711245000  -1.0265953600  -0.4687904700
| 64> C    0.3616835800  -1.0929946000  -1.3846635700
| 65> H   -0.7010544700  -1.2341792600  -1.6044368500
| 66> H    0.9377119100  -1.6618754200  -2.1229639300
| 67> H    0.5875644900  -0.0323334900  -1.5333334000
| 68> H    3.0133707700  -0.4668957200  -1.3801482500
| 69> C    3.6566214400  -2.4600397000  -0.8640360900
| 70> C    4.4601385600  -0.3521904600   0.1654190500
| 71> C    5.0896020900   0.7081762000  -0.3410834900
| 72> H    4.8074551400  -0.8046229400   1.0970551400
| 73> H    4.7082159200   1.1193684000  -1.2782894800
| 74> C    6.2876826400   1.4159800000   0.2342981800
| 75> C    6.8793024400   0.7261756400   1.4632577400
| 76> C    5.9984648400   2.9213397000   0.5029747200
| 77> H    7.0630319800   1.4077996800  -0.5506934400
| 78> H    6.9344304400   3.3375918200   0.9058437100
| 79> C    4.8959198000   3.1356785800   1.5413420600
| 80> C    5.6704580500   3.6833677400  -0.7839956400
| 81> H    7.2114460600  -0.2890316300   1.2212712300
| 82> H    6.1550753600   0.6509479700   2.2810346300
| 83> H    7.7441882400   1.2885695500   1.8312705500
| 84> H    4.7524635100   4.2053020200   1.7314188700
| 85> H    5.1300214600   2.6565497400   2.4974128200
| 86> H    3.9446205300   2.7257586400   1.1823752500
| 87> H    4.6899926800   3.3949461600  -1.1796834900
| 88> H    6.4199678300   3.4975345300  -1.5621330000
| 89> H    5.6410373700   4.7617606400  -0.5926593900
| 90> H    4.5884355700  -2.4565919000  -1.4395910700
| 91> H    2.8852992800  -2.9322396200  -1.4777320300
| 92> H    3.8105181900  -3.0808197700   0.0271805600
| 93> *
| 94> %eprnmr
| 95>  Nuclei = all C { ssfc }
| 96>  SpinSpinRThresh 8.0
| 97> end
| 98> 
| 99>                          ****END OF INPUT****
================================================================================

                       ****************************
                       * Single Point Calculation *
                       ****************************

---------------------------------
CARTESIAN COORDINATES (ANGSTROEM)
---------------------------------
  C     -5.031684    0.303145    0.313805
  C     -6.439236   -0.119209   -0.035673
  C     -6.977203    0.646849   -1.250445
  H     -7.109002    0.102347    0.812624
  H     -6.484334   -1.197469   -0.224242
  C     -4.849987    1.765539    0.432925
  C     -5.432908    2.563472   -0.711569
  C     -6.879523    2.149863   -1.014208
  H     -4.823901    2.378232   -1.609450
  H     -5.375448    3.635092   -0.493427
  H     -7.251763    2.687169   -1.894433
  H     -7.525233    2.415245   -0.163488
  O     -8.315713    0.242832   -1.567446
  H     -6.383908    0.377240   -2.135401
  C     -4.044267   -0.613455    0.450099
  C     -4.261613    2.351295    1.482118
  H     -3.871035    1.767379    2.310856
  H     -4.168057    3.433234    1.538507
  C     -2.645994   -0.338996    0.686718
  H     -4.335847   -1.655721    0.327687
  C     -1.673042   -1.251688    0.896152
  H     -2.360438    0.710428    0.682290
  C     -1.868817   -2.744174    0.982754
  C     -0.921795   -3.502329    0.033358
  H     -2.903931   -3.039290    0.789986
  H     -1.638484   -3.053270    2.015007
  C      0.542649   -3.068470    0.186852
  H     -1.248997   -3.342219   -1.001723
  H     -1.007638   -4.579145    0.224021
  C      0.705772   -1.549414    0.039458
  H      1.151771   -3.607988   -0.545875
  H      0.904590   -3.362048    1.183828
  C     -0.235769   -0.874505    1.086786
  H      0.073072   -1.309457    2.055492
  C      0.200068    0.587579    1.093338
  H     -8.875000    0.469521   -0.812393
  C      1.732591    0.509252    0.888068
  H     -0.080700    1.097629    2.020882
  H     -0.269279    1.135734    0.268734
  C      2.069738   -0.960476    0.496037
  H      2.281524    0.802452    1.788593
  H      2.057679    1.192450    0.094453
  H      2.355323   -1.509857    1.408143
  C      3.271124   -1.026595   -0.468790
  C      0.361684   -1.092995   -1.384664
  H     -0.701054   -1.234179   -1.604437
  H      0.937712   -1.661875   -2.122964
  H      0.587564   -0.032333   -1.533333
  H      3.013371   -0.466896   -1.380148
  C      3.656621   -2.460040   -0.864036
  C      4.460139   -0.352190    0.165419
  C      5.089602    0.708176   -0.341083
  H      4.807455   -0.804623    1.097055
  H      4.708216    1.119368   -1.278289
  C      6.287683    1.415980    0.234298
  C      6.879302    0.726176    1.463258
  C      5.998465    2.921340    0.502975
  H      7.063032    1.407800   -0.550693
  H      6.934430    3.337592    0.905844
  C      4.895920    3.135679    1.541342
  C      5.670458    3.683368   -0.783996
  H      7.211446   -0.289032    1.221271
  H      6.155075    0.650948    2.281035
  H      7.744188    1.288570    1.831271
  H      4.752464    4.205302    1.731419
  H      5.130021    2.656550    2.497413
  H      3.944621    2.725759    1.182375
  H      4.689993    3.394946   -1.179683
  H      6.419968    3.497535   -1.562133
  H      5.641037    4.761761   -0.592659
  H      4.588436   -2.456592   -1.439591
  H      2.885299   -2.932240   -1.477732
  H      3.810518   -3.080820    0.027181

----------------------------
CARTESIAN COORDINATES (A.U.)
----------------------------
  NO LB      ZA    FRAG     MASS         X           Y           Z
   0 C     6.0000    0    12.011   -9.508505    0.572862    0.593005
   1 C     6.0000    0    12.011  -12.168392   -0.225273   -0.067412
   2 C     6.0000    0    12.011  -13.185003    1.222367   -2.362998
   3 H     1.0000    0     1.008  -13.434068    0.193409    1.535637
   4 H     1.0000    0     1.008  -12.253615   -2.262888   -0.423756
   5 C     6.0000    0    12.011   -9.165146    3.336385    0.818109
   6 C     6.0000    0    12.011  -10.266708    4.844261   -1.344670
   7 C     6.0000    0    12.011  -13.000414    4.062652   -1.916575
   8 H     1.0000    0     1.008   -9.115852    4.494206   -3.041420
   9 H     1.0000    0     1.008  -10.158124    6.869328   -0.932442
  10 H     1.0000    0     1.008  -13.703845    5.078014   -3.579959
  11 H     1.0000    0     1.008  -14.220629    4.564151   -0.308947
  12 O     8.0000    0    15.999  -15.714420    0.458887   -2.962043
  13 H     1.0000    0     1.008  -12.063837    0.712880   -4.035323
  14 C     6.0000    0    12.011   -7.642557   -1.159262    0.850564
  15 C     6.0000    0    12.011   -8.053281    4.443303    2.800797
  16 H     1.0000    0     1.008   -7.315196    3.339862    4.366884
  17 H     1.0000    0     1.008   -7.876487    6.487871    2.907356
  18 C     6.0000    0    12.011   -5.000205   -0.640609    1.297709
  19 H     1.0000    0     1.008   -8.193563   -3.128859    0.619239
  20 C     6.0000    0    12.011   -3.161592   -2.365347    1.693482
  21 H     1.0000    0     1.008   -4.460582    1.342514    1.289342
  22 C     6.0000    0    12.011   -3.531552   -5.185737    1.857136
  23 C     6.0000    0    12.011   -1.741940   -6.618443    0.063038
  24 H     1.0000    0     1.008   -5.487635   -5.743425    1.492857
  25 H     1.0000    0     1.008   -3.096286   -5.769844    3.807812
  26 C     6.0000    0    12.011    1.025459   -5.798567    0.353098
  27 H     1.0000    0     1.008   -2.360263   -6.315879   -1.892982
  28 H     1.0000    0     1.008   -1.904159   -8.653330    0.423338
  29 C     6.0000    0    12.011    1.333716   -2.927968    0.074564
  30 H     1.0000    0     1.008    2.176532   -6.818109   -1.031553
  31 H     1.0000    0     1.008    1.709428   -6.353349    2.237110
  32 C     6.0000    0    12.011   -0.445540   -1.652574    2.053727
  33 H     1.0000    0     1.008    0.138085   -2.474515    3.884317
  34 C     6.0000    0    12.011    0.378073    1.110364    2.066110
  35 H     1.0000    0     1.008  -16.771319    0.887265   -1.535201
  36 C     6.0000    0    12.011    3.274123    0.962347    1.678205
  37 H     1.0000    0     1.008   -0.152502    2.074218    3.818914
  38 H     1.0000    0     1.008   -0.508863    2.146226    0.507833
  39 C     6.0000    0    12.011    3.911237   -1.815036    0.937375
  40 H     1.0000    0     1.008    4.311456    1.516415    3.379950
  41 H     1.0000    0     1.008    3.888450    2.253405    0.178491
  42 H     1.0000    0     1.008    4.450915   -2.853216    2.661004
  43 C     6.0000    0    12.011    6.181529   -1.939984   -0.885886
  44 C     6.0000    0    12.011    0.683483   -2.065460   -2.616635
  45 H     1.0000    0     1.008   -1.324801   -2.332261   -3.031946
  46 H     1.0000    0     1.008    1.772019   -3.140489   -4.011820
  47 H     1.0000    0     1.008    1.110336   -0.061101   -2.897580
  48 H     1.0000    0     1.008    5.694445   -0.882305   -2.608102
  49 C     6.0000    0    12.011    6.910013   -4.648801   -1.632792
  50 C     6.0000    0    12.011    8.428440   -0.665544    0.312597
  51 C     6.0000    0    12.011    9.617954    1.338259   -0.644554
  52 H     1.0000    0     1.008    9.084774   -1.520517    2.073134
  53 H     1.0000    0     1.008    8.897239    2.115300   -2.415617
  54 C     6.0000    0    12.011   11.881998    2.675814    0.442759
  55 C     6.0000    0    12.011   12.999998    1.372273    2.765156
  56 C     6.0000    0    12.011   11.335456    5.520532    0.950484
  57 H     1.0000    0     1.008   13.347196    2.660356   -1.040660
  58 H     1.0000    0     1.008   13.104174    6.307134    1.711797
  59 C     6.0000    0    12.011    9.251948    5.925574    2.912714
  60 C     6.0000    0    12.011   10.715613    6.960556   -1.481537
  61 H     1.0000    0     1.008   13.627658   -0.546191    2.307868
  62 H     1.0000    0     1.008   11.631407    1.230113    4.310531
  63 H     1.0000    0     1.008   14.634395    2.435044    3.460600
  64 H     1.0000    0     1.008    8.980854    7.946869    3.271907
  65 H     1.0000    0     1.008    9.694336    5.020151    4.719426
  66 H     1.0000    0     1.008    7.454253    5.150937    2.234365
  67 H     1.0000    0     1.008    8.862802    6.415518   -2.229279
  68 H     1.0000    0     1.008   12.131981    6.609382   -2.952004
  69 H     1.0000    0     1.008   10.660016    8.998424   -1.119964
  70 H     1.0000    0     1.008    8.670887   -4.642286   -2.720433
  71 H     1.0000    0     1.008    5.452425   -5.541130   -2.792509
  72 H     1.0000    0     1.008    7.200836   -5.821906    0.051364

--------------------------------
INTERNAL COORDINATES (ANGSTROEM)
--------------------------------
 C      0   0   0     0.000000000000     0.00000000     0.00000000
 C      1   0   0     1.510536137912     0.00000000     0.00000000
 C      2   1   0     1.533598513717   111.74433327     0.00000000
 H      2   1   3     1.103305232376   109.36794680   241.46258624
 H      2   1   3     1.095552532664   110.69373095   122.88350355
 C      1   2   3     1.478444685802   114.18788328    50.49968197
 C      6   1   2     1.512071554149   114.43221417   312.05018820
 C      3   2   1     1.524598565868   110.31817293   305.01772786
 H      7   6   1     1.100633835460   108.38156804   289.93857612
 H      7   6   1     1.095105269127   110.20563479   172.73861653
 H      8   3   2     1.096383450081   109.69299492   179.11109978
 H      8   3   2     1.100496991979   108.65823507   296.54961574
 O      3   2   1     1.433641412105   111.21620792   180.32674243
 H      3   2   1     1.099015822402   109.02092925    65.16018575
 C      1   2   3     1.354151201990   120.89661503   232.66399496
 C      6   1   2     1.337945948580   123.38602860   129.85839327
 H     16   6   1     1.086423171499   121.39779899     0.65627052
 H     16   6   1     1.087439077966   120.93634866   181.33627755
 C     15   1   2     1.444466338424   126.42242850   175.31862466
 H     15   1   2     1.089183616554   116.18099498   357.96501108
 C     19  15   1     1.350371970806   126.47332485   176.07222337
 H     19  15   1     1.087590108906   115.90208993   355.35556924
 C     21  19  15     1.507760485328   125.75983927   357.20113888
 C     23  21  19     1.540454960365   111.83617880   127.89283607
 H     23  21  19     1.093487679926   112.32987736     3.76013588
 H     23  21  19     1.101880587773   107.71851905   246.54661830
 C     24  23  21     1.535054536016   112.69098800    50.79022769
 H     24  23  21     1.097310506491   109.04014582   288.69384350
 H     24  23  21     1.096929410064   109.14171226   172.73993707
 C     27  24  23     1.534882632613   111.80855130   306.19895556
 H     27  24  23     1.094987117171   108.93673844   182.68966713
 H     27  24  23     1.100522659688   109.20447103    66.18952021
 C     21  19  15     1.498119441465   122.73887000   177.81966679
 H     33  21  19     1.105874278961   106.28236936   123.98132782
 C     33  21  19     1.525675763266   121.05690997     1.79502594
 H     13   3   2     0.966588549259   107.54217176    62.69780876
 C     35  33  21     1.548192346980   103.51639774   196.28993952
 H     35  33  21     1.095134165799   112.13112463    74.25899809
 H     35  33  21     1.095779320350   110.71998000   314.66644301
 C     30  27  24     1.554257154404   116.10819919   166.35938742
 H     37  35  33     1.094641121999   111.94840922   249.48051765
 H     37  35  33     1.096478961172   110.97275289   130.95121460
 H     40  30  27     1.102413036016   106.35301947   320.93781726
 C     40  30  27     1.542269334685   118.91968911    81.77991948
 C     30  27  24     1.534547750111   111.07876356   294.28272119
 H     45  30  27     1.094369940075   111.45350406    66.72626616
 H     45  30  27     1.095683095563   110.67274196   306.57772194
 H     45  30  27     1.094589829169   111.59148391   186.72759111
 H     44  40  30     1.100124390927   108.29597801    60.59765579
 C     44  40  30     1.536095591673   113.35735664   299.90867414
 C     44  40  30     1.506916759241   109.40013188   177.85185713
 C     51  44  40     1.333096625255   124.65569853   240.46084164
 H     51  44  40     1.092368875377   115.11597597    61.37898573
 H     52  51  44     1.092194810325   117.42622440     0.52867550
 C     52  51  44     1.505804532386   127.18514261   180.72094087
 C     55  52  51     1.528458583980   113.77005208     5.84344868
 C     55  52  51     1.556258926197   111.88727217   238.09128605
 H     55  52  51     1.103379064576   106.48515489   123.77600075
 H     57  55  52     1.100727420796   105.72117974   180.66886769
 C     57  55  52     1.529625265706   112.74882502    62.70701007
 C     57  55  52     1.531198189507   112.09202801   297.56507826
 H     56  55  52     1.095227216786   110.98145682    60.31525479
 H     56  55  52     1.094953472782   112.05546260   300.03287347
 H     56  55  52     1.095329989259   110.12445875   179.98050416
 H     60  57  55     1.095811664584   110.41927713   177.65906900
 H     60  57  55     1.094732538414   112.17203294    57.54853471
 H     60  57  55     1.096294590424   110.53572898   297.03956334
 H     61  57  55     1.095932581967   111.35440301    70.53353588
 H     61  57  55     1.096264860005   111.45513274   309.72434867
 H     61  57  55     1.095630587263   110.41449036   189.67697850
 H     50  44  40     1.095241067161   110.23000935   187.39065202
 H     50  44  40     1.092947091916   111.74898549    67.46069634
 H     50  44  40     1.096959079550   110.74776305   306.87410286

---------------------------
INTERNAL COORDINATES (A.U.)
---------------------------
 C      0   0   0     0.000000000000     0.00000000     0.00000000
 C      1   0   0     2.854499616045     0.00000000     0.00000000
 C      2   1   0     2.898081190313   111.74433327     0.00000000
 H      2   1   3     2.084944731313   109.36794680   241.46258624
 H      2   1   3     2.070294252058   110.69373095   122.88350355
 C      1   2   3     2.793855560317   114.18788328    50.49968197
 C      6   1   2     2.857401132235   114.43221417   312.05018820
 C      3   2   1     2.881073753660   110.31817293   305.01772786
 H      7   6   1     2.079896522746   108.38156804   289.93857612
 H      7   6   1     2.069449046464   110.20563479   172.73861653
 H      8   3   2     2.071864458417   109.69299492   179.11109978
 H      8   3   2     2.079637926044   108.65823507   296.54961574
 O      3   2   1     2.709189643127   111.21620792   180.32674243
 H      3   2   1     2.076838921187   109.02092925    65.16018575
 C      1   2   3     2.558974915681   120.89661503   232.66399496
 C      6   1   2     2.528351424805   123.38602860   129.85839327
 H     16   6   1     2.053042259680   121.39779899     0.65627052
 H     16   6   1     2.054962044680   120.93634866   181.33627755
 C     15   1   2     2.729645789289   126.42242850   175.31862466
 H     15   1   2     2.058258744840   116.18099498   357.96501108
 C     19  15   1     2.551833203748   126.47332485   176.07222337
 H     19  15   1     2.055247451793   115.90208993   355.35556924
 C     21  19  15     2.849254392818   125.75983927   357.20113888
 C     23  21  19     2.911037996731   111.83617880   127.89283607
 H     23  21  19     2.066392245877   112.32987736     3.76013588
 H     23  21  19     2.082252543175   107.71851905   246.54661830
 C     24  23  21     2.900832673703   112.69098800    50.79022769
 H     24  23  21     2.073616341143   109.04014582   288.69384350
 H     24  23  21     2.072896173264   109.14171226   172.73993707
 C     27  24  23     2.900507823350   111.80855130   306.19895556
 H     27  24  23     2.069225771626   108.93673844   182.68966713
 H     27  24  23     2.079686430984   109.20447103    66.18952021
 C     21  19  15     2.831035460272   122.73887000   177.81966679
 H     33  21  19     2.089799525784   106.28236936   123.98132782
 C     33  21  19     2.883109361734   121.05690997     1.79502594
 H     13   3   2     1.826587642284   107.54217176    62.69780876
 C     35  33  21     2.925659538425   103.51639774   196.28993952
 H     35  33  21     2.069503653261   112.13112463    74.25899809
 H     35  33  21     2.070722818677   110.71998000   314.66644301
 C     30  27  24     2.937120363511   116.10819919   166.35938742
 H     37  35  33     2.068571935506   111.94840922   249.48051765
 H     37  35  33     2.072044948221   110.97275289   130.95121460
 H     40  30  27     2.083258724534   106.35301947   320.93781726
 C     40  30  27     2.914466667300   118.91968911    81.77991948
 C     30  27  24     2.899874987135   111.07876356   294.28272119
 H     45  30  27     2.068059475937   111.45350406    66.72626616
 H     45  30  27     2.070540980181   110.67274196   306.57772194
 H     45  30  27     2.068475006106   111.59148391   186.72759111
 H     44  40  30     2.078933812098   108.29597801    60.59765579
 C     44  40  30     2.902799983785   113.35735664   299.90867414
 C     44  40  30     2.847659981581   109.40013188   177.85185713
 C     51  44  40     2.519187531786   124.65569853   240.46084164
 H     51  44  40     2.064278011682   115.11597597    61.37898573
 H     52  51  44     2.063949076404   117.42622440     0.52867550
 C     52  51  44     2.845558177427   127.18514261   180.72094087
 C     55  52  51     2.888368130763   113.77005208     5.84344868
 C     55  52  51     2.940903163982   111.88727217   238.09128605
 H     55  52  51     2.085084253950   106.48515489   123.77600075
 H     57  55  52     2.080073373401   105.72117974   180.66886769
 C     57  55  52     2.890572839711   112.74882502    62.70701007
 C     57  55  52     2.893545234925   112.09202801   297.56507826
 H     56  55  52     2.069679494143   110.98145682    60.31525479
 H     56  55  52     2.069162192944   112.05546260   300.03287347
 H     56  55  52     2.069873705971   110.12445875   179.98050416
 H     60  57  55     2.070783940420   110.41927713   177.65906900
 H     60  57  55     2.068744687494   112.17203294    57.54853471
 H     60  57  55     2.071696538001   110.53572898   297.03956334
 H     61  57  55     2.071012441159   111.35440301    70.53353588
 H     61  57  55     2.071640355651   111.45513274   309.72434867
 H     61  57  55     2.070441753874   110.41449036   189.67697850
 H     50  44  40     2.069705667557   110.23000935   187.39065202
 H     50  44  40     2.065370682587   111.74898549    67.46069634
 H     50  44  40     2.072952240468   110.74776305   306.87410286

---------------------
BASIS SET INFORMATION
---------------------
There are 3 groups of distinct atoms

 Group   1 Type C   : 7s4p contracted to 4s3p pattern {4111/211}
 Group   2 Type H   : 5s contracted to 3s pattern {311}
 Group   3 Type O   : 7s4p contracted to 4s3p pattern {4111/211}

Atom   0C    basis set group =>   1
Atom   1C    basis set group =>   1
Atom   2C    basis set group =>   1
Atom   3H    basis set group =>   2
Atom   4H    basis set group =>   2
Atom   5C    basis set group =>   1
Atom   6C    basis set group =>   1
Atom   7C    basis set group =>   1
Atom   8H    basis set group =>   2
Atom   9H    basis set group =>   2
Atom  10H    basis set group =>   2
Atom  11H    basis set group =>   2
Atom  12O    basis set group =>   3
Atom  13H    basis set group =>   2
Atom  14C    basis set group =>   1
Atom  15C    basis set group =>   1
Atom  16H    basis set group =>   2
Atom  17H    basis set group =>   2
Atom  18C    basis set group =>   1
Atom  19H    basis set group =>   2
Atom  20C    basis set group =>   1
Atom  21H    basis set group =>   2
Atom  22C    basis set group =>   1
Atom  23C    basis set group =>   1
Atom  24H    basis set group =>   2
Atom  25H    basis set group =>   2
Atom  26C    basis set group =>   1
Atom  27H    basis set group =>   2
Atom  28H    basis set group =>   2
Atom  29C    basis set group =>   1
Atom  30H    basis set group =>   2
Atom  31H    basis set group =>   2
Atom  32C    basis set group =>   1
Atom  33H    basis set group =>   2
Atom  34C    basis set group =>   1
Atom  35H    basis set group =>   2
Atom  36C    basis set group =>   1
Atom  37H    basis set group =>   2
Atom  38H    basis set group =>   2
Atom  39C    basis set group =>   1
Atom  40H    basis set group =>   2
Atom  41H    basis set group =>   2
Atom  42H    basis set group =>   2
Atom  43C    basis set group =>   1
Atom  44C    basis set group =>   1
Atom  45H    basis set group =>   2
Atom  46H    basis set group =>   2
Atom  47H    basis set group =>   2
Atom  48H    basis set group =>   2
Atom  49C    basis set group =>   1
Atom  50C    basis set group =>   1
Atom  51C    basis set group =>   1
Atom  52H    basis set group =>   2
Atom  53H    basis set group =>   2
Atom  54C    basis set group =>   1
Atom  55C    basis set group =>   1
Atom  56C    basis set group =>   1
Atom  57H    basis set group =>   2
Atom  58H    basis set group =>   2
Atom  59C    basis set group =>   1
Atom  60C    basis set group =>   1
Atom  61H    basis set group =>   2
Atom  62H    basis set group =>   2
Atom  63H    basis set group =>   2
Atom  64H    basis set group =>   2
Atom  65H    basis set group =>   2
Atom  66H    basis set group =>   2
Atom  67H    basis set group =>   2
Atom  68H    basis set group =>   2
Atom  69H    basis set group =>   2
Atom  70H    basis set group =>   2
Atom  71H    basis set group =>   2
Atom  72H    basis set group =>   2

-------------------------
BASIS SET IN INPUT FORMAT
-------------------------

 # Basis set for element : H 
 NewGTO H 
 S 3 
   1    1357.7500000000      0.0012928364
   2      54.3100000000      0.0588280685
   3       4.3448000000      0.9761499708
 S 1 
   1       0.6604910000      1.0000000000
 S 1 
   1       0.1366870000      1.0000000000
  end;

 # Basis set for element : C 
 NewGTO C 
 S 4 
   1  139534.0000000000      0.0001655246
   2    5581.3600000000      0.0074486101
   3     446.5090000000      0.1285821065
   4      67.4620000000      0.9218029311
 S 1 
   1      15.0674000000      1.0000000000
 S 1 
   1       3.9387600000      1.0000000000
 S 1 
   1       0.2999150000      1.0000000000
 P 2 
   1      28.3900000000      0.0816325586
   2       4.3676900000      0.9660360576
 P 1 
   1       0.8698170000      1.0000000000
 P 1 
   1       0.1889340000      1.0000000000
  end;

 # Basis set for element : O 
 NewGTO O 
 S 4 
   1  253789.0000000000      0.0001641076
   2   10151.6000000000      0.0074010921
   3     812.1250000000      0.1277711901
   4     122.6930000000      0.9223372164
 S 1 
   1      27.5608000000      1.0000000000
 S 1 
   1       7.3172600000      1.0000000000
 S 1 
   1       0.5792400000      1.0000000000
 P 2 
   1      53.4157000000      0.0793786106
   2       8.2177900000      0.9670506337
 P 1 
   1       1.6754400000      1.0000000000
 P 1 
   1       0.3506720000      1.0000000000
  end;

---------------------------------
AUXILIARY/J BASIS SET INFORMATION
---------------------------------
There are 3 groups of distinct atoms

 Group   1 Type C   : 12s5p4d2f1g contracted to 6s4p3d1f1g pattern {711111/2111/211/2/1}
 Group   2 Type H   : 5s2p1d contracted to 3s1p1d pattern {311/2/1}
 Group   3 Type O   : 12s5p4d2f1g contracted to 6s4p3d1f1g pattern {711111/2111/211/2/1}

Atom   0C    basis set group =>   1
Atom   1C    basis set group =>   1
Atom   2C    basis set group =>   1
Atom   3H    basis set group =>   2
Atom   4H    basis set group =>   2
Atom   5C    basis set group =>   1
Atom   6C    basis set group =>   1
Atom   7C    basis set group =>   1
Atom   8H    basis set group =>   2
Atom   9H    basis set group =>   2
Atom  10H    basis set group =>   2
Atom  11H    basis set group =>   2
Atom  12O    basis set group =>   3
Atom  13H    basis set group =>   2
Atom  14C    basis set group =>   1
Atom  15C    basis set group =>   1
Atom  16H    basis set group =>   2
Atom  17H    basis set group =>   2
Atom  18C    basis set group =>   1
Atom  19H    basis set group =>   2
Atom  20C    basis set group =>   1
Atom  21H    basis set group =>   2
Atom  22C    basis set group =>   1
Atom  23C    basis set group =>   1
Atom  24H    basis set group =>   2
Atom  25H    basis set group =>   2
Atom  26C    basis set group =>   1
Atom  27H    basis set group =>   2
Atom  28H    basis set group =>   2
Atom  29C    basis set group =>   1
Atom  30H    basis set group =>   2
Atom  31H    basis set group =>   2
Atom  32C    basis set group =>   1
Atom  33H    basis set group =>   2
Atom  34C    basis set group =>   1
Atom  35H    basis set group =>   2
Atom  36C    basis set group =>   1
Atom  37H    basis set group =>   2
Atom  38H    basis set group =>   2
Atom  39C    basis set group =>   1
Atom  40H    basis set group =>   2
Atom  41H    basis set group =>   2
Atom  42H    basis set group =>   2
Atom  43C    basis set group =>   1
Atom  44C    basis set group =>   1
Atom  45H    basis set group =>   2
Atom  46H    basis set group =>   2
Atom  47H    basis set group =>   2
Atom  48H    basis set group =>   2
Atom  49C    basis set group =>   1
Atom  50C    basis set group =>   1
Atom  51C    basis set group =>   1
Atom  52H    basis set group =>   2
Atom  53H    basis set group =>   2
Atom  54C    basis set group =>   1
Atom  55C    basis set group =>   1
Atom  56C    basis set group =>   1
Atom  57H    basis set group =>   2
Atom  58H    basis set group =>   2
Atom  59C    basis set group =>   1
Atom  60C    basis set group =>   1
Atom  61H    basis set group =>   2
Atom  62H    basis set group =>   2
Atom  63H    basis set group =>   2
Atom  64H    basis set group =>   2
Atom  65H    basis set group =>   2
Atom  66H    basis set group =>   2
Atom  67H    basis set group =>   2
Atom  68H    basis set group =>   2
Atom  69H    basis set group =>   2
Atom  70H    basis set group =>   2
Atom  71H    basis set group =>   2
Atom  72H    basis set group =>   2

-------------------------------------
AUXILIARY/J BASIS SET IN INPUT FORMAT
-------------------------------------

 # Auxiliary/J basis set for element : H 
 NewAuxJGTO H 
 S 3 
   1      15.6752927000      0.1007184237
   2       3.6063578000      0.3404257499
   3       1.2080016000      0.6491996172
 S 1 
   1       0.4726794000      1.0000000000
 S 1 
   1       0.2018100000      1.0000000000
 P 2 
   1       2.0281365000      0.5596620919
   2       0.5358730000      0.5596620919
 D 1 
   1       2.2165124000      1.0000000000
  end;

 # Auxiliary/J basis set for element : C 
 NewAuxJGTO C 
 S 7 
   1    1861.0916331000      0.0134602335
   2     642.9939764000      0.0299160374
   3     235.1105725000      0.1008649584
   4      90.7028894000      0.2370970548
   5      36.7794552000      0.3924037254
   6      15.6046273000      0.3195862154
   7       6.8907294000      0.0530104441
 S 1 
   1       3.1478850000     -1.0000000000
 S 1 
   1       1.4777287000      1.0000000000
 S 1 
   1       0.7076466000      1.0000000000
 S 1 
   1       0.3430122000      1.0000000000
 S 1 
   1       0.1669453000      1.0000000000
 P 2 
   1      13.5472892000     -0.6769313712
   2       5.4669419000     -0.3779500978
 P 1 
   1       2.1751721000      1.0000000000
 P 1 
   1       0.8582194000      1.0000000000
 P 1 
   1       0.3376720000      1.0000000000
 D 2 
   1       5.9287253000     -0.3533329857
   2       1.9809209000     -0.7456525731
 D 1 
   1       0.8055417000     -1.0000000000
 D 1 
   1       0.3531244000     -1.0000000000
 F 2 
   1       1.6755626000      0.6311076882
   2       0.5997536000      0.4968166032
 G 1 
   1       1.0024600000     -1.0000000000
  end;

 # Auxiliary/J basis set for element : O 
 NewAuxJGTO O 
 S 7 
   1    2876.8216605000      0.0168151159
   2    1004.7443032000      0.0340137548
   3     369.7579954000      0.1194951309
   4     142.9442404000      0.2664627624
   5      57.8366425000      0.4202764046
   6      24.3864983000      0.2765077335
   7      10.6622662000      0.0057008815
 S 1 
   1       4.8070437000     -1.0000000000
 S 1 
   1       2.2210770000      1.0000000000
 S 1 
   1       1.0447795000      1.0000000000
 S 1 
   1       0.4968425000      1.0000000000
 S 1 
   1       0.2371384000      1.0000000000
 P 2 
   1      64.2613382000     -0.2731534179
   2      16.3006076000     -0.8168011598
 P 1 
   1       4.3550542000      1.0000000000
 P 1 
   1       1.2019554000      1.0000000000
 P 1 
   1       0.3354196000      1.0000000000
 D 2 
   1       9.2146611000     -0.4661230638
   2       2.8435251000     -0.6600908911
 D 1 
   1       0.9955759000     -1.0000000000
 D 1 
   1       0.3649441000     -1.0000000000
 F 2 
   1       2.6420115000      0.5931563945
   2       0.7345613000      0.5931563945
 G 1 
   1       1.3931000000     -1.0000000000
  end;


Checking for AutoStart:
The File: inpJ.gbw exists
Trying to determine its content:
     ... Fine, the file contains calculation information
     ... Fine, the calculation information was read
     ... Fine, the file contains a basis set
     ... Fine, the basis set was read
     ... Fine, the file contains a geometry
     ... Fine, the geometry was read
     ... Fine, the file contains a set of orbitals
     ... Fine, the orbitals can be read
     => possible old guess file was deleted
     => GBW file was renamed to GES file
     => GES file is set as startup file
     => Guess is set to MORead
     ... now leaving AutoStart



           ************************************************************
           *        Program running with 4 parallel MPI-processes     *
           *              working on a common directory               *
           ************************************************************
------------------------------------------------------------------------------
                             ORCA STARTUP CALCULATIONS
                           -- RI-GTO INTEGRALS CHOSEN --
------------------------------------------------------------------------------
------------------------------------------------------------------------------
                   ___                                                        
                  /   \      - P O W E R E D   B Y -                         
                 /     \                                                     
                 |  |  |   _    _      __       _____    __    __             
                 |  |  |  | |  | |    /  \     |  _  \  |  |  /  |          
                  \  \/   | |  | |   /    \    | | | |  |  | /  /          
                 / \  \   | |__| |  /  /\  \   | |_| |  |  |/  /          
                |  |  |   |  __  | /  /__\  \  |    /   |      \           
                |  |  |   | |  | | |   __   |  |    \   |  |\   \          
                \     /   | |  | | |  |  |  |  | |\  \  |  | \   \       
                 \___/    |_|  |_| |__|  |__|  |_| \__\ |__|  \__/        
                                                                              
                      - O R C A' S   B I G   F R I E N D -                    
                                      &                                       
                       - I N T E G R A L  F E E D E R -                       
                                                                              
 v1 FN, 2020, v2 2021, v3 2022-2024                                           
------------------------------------------------------------------------------


----------------------
SHARK INTEGRAL PACKAGE
----------------------

Number of atoms                             ...     73
Number of basis functions                   ...    509
Number of shells                            ...    335
Maximum angular momentum                    ...      1
Integral batch strategy                     ... SHARK/LIBINT Hybrid
RI-J (if used) integral strategy            ... SPLIT-RIJ (Revised 2003 algorithm where possible)
Printlevel                                  ...      1
Contraction scheme used                     ... SEGMENTED contraction
Prescreening option                         ... SCHWARTZ
   Thresh                                   ... 3.000e-11
   Tcut                                     ... 1.000e-12
   Tpresel                                  ... 1.000e-12 
Coulomb Range Separation                    ... NOT USED
Exchange Range Separation                   ... NOT USED
Multipole approximations                    ... NOT USED
Finite Nucleus Model                        ... NOT USED
CABS basis                                  ... NOT available
Auxiliary Coulomb fitting basis             ... AVAILABLE
   # of basis functions in Aux-J            ...   1905
   # of shells in Aux-J                     ...    655
   Maximum angular momentum in Aux-J        ...      4
Auxiliary J/K fitting basis                 ... NOT available
Auxiliary Correlation fitting basis         ... NOT available
Auxiliary 'external' fitting basis          ... NOT available

Checking pre-screening integrals            ... done (  0.0 sec) Dimension = 335
Check shell pair data                       ... done (  0.0 sec)
Shell pair information
Shell pair cut-off parameter TPreSel        ...   1.0e-12
Total number of shell pairs                 ...     56280
Shell pairs after pre-screening             ...     22068
Total number of primitive shell pairs       ...    145865
Primitive shell pairs kept                  ...     37834
          la=0 lb=0:  11121 shell pairs
          la=1 lb=0:   9062 shell pairs
          la=1 lb=1:   1885 shell pairs

Calculating one electron integrals          ... done (  0.0 sec)
Calculating RI/J V-Matrix + Cholesky decomp.... done (  0.2 sec)
Calculating Nuclear repulsion               ... done (  0.0 sec) ENN=   2788.212302160256 Eh

Diagonalization of the overlap matrix:
Smallest eigenvalue                        ... 7.549e-03
Time for diagonalization                   ...    0.026 sec
Threshold for overlap eigenvalues          ... 1.000e-07
Number of eigenvalues below threshold      ... 0
Time for construction of square roots      ...    0.012 sec
Total time needed                          ...    0.040 sec

-------------------
DFT GRID GENERATION
-------------------

General Integration Accuracy     IntAcc      ... 4.388
Radial Grid Type                 RadialGrid  ... OptM3 with GC (2021)
Angular Grid (max. ang.)         AngularGrid ... 4 (Lebedev-302)
Angular grid pruning method      GridPruning ... 4 (adaptive)
Weight generation scheme         WeightScheme... mBecke (2022)
Basis function cutoff            BFCut       ... 1.0000e-11
Integration weight cutoff        WCut        ... 1.0000e-14
Partially contracted basis set               ... off
Rotationally invariant grid construction     ... off
Angular grids for H and He will be reduced by one unit

Total number of grid points                  ...   309829
Total number of batches                      ...     4877
Average number of points per batch           ...       63
Average number of grid points per atom       ...     4244

--------------------
COSX GRID GENERATION
--------------------

GRIDX 1
-------
General Integration Accuracy     IntAcc      ... 3.816
Radial Grid Type                 RadialGrid  ... OptM3 with GC (2021)
Angular Grid (max. ang.)         AngularGrid ... 1 (Lebedev-50)
Angular grid pruning method      GridPruning ... 4 (adaptive)
Weight generation scheme         WeightScheme... mBecke (2022)
Basis function cutoff            BFCut       ... 1.0000e-11
Integration weight cutoff        WCut        ... 1.0000e-14
Partially contracted basis set               ... on
Rotationally invariant grid construction     ... off
Angular grids for H and He will be reduced by one unit

Total number of grid points                  ...    39379
Total number of batches                      ...      351
Average number of points per batch           ...      112
Average number of grid points per atom       ...      539
UseSFitting                                  ... on

GRIDX 2
-------
General Integration Accuracy     IntAcc      ... 4.020
Radial Grid Type                 RadialGrid  ... OptM3 with GC (2021)
Angular Grid (max. ang.)         AngularGrid ... 2 (Lebedev-110)
Angular grid pruning method      GridPruning ... 4 (adaptive)
Weight generation scheme         WeightScheme... mBecke (2022)
Basis function cutoff            BFCut       ... 1.0000e-11
Integration weight cutoff        WCut        ... 1.0000e-14
Partially contracted basis set               ... on
Rotationally invariant grid construction     ... off
Angular grids for H and He will be reduced by one unit

Total number of grid points                  ...    81357
Total number of batches                      ...      677
Average number of points per batch           ...      120
Average number of grid points per atom       ...     1114
UseSFitting                                  ... on

GRIDX 3
-------
General Integration Accuracy     IntAcc      ... 4.338
Radial Grid Type                 RadialGrid  ... OptM3 with GC (2021)
Angular Grid (max. ang.)         AngularGrid ... 3 (Lebedev-194)
Angular grid pruning method      GridPruning ... 4 (adaptive)
Weight generation scheme         WeightScheme... mBecke (2022)
Basis function cutoff            BFCut       ... 1.0000e-11
Integration weight cutoff        WCut        ... 1.0000e-14
Partially contracted basis set               ... on
Rotationally invariant grid construction     ... off
Angular grids for H and He will be reduced by one unit

Total number of grid points                  ...   176249
Total number of batches                      ...     1416
Average number of points per batch           ...      124
Average number of grid points per atom       ...     2414
UseSFitting                                  ... on
Initializing property integral containers    ... done (  0.0 sec)

SHARK setup successfully completed in   3.7 seconds

Maximum memory used throughout the entire STARTUP-calculation: 85.5 MB


           ************************************************************
           *        Program running with 4 parallel MPI-processes     *
           *              working on a common directory               *
           ************************************************************
-------------------------------------------------------------------------------
                                 ORCA GUESS
                   Start orbitals & Density for SCF / CASSCF
-------------------------------------------------------------------------------

------------
SCF SETTINGS
------------
Hamiltonian:
 Density Functional     Method          .... DFT(GTOs)
 Exchange Functional    Exchange        .... PBE
   PBE kappa parameter   XKappa         ....  0.804000
   PBE mue parameter    XMuePBE         ....  0.219520
 Correlation Functional Correlation     .... PBE
   PBE beta parameter  CBetaPBE         ....  0.066725
 LDA part of GGA corr.  LDAOpt          .... PW91-LDA
 Gradients option       PostSCFGGA      .... off
 Hybrid DFT is turned on
   Fraction HF Exchange ScalHFX         ....  0.250000
   Scaling of DF-GGA-X  ScalDFX         ....  0.750000
   Scaling of DF-GGA-C  ScalDFC         ....  1.000000
   Scaling of DF-LDA-C  ScalLDAC        ....  1.000000
   Perturbative correction              ....  0.000000
   NL short-range parameter             ....  6.900000
 RI-approximation to the Coulomb term is turned on
   Number of AuxJ basis functions       .... 1905
   RIJ-COSX (HFX calculated with COS-X)).... on


General Settings:
 Integral files         IntName         .... inpJ
 Hartree-Fock type      HFTyp           .... RHF
 Total Charge           Charge          ....    0
 Multiplicity           Mult            ....    1
 Number of Electrons    NEL             ....  220
 Basis Dimension        Dim             ....  509
 Nuclear Repulsion      ENuc            ....   2788.2123021603 Eh

Convergence Acceleration:
 AO-DIIS                CNVDIIS         .... on
   Start iteration      DIISMaxIt       ....    12
   Startup error        DIISStart       ....  0.200000
   # of expansion vecs  DIISMaxEq       ....     5
   Bias factor          DIISBfac        ....   1.050
   Max. coefficient     DIISMaxC        ....  10.000
 MO-DIIS                CNVKDIIS        .... off
 Trust-Rad. Augm. Hess. CNVTRAH         .... auto
   Auto Start mean grad. ratio tolernc. ....  1.125000
   Auto Start start iteration           ....     1
   Auto Start num. interpolation iter.  ....    10
   Max. Number of Micro iterations      ....    24
   Max. Number of Macro iterations      .... Maxiter - #DIIS iter
   Number of Davidson start vectors     ....     2
   Converg. threshold    (grad. norm)   ....   1.000e-04
   Grad. Scal. Fac. for Micro threshold ....   0.100
   Minimum threshold for Micro iter.    ....   1.000e-02
   NR start threshold (gradient norm)   ....   1.000e-04
   Initial trust radius                 ....   0.400
   Minimum AH scaling param. (alpha)    ....   1.000
   Maximum AH scaling param. (alpha)    .... 1000.000
   Quad. conv. algorithm                .... NR
   White noise on init. David. guess    .... on
   Maximum white noise                  ....   0.010
   Pseudo random numbers                .... off
   Inactive MOs                         .... canonical
   Orbital update algorithm             .... Taylor
   Preconditioner                       .... Diag
   Full preconditioner red. dimension   ....   250
 SOSCF                  CNVSOSCF        .... off
 Level Shifting         CNVShift        .... on
   Level shift para.    LevelShift      ....    0.2500
   Turn off err/grad.   ShiftErr        ....    0.0010
 Zerner damping         CNVZerner       .... off
 Static damping         CNVDamp         .... on
   Fraction old density DampFac         ....    0.7000
   Max. Damping (<1)    DampMax         ....    0.9800
   Min. Damping (>=0)   DampMin         ....    0.0000
   Turn off err/grad.   DampErr         ....    0.1000

SCF Procedure:
 Maximum # iterations   MaxIter         ....   125
 SCF integral mode      SCFMode         .... Direct
   Integral package                     .... SHARK and LIBINT hybrid scheme
 Reset frequency        DirectResetFreq ....    20
 Integral Threshold     Thresh          ....  3.000e-11 Eh
 Primitive CutOff       TCut            ....  1.000e-12 Eh

Convergence Tolerance:
 Convergence Check Mode ConvCheckMode   .... Total+1el-Energy
 Convergence forced     ConvForced      .... 0
 Energy Change          TolE            ....  1.000e-07 Eh
 1-El. energy change                    ....  1.000e-04 Eh
 DIIS Error             TolErr          ....  1.000e-07

---------------------
INITIAL GUESS: MOREAD
---------------------
Guess MOs are being read from file: inpJ.ges
Input Geometry matches current geometry (good)
Input basis set matches current basis set (good)
Occupation numbers will be reassigned to an Aufbau configuration
MOs were renormalized
MOs were reorthogonalized (Cholesky)
                      ------------------
                      INITIAL GUESS DONE (   0.1 sec)
                      ------------------
             **** ENERGY FILE WAS UPDATED (inpJ.en.tmp) ****
Finished Guess after   0.2 sec
Maximum memory used throughout the entire GUESS-calculation: 36.9 MB


           ************************************************************
           *        Program running with 4 parallel MPI-processes     *
           *              working on a common directory               *
           ************************************************************

-------------------------------------------------------------------------------------------
                                      ORCA LEAN-SCF
                              memory conserving SCF solver
-------------------------------------------------------------------------------------------

--------------------
CPCM SOLVATION MODEL
--------------------
CPCM parameters:
  Epsilon                                         ...       4.8030
  Refrac                                          ...       1.4459
  Rsolv                                           ...       1.3000
  Surface type                                    ... GAUSSIAN VDW
  Discretization scheme                           ... Constant charge density
    Threshold for H atoms                         ...       5.0000 (charges/Ang^2)
    Threshold for non-H atoms                     ...       5.0000 (charges/Ang^2)
  Epsilon function type                           ...         CPCM
Solvent:                                          ... CHLOROFORM
Radii:
  Scheme                                          ... Element-dependent radii
  Radius for C  used is    3.8550 Bohr (=   2.0400 Ang.)
  Radius for H  used is    2.4944 Bohr (=   1.3200 Ang.)
  Radius for O  used is    3.4469 Bohr (=   1.8240 Ang.)
Calculating surface                               ...        done! (  0.0s)
Cavity surface points                             ...         5418
Cavity Volume                                     ...    3617.9771
Cavity Surface-area                               ...    1801.2164
Calculating surface distance matrix               ...        done! (  0.3s)
Performing Cholesky decomposition & store         ...        done! (  1.3s)
Overall time for CPCM initialization              ...                 1.6s

----------------------------------------D-I-I-S--------------------------------------------
Iteration    Energy (Eh)           Delta-E    RMSDP     MaxDP     DIISErr   Damp  Time(sec)
-------------------------------------------------------------------------------------------
               ***  Starting incremental Fock matrix formation  ***
    1    -1165.5097576601629044     0.00e+00  4.39e-08  6.00e-06  8.20e-06  0.700   6.2

  HOMO= 109 E= -5.920 eV LUMO=  5.982 eV gap=  11.903 eV
    2    -1165.5097576817684057    -2.16e-08  2.95e-08  3.57e-06  3.91e-06  0.700   2.1
                 **** Energy Check signals convergence ****

  HOMO= 109 E= -5.920 eV LUMO=  5.982 eV gap=  11.903 eV

               *****************************************************
               *                     SUCCESS                       *
               *           SCF CONVERGED AFTER   2 CYCLES          *
               *****************************************************

Recomputing exchange energy using gridx3       ... done (    8.263 sec)
Old exchange energy                            :    -42.067833720 Eh
New exchange energy                            :    -42.067884223 Eh
Exchange energy change after final integration :     -0.000050503 Eh
Total energy after final integration           :  -1165.509808184 Eh
             **** ENERGY FILE WAS UPDATED (inpJ.en.tmp) ****

----------------
TOTAL SCF ENERGY
----------------

Total Energy       :      -1165.50980818433868 Eh          -31715.13425 eV

Components:
Nuclear Repulsion  :       2788.21230216025606 Eh           75871.11395 eV
Electronic Energy  :      -3953.70671583258900 Eh         -107585.82930 eV
One Electron Energy:      -7118.52731502618462 Eh         -193704.97601 eV
Two Electron Energy:       3164.82059919359563 Eh           86119.14672 eV
CPCM Dielectric    :         -0.01534400943545 Eh              -0.41753 eV

Virial components:
Potential Energy   :      -2322.41518500350776 Eh          -63196.13001 eV
Kinetic Energy     :       1156.90537681916931 Eh           31480.99577 eV
Virial Ratio       :          2.00743745472843

DFT components:
N(Alpha)           :      110.000239096584 electrons
N(Beta)            :      110.000239096584 electrons
N(Total)           :      220.000478193167 electrons
E(X)               :     -125.746540161151 Eh       
E(C)               :       -7.326624890826 Eh       
E(XC)              :     -133.073165051978 Eh       

CPCM Solvation Model Properties:
Surface-charge          :         -0.03294575040967
Corrected charge        :          0.00000000000000
Outlying charge corr.   :          0.00003819461747 Eh               0.00104 eV
Free-energy (cav+disp)  :  This term is not implemented in the current solvation scheme

---------------
SCF CONVERGENCE
---------------

  Last Energy change         ...    2.1606e-08  Tolerance :   1.0000e-07
  Last MAX-Density change    ...    3.5686e-06  Tolerance :   1.0000e-05
  Last RMS-Density change    ...    2.9490e-08  Tolerance :   1.0000e-06
  Last DIIS Error            ...    3.9051e-06  Tolerance :   1.0000e-07


----------------
ORBITAL ENERGIES
----------------

  NO   OCC          E(Eh)            E(eV) 
   0   2.0000     -19.215136      -522.8704 
   1   2.0000     -10.301392      -280.3151 
   2   2.0000     -10.269525      -279.4480 
   3   2.0000     -10.266811      -279.3741 
   4   2.0000     -10.261778      -279.2372 
   5   2.0000     -10.256138      -279.0837 
   6   2.0000     -10.253479      -279.0113 
   7   2.0000     -10.251089      -278.9463 
   8   2.0000     -10.249480      -278.9025 
   9   2.0000     -10.249395      -278.9002 
  10   2.0000     -10.249249      -278.8962 
  11   2.0000     -10.246110      -278.8108 
  12   2.0000     -10.245212      -278.7864 
  13   2.0000     -10.244581      -278.7692 
  14   2.0000     -10.243908      -278.7509 
  15   2.0000     -10.243216      -278.7321 
  16   2.0000     -10.243050      -278.7276 
  17   2.0000     -10.242272      -278.7064 
  18   2.0000     -10.242011      -278.6993 
  19   2.0000     -10.241105      -278.6746 
  20   2.0000     -10.239205      -278.6229 
  21   2.0000     -10.233755      -278.4746 
  22   2.0000     -10.233668      -278.4723 
  23   2.0000     -10.232312      -278.4354 
  24   2.0000     -10.225567      -278.2518 
  25   2.0000     -10.225303      -278.2446 
  26   2.0000     -10.225091      -278.2389 
  27   2.0000     -10.221889      -278.1517 
  28   2.0000     -10.220269      -278.1077 
  29   2.0000      -1.045887       -28.4600 
  30   2.0000      -0.900582       -24.5061 
  31   2.0000      -0.883674       -24.0460 
  32   2.0000      -0.859862       -23.3980 
  33   2.0000      -0.845600       -23.0100 
  34   2.0000      -0.822093       -22.3703 
  35   2.0000      -0.813686       -22.1415 
  36   2.0000      -0.794987       -21.6327 
  37   2.0000      -0.794779       -21.6270 
  38   2.0000      -0.776874       -21.1398 
  39   2.0000      -0.757422       -20.6105 
  40   2.0000      -0.739684       -20.1278 
  41   2.0000      -0.733505       -19.9597 
  42   2.0000      -0.713554       -19.4168 
  43   2.0000      -0.702971       -19.1288 
  44   2.0000      -0.699047       -19.0220 
  45   2.0000      -0.693379       -18.8678 
  46   2.0000      -0.668942       -18.2028 
  47   2.0000      -0.662640       -18.0313 
  48   2.0000      -0.632040       -17.1987 
  49   2.0000      -0.621726       -16.9180 
  50   2.0000      -0.619424       -16.8554 
  51   2.0000      -0.606859       -16.5135 
  52   2.0000      -0.596612       -16.2346 
  53   2.0000      -0.584943       -15.9171 
  54   2.0000      -0.558751       -15.2044 
  55   2.0000      -0.546878       -14.8813 
  56   2.0000      -0.538619       -14.6566 
  57   2.0000      -0.529727       -14.4146 
  58   2.0000      -0.515061       -14.0155 
  59   2.0000      -0.506310       -13.7774 
  60   2.0000      -0.496506       -13.5106 
  61   2.0000      -0.487391       -13.2626 
  62   2.0000      -0.485626       -13.2146 
  63   2.0000      -0.479972       -13.0607 
  64   2.0000      -0.475877       -12.9493 
  65   2.0000      -0.468657       -12.7528 
  66   2.0000      -0.465896       -12.6777 
  67   2.0000      -0.458576       -12.4785 
  68   2.0000      -0.456965       -12.4347 
  69   2.0000      -0.451531       -12.2868 
  70   2.0000      -0.448202       -12.1962 
  71   2.0000      -0.442094       -12.0300 
  72   2.0000      -0.436120       -11.8674 
  73   2.0000      -0.430869       -11.7245 
  74   2.0000      -0.430455       -11.7133 
  75   2.0000      -0.422217       -11.4891 
  76   2.0000      -0.415487       -11.3060 
  77   2.0000      -0.413954       -11.2643 
  78   2.0000      -0.407303       -11.0833 
  79   2.0000      -0.404925       -11.0186 
  80   2.0000      -0.402032       -10.9399 
  81   2.0000      -0.397280       -10.8105 
  82   2.0000      -0.396397       -10.7865 
  83   2.0000      -0.388875       -10.5818 
  84   2.0000      -0.387659       -10.5487 
  85   2.0000      -0.382333       -10.4038 
  86   2.0000      -0.377634       -10.2759 
  87   2.0000      -0.370086       -10.0706 
  88   2.0000      -0.367358        -9.9963 
  89   2.0000      -0.365170        -9.9368 
  90   2.0000      -0.364210        -9.9107 
  91   2.0000      -0.358838        -9.7645 
  92   2.0000      -0.351068        -9.5531 
  93   2.0000      -0.342554        -9.3214 
  94   2.0000      -0.341257        -9.2861 
  95   2.0000      -0.339628        -9.2418 
  96   2.0000      -0.336418        -9.1544 
  97   2.0000      -0.332602        -9.0506 
  98   2.0000      -0.331898        -9.0314 
  99   2.0000      -0.329383        -8.9630 
 100   2.0000      -0.326171        -8.8756 
 101   2.0000      -0.324315        -8.8251 
 102   2.0000      -0.316195        -8.6041 
 103   2.0000      -0.316033        -8.5997 
 104   2.0000      -0.311436        -8.4746 
 105   2.0000      -0.299462        -8.1488 
 106   2.0000      -0.280035        -7.6201 
 107   2.0000      -0.274788        -7.4774 
 108   2.0000      -0.256345        -6.9755 
 109   2.0000      -0.217569        -5.9203 
 110   0.0000      -0.030157        -0.8206 
 111   0.0000       0.021224         0.5775 
 112   0.0000       0.028057         0.7635 
 113   0.0000       0.080180         2.1818 
 114   0.0000       0.089816         2.4440 
 115   0.0000       0.101731         2.7682 
 116   0.0000       0.105359         2.8670 
 117   0.0000       0.107698         2.9306 
 118   0.0000       0.111461         3.0330 
 119   0.0000       0.115800         3.1511 
 120   0.0000       0.118161         3.2153 
*Only the first 10 virtual orbitals were printed.

                    ********************************
                    * MULLIKEN POPULATION ANALYSIS *
                    ********************************

-----------------------
MULLIKEN ATOMIC CHARGES
-----------------------
   0 C :    0.107545
   1 C :   -0.499881
   2 C :   -0.054924
   3 H :    0.207236
   4 H :    0.222172
   5 C :    0.135569
   6 C :   -0.475650
   7 C :   -0.451676
   8 H :    0.214214
   9 H :    0.224077
  10 H :    0.229093
  11 H :    0.204636
  12 O :   -0.487360
  13 H :    0.233906
  14 C :   -0.283405
  15 C :   -0.516730
  16 H :    0.201339
  17 H :    0.196767
  18 C :   -0.259874
  19 H :    0.217573
  20 C :    0.151016
  21 H :    0.219447
  22 C :   -0.480142
  23 C :   -0.427258
  24 H :    0.211590
  25 H :    0.206460
  26 C :   -0.397207
  27 H :    0.208100
  28 H :    0.216780
  29 C :    0.003043
  30 H :    0.221362
  31 H :    0.194095
  32 C :   -0.228992
  33 H :    0.226744
  34 C :   -0.434255
  35 H :    0.343157
  36 C :   -0.417852
  37 H :    0.207052
  38 H :    0.198031
  39 C :   -0.186601
  40 H :    0.209300
  41 H :    0.207695
  42 H :    0.209556
  43 C :   -0.250174
  44 C :   -0.626875
  45 H :    0.208454
  46 H :    0.200111
  47 H :    0.205312
  48 H :    0.218229
  49 C :   -0.619155
  50 C :   -0.179426
  51 C :   -0.184266
  52 H :    0.212491
  53 H :    0.213660
  54 C :   -0.230484
  55 C :   -0.629730
  56 C :   -0.201257
  57 H :    0.223388
  58 H :    0.220215
  59 C :   -0.620527
  60 C :   -0.611578
  61 H :    0.203057
  62 H :    0.197248
  63 H :    0.205471
  64 H :    0.200455
  65 H :    0.205232
  66 H :    0.203804
  67 H :    0.198234
  68 H :    0.201016
  69 H :    0.205154
  70 H :    0.202424
  71 H :    0.210872
  72 H :    0.192899
Sum of atomic charges:    0.0000000

--------------------------------
MULLIKEN REDUCED ORBITAL CHARGES
--------------------------------
  0 C s       :     3.355846  s :     3.355846
      pz      :     1.008725  p :     2.536609
      px      :     0.795298
      py      :     0.732586

  1 C s       :     3.383641  s :     3.383641
      pz      :     1.022272  p :     3.116240
      px      :     0.947783
      py      :     1.146184

  2 C s       :     3.306284  s :     3.306284
      pz      :     1.061481  p :     2.748640
      px      :     0.794898
      py      :     0.892261

  3 H s       :     0.792764  s :     0.792764

  4 H s       :     0.777828  s :     0.777828

  5 C s       :     3.345260  s :     3.345260
      pz      :     0.823519  p :     2.519171
      px      :     0.940601
      py      :     0.755052

  6 C s       :     3.368290  s :     3.368290
      pz      :     1.032224  p :     3.107360
      px      :     0.947744
      py      :     1.127393

  7 C s       :     3.340458  s :     3.340458
      pz      :     1.188934  p :     3.111218
      px      :     0.987889
      py      :     0.934395

  8 H s       :     0.785786  s :     0.785786

  9 H s       :     0.775923  s :     0.775923

 10 H s       :     0.770907  s :     0.770907

 11 H s       :     0.795364  s :     0.795364

 12 O s       :     3.685508  s :     3.685508
      pz      :     1.648711  p :     4.801852
      px      :     1.280989
      py      :     1.872152

 13 H s       :     0.766094  s :     0.766094

 14 C s       :     3.392561  s :     3.392561
      pz      :     1.008346  p :     2.890844
      px      :     0.807228
      py      :     1.075271

 15 C s       :     3.386841  s :     3.386841
      pz      :     0.996708  p :     3.129890
      px      :     1.012031
      py      :     1.121151

 16 H s       :     0.798661  s :     0.798661

 17 H s       :     0.803233  s :     0.803233

 18 C s       :     3.396700  s :     3.396700
      pz      :     1.030060  p :     2.863174
      px      :     0.756369
      py      :     1.076745

 19 H s       :     0.782427  s :     0.782427

 20 C s       :     3.350572  s :     3.350572
      pz      :     0.956291  p :     2.498412
      px      :     0.753404
      py      :     0.788717

 21 H s       :     0.780553  s :     0.780553

 22 C s       :     3.372554  s :     3.372554
      pz      :     1.098461  p :     3.107588
      px      :     1.123286
      py      :     0.885842

 23 C s       :     3.327103  s :     3.327103
      pz      :     1.089019  p :     3.100155
      px      :     0.897452
      py      :     1.113684

 24 H s       :     0.788410  s :     0.788410

 25 H s       :     0.793540  s :     0.793540

 26 C s       :     3.349660  s :     3.349660
      pz      :     1.177407  p :     3.047546
      px      :     0.957076
      py      :     0.913063

 27 H s       :     0.791900  s :     0.791900

 28 H s       :     0.783220  s :     0.783220

 29 C s       :     3.317547  s :     3.317547
      pz      :     0.867818  p :     2.679410
      px      :     0.905967
      py      :     0.905625

 30 H s       :     0.778638  s :     0.778638

 31 H s       :     0.805905  s :     0.805905

 32 C s       :     3.362707  s :     3.362707
      pz      :     1.070319  p :     2.866285
      px      :     0.868935
      py      :     0.927030

 33 H s       :     0.773256  s :     0.773256

 34 C s       :     3.344379  s :     3.344379
      pz      :     1.187866  p :     3.089875
      px      :     0.935549
      py      :     0.966461

 35 H s       :     0.656843  s :     0.656843

 36 C s       :     3.337796  s :     3.337796
      pz      :     1.163723  p :     3.080056
      px      :     0.940368
      py      :     0.975964

 37 H s       :     0.792948  s :     0.792948

 38 H s       :     0.801969  s :     0.801969

 39 C s       :     3.337378  s :     3.337378
      pz      :     1.054679  p :     2.849224
      px      :     0.864320
      py      :     0.930225

 40 H s       :     0.790700  s :     0.790700

 41 H s       :     0.792305  s :     0.792305

 42 H s       :     0.790444  s :     0.790444

 43 C s       :     3.345378  s :     3.345378
      pz      :     1.069820  p :     2.904796
      px      :     0.881768
      py      :     0.953207

 44 C s       :     3.366048  s :     3.366048
      pz      :     0.961160  p :     3.260827
      px      :     1.157560
      py      :     1.142107

 45 H s       :     0.791546  s :     0.791546

 46 H s       :     0.799889  s :     0.799889

 47 H s       :     0.794688  s :     0.794688

 48 H s       :     0.781771  s :     0.781771

 49 C s       :     3.347249  s :     3.347249
      pz      :     1.144773  p :     3.271906
      px      :     1.155627
      py      :     0.971506

 50 C s       :     3.339782  s :     3.339782
      pz      :     1.047267  p :     2.839644
      px      :     0.897054
      py      :     0.895324

 51 C s       :     3.347153  s :     3.347153
      pz      :     1.057185  p :     2.837114
      px      :     0.890932
      py      :     0.888996

 52 H s       :     0.787509  s :     0.787509

 53 H s       :     0.786340  s :     0.786340

 54 C s       :     3.341257  s :     3.341257
      pz      :     1.017257  p :     2.889227
      px      :     0.994770
      py      :     0.877201

 55 C s       :     3.346973  s :     3.346973
      pz      :     1.019623  p :     3.282757
      px      :     1.134715
      py      :     1.128419

 56 C s       :     3.312320  s :     3.312320
      pz      :     0.910968  p :     2.888937
      px      :     1.062287
      py      :     0.915682

 57 H s       :     0.776612  s :     0.776612

 58 H s       :     0.779785  s :     0.779785

 59 C s       :     3.345306  s :     3.345306
      pz      :     1.067081  p :     3.275221
      px      :     1.053550
      py      :     1.154589

 60 C s       :     3.340985  s :     3.340985
      pz      :     1.005270  p :     3.270593
      px      :     1.151407
      py      :     1.113916

 61 H s       :     0.796943  s :     0.796943

 62 H s       :     0.802752  s :     0.802752

 63 H s       :     0.794529  s :     0.794529

 64 H s       :     0.799545  s :     0.799545

 65 H s       :     0.794768  s :     0.794768

 66 H s       :     0.796196  s :     0.796196

 67 H s       :     0.801766  s :     0.801766

 68 H s       :     0.798984  s :     0.798984

 69 H s       :     0.794846  s :     0.794846

 70 H s       :     0.797576  s :     0.797576

 71 H s       :     0.789128  s :     0.789128

 72 H s       :     0.807101  s :     0.807101


------------------------
MULLIKEN OVERLAP CHARGES
------------------------
B(  0-C ,  1-C ) :   0.4961 B(  0-C ,  2-C ) :  -0.1307 B(  0-C ,  3-H ) :  -0.0877 
B(  0-C ,  4-H ) :  -0.0673 B(  0-C ,  5-C ) :   0.4214 B(  0-C ,  6-C ) :  -0.1564 
B(  0-C , 14-C ) :   0.9464 B(  0-C , 15-C ) :  -0.2026 B(  0-C , 18-C ) :  -0.1836 
B(  0-C , 19-H ) :  -0.0750 B(  1-C ,  2-C ) :   0.5269 B(  1-C ,  3-H ) :   0.7958 
B(  1-C ,  4-H ) :   0.8136 B(  1-C ,  5-C ) :  -0.1484 B(  1-C ,  7-C ) :  -0.1690 
B(  1-C , 12-O ) :  -0.0832 B(  1-C , 13-H ) :  -0.0844 B(  1-C , 14-C ) :  -0.1078 
B(  2-C ,  3-H ) :  -0.0820 B(  2-C ,  4-H ) :  -0.0581 B(  2-C ,  6-C ) :  -0.1288 
B(  2-C ,  7-C ) :   0.5343 B(  2-C , 10-H ) :  -0.0697 B(  2-C , 11-H ) :  -0.0825 
B(  2-C , 12-O ) :   0.6904 B(  2-C , 13-H ) :   0.7985 B(  2-C , 35-H ) :  -0.1132 
B(  5-C ,  6-C ) :   0.5390 B(  5-C ,  7-C ) :  -0.1712 B(  5-C ,  8-H ) :  -0.0881 
B(  5-C ,  9-H ) :  -0.0736 B(  5-C , 14-C ) :  -0.1963 B(  5-C , 15-C ) :   1.0583 
B(  5-C , 16-H ) :  -0.0995 B(  5-C , 17-H ) :  -0.0943 B(  6-C ,  7-C ) :   0.5411 
B(  6-C ,  8-H ) :   0.8037 B(  6-C ,  9-H ) :   0.8190 B(  6-C , 11-H ) :  -0.0738 
B(  6-C , 15-C ) :  -0.1290 B(  7-C ,  8-H ) :  -0.0769 B(  7-C , 10-H ) :   0.8058 
B(  7-C , 11-H ) :   0.7945 B(  7-C , 12-O ) :  -0.0901 B(  7-C , 13-H ) :  -0.0841 
B( 12-O , 35-H ) :   0.6599 B( 14-C , 18-C ) :   0.6127 B( 14-C , 19-H ) :   0.8252 
B( 14-C , 20-C ) :  -0.1952 B( 14-C , 21-H ) :  -0.0734 B( 15-C , 16-H ) :   0.8143 
B( 15-C , 17-H ) :   0.8069 B( 18-C , 19-H ) :  -0.0610 B( 18-C , 20-C ) :   0.9215 
B( 18-C , 21-H ) :   0.8316 B( 18-C , 22-C ) :  -0.1497 B( 18-C , 32-C ) :  -0.1483 
B( 20-C , 21-H ) :  -0.0846 B( 20-C , 22-C ) :   0.5325 B( 20-C , 23-C ) :  -0.1707 
B( 20-C , 24-H ) :  -0.0668 B( 20-C , 25-H ) :  -0.0930 B( 20-C , 29-C ) :  -0.1246 
B( 20-C , 32-C ) :   0.5177 B( 20-C , 33-H ) :  -0.0919 B( 20-C , 34-C ) :  -0.0986 
[...]
        0.0000         2.9596        0.0000
        0.0000         0.0000        2.9596

 Diagonalized JT*J matrix:
 
 J[55,60](FC)             2.960            2.960            2.960  iso=      2.960
                ---------------  ---------------  ---------------  ---------------
 J[55,60](Total)          2.960            2.960            2.960  iso=      2.960



-----------------------------------------------------------
 NUCLEUS A = C   56 NUCLEUS B = C   59 
 ( 13C  gnA =  1.405  13C  gnB =  1.405) r(AB) =     1.5296
-----------------------------------------------------------

Fermi-contact contribution to J (Hz):
       26.5310         0.0000        0.0000
        0.0000        26.5310        0.0000
        0.0000         0.0000       26.5310

Total spin-spin coupling tensor J (Hz):
       26.5310         0.0000        0.0000
        0.0000        26.5310        0.0000
        0.0000         0.0000       26.5310

 Diagonalized JT*J matrix:
 
 J[56,59](FC)            26.531           26.531           26.531  iso=     26.531
                ---------------  ---------------  ---------------  ---------------
 J[56,59](Total)         26.531           26.531           26.531  iso=     26.531



-----------------------------------------------------------
 NUCLEUS A = C   56 NUCLEUS B = C   60 
 ( 13C  gnA =  1.405  13C  gnB =  1.405) r(AB) =     1.5312
-----------------------------------------------------------

Fermi-contact contribution to J (Hz):
       26.7945         0.0000        0.0000
        0.0000        26.7945        0.0000
        0.0000         0.0000       26.7945

Total spin-spin coupling tensor J (Hz):
       26.7945         0.0000        0.0000
        0.0000        26.7945        0.0000
        0.0000         0.0000       26.7945

 Diagonalized JT*J matrix:
 
 J[56,60](FC)            26.794           26.794           26.794  iso=     26.794
                ---------------  ---------------  ---------------  ---------------
 J[56,60](Total)         26.794           26.794           26.794  iso=     26.794



-----------------------------------------------------------
 NUCLEUS A = C   59 NUCLEUS B = C   60 
 ( 13C  gnA =  1.405  13C  gnB =  1.405) r(AB) =     2.5114
-----------------------------------------------------------

Fermi-contact contribution to J (Hz):
       -0.8466         0.0000        0.0000
        0.0000        -0.8466        0.0000
        0.0000         0.0000       -0.8466

Total spin-spin coupling tensor J (Hz):
       -0.8466         0.0000        0.0000
        0.0000        -0.8466        0.0000
        0.0000         0.0000       -0.8466

 Diagonalized JT*J matrix:
 
 J[59,60](FC)            -0.847           -0.847           -0.847  iso=     -0.847
                ---------------  ---------------  ---------------  ---------------
 J[59,60](Total)         -0.847           -0.847           -0.847  iso=     -0.847



-----------------------------------------------------------------------------
                SUMMARY OF ISOTROPIC COUPLING CONSTANTS J (Hz)                
-----------------------------------------------------------------------------
                  0 C        1 C        2 C        5 C        6 C        7 C  
      0 C        0.000     32.402     -2.389     42.203     -0.176      0.888
      1 C       32.402      0.000     25.305     -1.184      0.382     -0.381
      2 C       -2.389     25.305      0.000      2.019     -1.361     25.807
      5 C       42.203     -1.184      2.019      0.000     30.990     -2.890
      6 C       -0.176      0.382     -1.361     30.990      0.000     23.055
      7 C        0.888     -0.381     25.807     -2.890     23.055      0.000
     14 C       70.204     -0.383      3.570     -3.178      2.743     -0.704
     15 C       -3.286      2.727     -0.837     64.292     -0.900      2.829
     18 C       -2.633      4.228     -1.075      3.288     -1.016      0.207
     20 C        6.948     -1.152      1.259     -1.504      0.783     -0.147
     22 C       -0.945      0.333     -0.381      0.446     -0.238      0.046
     23 C        0.792     -0.269      0.292     -0.331      0.189      0.000
     26 C       -0.077      0.030      0.000      0.041      0.000      0.000
     29 C        1.127     -0.361      0.000     -0.487      0.258      0.000
     32 C       -1.151      0.556     -0.415      0.514     -0.278      0.058
     34 C        0.021     -0.015      0.016     -0.017      0.009     -0.002
     36 C       -0.013      0.000      0.000      0.015     -0.009      0.000
     39 C       -0.078      0.000      0.000      0.033      0.000      0.000
     43 C        0.000      0.000      0.000      0.000      0.000      0.000
     44 C        0.006     -0.002      0.003     -0.005      0.003     -0.001
     49 C        0.000      0.000      0.000      0.000      0.000      0.000
     50 C        0.000      0.000      0.000      0.000      0.000      0.000
     51 C        0.000      0.000      0.000      0.000      0.000      0.000
     54 C        0.000      0.000      0.000      0.000      0.000      0.000
     55 C        0.000      0.000      0.000      0.000      0.000      0.000
     56 C        0.000      0.000      0.000      0.000      0.000      0.000
     59 C        0.000      0.000      0.000      0.000      0.000      0.000
     60 C        0.000      0.000      0.000      0.000      0.000      0.000
                 14 C       15 C       18 C       20 C       22 C       23 C  
      0 C       70.204     -3.286     -2.633      6.948     -0.945      0.792
      1 C       -0.383      2.727      4.228     -1.152      0.333     -0.269
      2 C        3.570     -0.837     -1.075      1.259     -0.381      0.292
      5 C       -3.178     64.292      3.288     -1.504      0.446     -0.331
      6 C        2.743     -0.900     -1.016      0.783     -0.238      0.189
      7 C       -0.704      2.829      0.207     -0.147      0.046      0.000
     14 C        0.000      3.063     54.449     -2.783      3.859     -0.888
     15 C        3.063      0.000     -1.122      1.070     -0.276      0.236
     18 C       54.449     -1.122      0.000     70.047     -2.166      2.468
     20 C       -2.783      1.070     70.047      0.000     32.221     -2.860
     22 C        3.859     -0.276     -2.166     32.221      0.000     24.464
     23 C       -0.888      0.236      2.468     -2.860     24.464      0.000
     26 C        0.115     -0.021     -0.366      1.020     -1.918     25.436
     29 C       -1.154      0.342      2.401     -2.361      1.102     -2.188
     32 C        4.411     -0.337     -1.315     36.927     -0.216      1.521
     34 C        0.067      0.004      2.468     -1.346      1.613     -0.252
     36 C        0.011     -0.014     -0.148      3.405      0.069      0.179
     39 C        0.264     -0.023     -0.043      2.894     -0.335      2.530
     43 C        0.013      0.000      0.300      0.192      0.001     -0.110
     44 C        0.004      0.002     -0.078      0.696     -0.134      0.621
     49 C        0.000      0.000     -0.010     -0.051      0.137      0.045
     50 C        0.000      0.000      0.025      0.132     -0.006      0.120
     51 C        0.000      0.000      0.017      0.049      0.001     -0.002
     54 C        0.000      0.000      0.000      0.000      0.000      0.000
     55 C        0.000      0.000      0.000      0.000      0.000      0.000
     56 C        0.000      0.000      0.000      0.000      0.000      0.000
     59 C        0.000      0.000      0.000      0.000      0.000      0.000
     60 C        0.000      0.000      0.000      0.000      0.000      0.000
                 26 C       29 C       32 C       34 C       36 C       39 C  
      0 C       -0.077      1.127     -1.151      0.021     -0.013     -0.078
      1 C        0.030     -0.361      0.556     -0.015      0.000      0.000
      2 C        0.000      0.000     -0.415      0.016      0.000      0.000
      5 C        0.041     -0.487      0.514     -0.017      0.015      0.033
      6 C        0.000      0.258     -0.278      0.009     -0.009      0.000
      7 C        0.000      0.000      0.058     -0.002      0.000      0.000
     14 C        0.115     -1.154      4.411      0.067      0.011      0.264
     15 C       -0.021      0.342     -0.337      0.004     -0.014     -0.023
     18 C       -0.366      2.401     -1.315      2.468     -0.148     -0.043
     20 C        1.020     -2.361     36.927     -1.346      3.405      2.894
     22 C       -1.918      1.102     -0.216      1.613      0.069     -0.335
     23 C       25.436     -2.188      1.521     -0.252      0.179      2.530
     26 C        0.000     27.817     -0.928      2.300      3.022     -0.608
     29 C       27.817      0.000     23.369      0.789      0.786     28.353
     32 C       -0.928     23.369      0.000     27.885      1.187      3.356
     34 C        2.300      0.789     27.885      0.000     25.910      0.203
     36 C        3.022      0.786      1.187     25.910      0.000     26.966
     39 C       -0.608     28.353      3.356      0.203     26.966      0.000
     43 C       -0.022     -0.620      2.694      1.828      0.404     28.843
     44 C       -0.567     27.263     -0.967      0.797      0.298     -1.171
     49 C        0.355      0.060     -0.032      0.047      3.261     -1.207
     50 C       -0.118      3.592     -0.088     -0.043      0.643     -1.820
     51 C       -0.023      0.238      0.123      0.071     -0.009      3.268
     54 C       -0.000      0.095     -0.018      0.000     -0.034     -0.492
     55 C       -0.000      0.005      0.000     -0.001     -0.002      0.015
     56 C        0.000      0.064      0.056     -0.001      0.089      0.838
     59 C        0.003      0.041      0.007      0.031      0.088      0.072
     60 C        0.000     -0.004     -0.001     -0.000     -0.004     -0.007
                 43 C       44 C       49 C       50 C       51 C       54 C  
      0 C        0.000      0.006      0.000      0.000      0.000      0.000
      1 C        0.000     -0.002      0.000      0.000      0.000      0.000
      2 C        0.000      0.003      0.000      0.000      0.000      0.000
      5 C        0.000     -0.005      0.000      0.000      0.000      0.000
      6 C        0.000      0.003      0.000      0.000      0.000      0.000
      7 C        0.000     -0.001      0.000      0.000      0.000      0.000
     14 C        0.013      0.004      0.000      0.000      0.000      0.000
     15 C        0.000      0.002      0.000      0.000      0.000      0.000
     18 C        0.300     -0.078     -0.010      0.025      0.017      0.000
     20 C        0.192      0.696     -0.051      0.132      0.049      0.000
     22 C        0.001     -0.134      0.137     -0.006      0.001      0.000
     23 C       -0.110      0.621      0.045      0.120     -0.002      0.000
     26 C       -0.022     -0.567      0.355     -0.118     -0.023     -0.000
     29 C       -0.620     27.263      0.060      3.592      0.238      0.095
     32 C        2.694     -0.967     -0.032     -0.088      0.123     -0.018
     34 C        1.828      0.797      0.047     -0.043      0.071      0.000
     36 C        0.404      0.298      3.261      0.643     -0.009     -0.034
     39 C       28.843     -1.171     -1.207     -1.820      3.268     -0.492
     43 C        0.000      1.452     25.891     36.217     -0.096      3.709
     44 C        1.452      0.000     -0.107     -0.165     -0.010     -0.002
     49 C       25.891     -0.107      0.000     -2.964      3.386     -0.797
     50 C       36.217     -0.165     -2.964      0.000     69.375     -1.686
     51 C       -0.096     -0.010      3.386     69.375      0.000     35.733
     54 C        3.709     -0.002     -0.797     -1.686     35.733      0.000
     55 C       -0.084      0.000      0.022      2.936     -1.622     28.067
     56 C       -0.676     -0.002      0.911      2.837     -2.788     25.224
     59 C        0.014     -0.002     -0.016     -0.108      1.017     -1.311
     60 C        0.005     -0.000     -0.005      0.009      1.245     -0.726
                 55 C       56 C       59 C       60 C  
      0 C        0.000      0.000      0.000      0.000
      1 C        0.000      0.000      0.000      0.000
      2 C        0.000      0.000      0.000      0.000
      5 C        0.000      0.000      0.000      0.000
      6 C        0.000      0.000      0.000      0.000
      7 C        0.000      0.000      0.000      0.000
     14 C        0.000      0.000      0.000      0.000
     15 C        0.000      0.000      0.000      0.000
     18 C        0.000      0.000      0.000      0.000
     20 C        0.000      0.000      0.000      0.000
     22 C        0.000      0.000      0.000      0.000
     23 C        0.000      0.000      0.000      0.000
     26 C       -0.000      0.000      0.003      0.000
     29 C        0.005      0.064      0.041     -0.004
     32 C        0.000      0.056      0.007     -0.001
     34 C       -0.001     -0.001      0.031     -0.000
     36 C       -0.002      0.089      0.088     -0.004
     39 C        0.015      0.838      0.072     -0.007
     43 C       -0.084     -0.676      0.014      0.005
     44 C        0.000     -0.002     -0.002     -0.000
     49 C        0.022      0.911     -0.016     -0.005
     50 C        2.936      2.837     -0.108      0.009
     51 C       -1.622     -2.788      1.017      1.245
     54 C       28.067     25.224     -1.311     -0.726
     55 C        0.000     -0.670      0.951      2.960
     56 C       -0.670      0.000     26.531     26.794
     59 C        0.951     26.531      0.000     -0.847
     60 C        2.960     26.794     -0.847      0.000

NMR spin-spin coupling calculation done in   0.3 sec 

Maximum memory used throughout the entire PROP-calculation: 34.4 MB

--------------------------------
SUGGESTED CITATIONS FOR THIS RUN
--------------------------------

Below you find a list of papers that are relevant to this ORCA run
We neither can nor want to force you to cite these papers, but we appreciate if you do
You receive ORCA, which is the product of decades of hard work by many enthusiastic individuals, for free
The only thing we kindly ask in return is that you cite our papers,
We deeply appreciate it, if you show your appreciation for ORCA by not just citing the generic ORCA reference.

Please note that relegating all ORCA citations to the supporting information does *not* help us.
SI sections are not indexed - citations you put there will not count into any citation statistics
But we need these citations in order to attract the funding resources that allow us to do what we are doing

Therefore, if you are a happy ORCA user, please consider citing a few of the papers listed below in the main body of your paper

In addition to the list printed below, the program has created the file inpJ.bibtex that contains the list in bibtex format
You can import this file easily into all common literature databanks and citation aid programs


List of essential papers. We consider these as the minimum necessary citations

  1. Neese,F.
     Software update: the ORCA program system, version 5.0
     WIRES Comput. Molec. Sci., 2022 12(1)e1606
     doi.org/10.1002/wcms.1606

List of papers to cite with high priority. The work reported in these papers was absolutely
necessary for this run to complete.
Our perspective: the developers of density functionals and basis sets usually get cited in chemistry papers
Good! But without the algorithms to do something with them, the functionals or basis sets would not do anything.
Hence, in our opinion, the algorithm design and method developments papers are equally worthy of getting cited

  1. Neese,F.
     An improvement of the resolution of the identity approximation for the formation of the Coulomb matrix
     J. Comp. Chem., 2003 24(14)1740-1747
     doi.org/10.1002/jcc.10318
  2. Neese,F.; Wennmohs,F.; Hansen,A.; Becker,U.
     Efficient, approximate and parallel Hartree-Fock and hybrid DFT calculations. A 'chain-of-spheres' algorithm for the Hartree-Fock exchange
     Chem. Phys., 2009 356(1-3)98-109
     doi.org/10.1016/j.chemphys.2008.10.036
  3. Stoychev,G.L.; Auer,A.A.; Izsak,R.; Neese,F.
     Self-Consistent Field Calculation of Nuclear Magnetic Resonance Chemical Shielding Constants Using Gauge-Including Atomic Orbitals and Approximate Two-Electron Integrals
     J. Chem. Theory Comput., 2018 14(2)619-637
     doi.org/10.1021/acs.jctc.7b01006
  4. Garcia-Rates,M.; Neese,F.
     Effect of the Solute Cavity on the Solvation Energy and its Derivatives within the Framework of the Gaussian Charge Scheme
     J. Comput. Chem., 2020 41 922-939
     doi.org/10.1002/jcc.26139
  5. Helmich-Paris,B.; de Souza,B.; Neese,F.; Izsák,R.
     An improved chain of spheres for exchange algorithm
     J. Chem. Phys., 2021 155 104109
     doi.org/doi: 10.1063/5.0058766.
  6. Neese,F.
     The SHARK Integral Generation and Digestion System
     J. Comp. Chem., 2022  1-16
     doi.org/10.1002/jcc.26942
  7. Grimme,S.; Bannwarth,C.; Dohm,S.; Hansen,A.; Pisarek,J.; Pracht,P.; Seibert,J.; Neese,F.
     Fully Automated Quantum-Chemistry-Based Computation of Spin-Spin-Coupled Nuclear Magnetic Resonance Spectra
     Angew. Chem., Int. Ed., 2017 56 14763-14769
     doi.org/10.1002/anie.201708266
  8. Caldeweyher,E.; Bannwarth,C.; Grimme,S.
     Extension of the D3 dispersion coefficient model
     J. Chem. Phys., 2017 147 034112-XXXX
     doi.org/10.1063/1.4993215
  9. Caldeweyher,E.; Ehlert,S.; Hansen,A.; Neugebauer,H.; Spicher,S.; Bannwarth,C.; Grimme,S.
     A generally applicable atomic-charge dependent London dispersion correction
     J. Chem. Phys., 2019 150 154122-XXXX
     doi.org/10.1063/1.5090222
 10. Caldeweyher,E.; Mewes,J.; Ehlert,S.; Grimme,S.
     Extension and evaluation of the D4 London-dispersion model for periodic systems
     Phys. Chem. Chem. Phys., 2020 22(16)8499-8512
     doi.org/10.1039/D0CP00502A

List of suggested additional citations. These are papers that are important in the 'surrounding' of 
of this run, or papers that preceded the highly important papers. If you like your results we are grateful for a citation.

  1. Izsak,R.; Neese,F.
     An overlap fitted chain of spheres exchange method
     J. Chem. Phys., 2011 135 144105
     doi.org/10.1063/1.3646921
  2. Izsak,R.; Hansen,A.; Neese,F.
     The resolution of identity and chain of spheres approximations for the LPNO-CCSD singles Fock term
     Molec. Phys., 2012 110 2413-2417
     doi.org/10.1080/00268976.2012.687466
  3. Neese,F.
     The ORCA program system
     WIRES Comput. Molec. Sci., 2012 2(1)73-78
     doi.org/10.1002/wcms.81
  4. Izsak,R.; Neese,F.; Klopper,W.
     Robust fitting techniques in the chain of spheres approximation to the Fock exchange: The role of the complementary space
     J. Chem. Phys., 2013 139 
     doi.org/10.1063/1.4819264
  5. Neese,F.
     Software update: the ORCA program system, version 4.0
     WIRES Comput. Molec. Sci., 2018 8(1)1-6
     doi.org/10.1002/wcms.1327
  6. Neese,F.; Wennmohs,F.; Becker,U.; Riplinger,C.
     The ORCA quantum chemistry program package
     J. Chem. Phys., 2020 152 Art. No. L224108
     doi.org/10.1063/5.0004608

Timings for individual modules:

Sum of individual times          ...      138.375 sec (=   2.306 min)
Startup calculation              ...        3.876 sec (=   0.065 min)   2.8 %
SCF iterations                   ...       19.422 sec (=   0.324 min)  14.0 %
Property integrals               ...        0.742 sec (=   0.012 min)   0.5 %
SCF Response                     ...      113.835 sec (=   1.897 min)  82.3 %
Property calculations            ...        0.499 sec (=   0.008 min)   0.4 %
                             ****ORCA TERMINATED NORMALLY****
TOTAL RUN TIME: 0 days 0 hours 2 minutes 18 seconds 676 msec
