
                                 *****************
                                 * O   R   C   A *
                                 *****************

                                            #,                                       
                                            ###                                      
                                            ####                                     
                                            #####                                    
                                            ######                                   
                                           ########,                                 
                                     ,,################,,,,,                         
                               ,,#################################,,                 
                          ,,##########################################,,             
                       ,#########################################, ''#####,          
                    ,#############################################,,   '####,        
                  ,##################################################,,,,####,       
                ,###########''''           ''''###############################       
              ,#####''   ,,,,##########,,,,          '''####'''          '####       
            ,##' ,,,,###########################,,,                        '##       
           ' ,,###''''                  '''############,,,                           
         ,,##''                                '''############,,,,        ,,,,,,###''
      ,#''                                            '''#######################'''  
     '                                                          ''''####''''         
             ,#######,   #######,   ,#######,      ##                                
            ,#'     '#,  ##    ##  ,#'     '#,    #''#        ######   ,####,        
            ##       ##  ##   ,#'  ##            #'  '#       #        #'  '#        
            ##       ##  #######   ##           ,######,      #####,   #    #        
            '#,     ,#'  ##    ##  '#,     ,#' ,#      #,         ##   #,  ,#        
             '#######'   ##     ##  '#######'  #'      '#     #####' # '####'        



                  #######################################################
                  #                        -***-                        #
                  #          Department of theory and spectroscopy      #
                  #    Directorship and core code : Frank Neese         #
                  #        Max Planck Institute fuer Kohlenforschung    #
                  #                Kaiser Wilhelm Platz 1               #
                  #                 D-45470 Muelheim/Ruhr               #
                  #                      Germany                        #
                  #                                                     #
                  #                  All rights reserved                #
                  #                        -***-                        #
                  #######################################################


                         Program Version 5.0.2 -  RELEASE  -


 With contributions from (in alphabetic order):
   Daniel Aravena         : Magnetic Suceptibility
   Michael Atanasov       : Ab Initio Ligand Field Theory (pilot matlab implementation)
   Alexander A. Auer      : GIAO ZORA, VPT2 properties, NMR spectrum
   Ute Becker             : Parallelization
   Giovanni Bistoni       : ED, misc. LED, open-shell LED, HFLD
   Martin Brehm           : Molecular dynamics
   Dmytro Bykov           : SCF Hessian
   Vijay G. Chilkuri      : MRCI spin determinant printing, contributions to CSF-ICE
   Dipayan Datta          : RHF DLPNO-CCSD density
   Achintya Kumar Dutta   : EOM-CC, STEOM-CC
   Dmitry Ganyushin       : Spin-Orbit,Spin-Spin,Magnetic field MRCI
   Miquel Garcia          : C-PCM and meta-GGA Hessian, CC/C-PCM, Gaussian charge scheme
   Yang Guo               : DLPNO-NEVPT2, F12-NEVPT2, CIM, IAO-localization
   Andreas Hansen         : Spin unrestricted coupled pair/coupled cluster methods
   Benjamin Helmich-Paris : MC-RPA, TRAH-SCF, COSX integrals
   Lee Huntington         : MR-EOM, pCC
   Robert Izsak           : Overlap fitted RIJCOSX, COSX-SCS-MP3, EOM
   Marcus Kettner         : VPT2
   Christian Kollmar      : KDIIS, OOCD, Brueckner-CCSD(T), CCSD density, CASPT2, CASPT2-K
   Simone Kossmann        : Meta GGA functionals, TD-DFT gradient, OOMP2, MP2 Hessian
   Martin Krupicka        : Initial AUTO-CI
   Lucas Lang             : DCDCAS
   Marvin Lechner         : AUTO-CI (C++ implementation), FIC-MRCC
   Dagmar Lenk            : GEPOL surface, SMD
   Dimitrios Liakos       : Extrapolation schemes; Compound Job, initial MDCI parallelization
   Dimitrios Manganas     : Further ROCIS development; embedding schemes
   Dimitrios Pantazis     : SARC Basis sets
   Anastasios Papadopoulos: AUTO-CI, single reference methods and gradients
   Taras Petrenko         : DFT Hessian,TD-DFT gradient, ASA, ECA, R-Raman, ABS, FL, XAS/XES, NRVS
   Peter Pinski           : DLPNO-MP2, DLPNO-MP2 Gradient
   Christoph Reimann      : Effective Core Potentials
   Marius Retegan         : Local ZFS, SOC
   Christoph Riplinger    : Optimizer, TS searches, QM/MM, DLPNO-CCSD(T), (RO)-DLPNO pert. Triples
   Tobias Risthaus        : Range-separated hybrids, TD-DFT gradient, RPA, STAB
   Michael Roemelt        : Original ROCIS implementation
   Masaaki Saitow         : Open-shell DLPNO-CCSD energy and density
   Barbara Sandhoefer     : DKH picture change effects
   Avijit Sen             : IP-ROCIS
   Kantharuban Sivalingam : CASSCF convergence, NEVPT2, FIC-MRCI
   Bernardo de Souza      : ESD, SOC TD-DFT
   Georgi Stoychev        : AutoAux, RI-MP2 NMR, DLPNO-MP2 response
   Willem Van den Heuvel  : Paramagnetic NMR
   Boris Wezisla          : Elementary symmetry handling
   Frank Wennmohs         : Technical directorship


 We gratefully acknowledge several colleagues who have allowed us to
 interface, adapt or use parts of their codes:
   Stefan Grimme, W. Hujo, H. Kruse, P. Pracht,  : VdW corrections, initial TS optimization,
                  C. Bannwarth, S. Ehlert          DFT functionals, gCP, sTDA/sTD-DF
   Ed Valeev, F. Pavosevic, A. Kumar             : LibInt (2-el integral package), F12 methods
   Garnet Chan, S. Sharma, J. Yang, R. Olivares  : DMRG
   Ulf Ekstrom                                   : XCFun DFT Library
   Mihaly Kallay                                 : mrcc  (arbitrary order and MRCC methods)
   Jiri Pittner, Ondrej Demel                    : Mk-CCSD
   Frank Weinhold                                : gennbo (NPA and NBO analysis)
   Christopher J. Cramer and Donald G. Truhlar   : smd solvation model
   Lars Goerigk                                  : TD-DFT with DH, B97 family of functionals
   V. Asgeirsson, H. Jonsson                     : NEB implementation
   FAccTs GmbH                                   : IRC, NEB, NEB-TS, DLPNO-Multilevel, CI-OPT
                                                   MM, QMMM, 2- and 3-layer-ONIOM, Crystal-QMMM,
                                                   LR-CPCM, SF, NACMEs, symmetry and pop. for TD-DFT,
                                                   nearIR, NL-DFT gradient (VV10), updates on ESD,
                                                   ML-optimized integration grids
   S Lehtola, MJT Oliveira, MAL Marques          : LibXC Library
   Liviu Ungur et al                             : ANISO software


 Your calculation uses the libint2 library for the computation of 2-el integrals
 For citations please refer to: http://libint.valeyev.net

 Your ORCA version has been built with support for libXC version: 5.1.0
 For citations please refer to: https://tddft.org/programs/libxc/

 This ORCA versions uses:
   CBLAS   interface :  Fast vector & matrix operations
   LAPACKE interface :  Fast linear algebra routines
   SCALAPACK package :  Parallel linear algebra routines
   Shared memory     :  Shared parallel matrices
   BLAS/LAPACK       :  OpenBLAS 0.3.15  USE64BITINT DYNAMIC_ARCH NO_AFFINITY Zen SINGLE_THREADED
        Core in use  :  Zen
   Copyright (c) 2011-2014, The OpenBLAS Project


Your calculation utilizes the atom-pairwise dispersion correction
based on tight binding partial charges (D4)
Cite in your paper:
E.Caldeweyher, C.Bannwarth, S.Grimme, J.Chem.Phys., (2017), 147, 034112.
E.Caldeweyher, S.Ehlert, A.Hansen, H.Neugebauer, S.Grimme, J.Chem.Phys., (2018), in progress.
   

================================================================================

----- Orbital basis set information -----
Your calculation utilizes the basis: pcSseg-1
   F. Jensen, J. Chem. Theory Comput. 11, 132 (2015).

----- AuxJ basis set information -----
Your calculation utilizes the auxiliary basis: def2/J
   F. Weigend, Phys. Chem. Chem. Phys. 8, 1057 (2006).

================================================================================
                                        WARNINGS
                       Please study these warnings very carefully!
================================================================================



WARNING: Found flag for RIJCOSX approximation but no HF exchange needed!
  ===> : RIJCOSX  will be disabled and Split-RI-J is turned on

INFO   : the flag for use of the SHARK integral package has been found!

================================================================================
                                       INPUT FILE
================================================================================
NAME = inpS
|  1> ! revTPSS
|  2> ! D4
|  3> ! pcSseg-1
|  4> ! def2/J RIJCOSX
|  5> ! DEFGRID2
|  6> ! scfconv7
|  7> ! smallprint printgap noloewdin
|  8> ! NOSOSCF
|  9> %MaxCore 4000
| 10> %output
| 11>        print[P_BondOrder_M] 1
| 12>        print[P_Mayer] 1
| 13>        print[P_basis] 2
| 14> end
| 15> %pal
| 16>     nprocs 4
| 17> end
| 18> ! CPCM(chloroform)
| 19> *xyz 0 1
| 20> C   -5.1993097900   0.0714380500  -0.5814050300
| 21> C   -6.6241227200  -0.4153919000  -0.6991094700
| 22> C   -7.5739798200   0.5210514300   0.0589207600
| 23> H   -6.7187367200  -1.4376291900  -0.3156850600
| 24> H   -6.9303749100  -0.4196580600  -1.7557317000
| 25> C   -5.0109475200   1.4790018200  -0.9983504300
| 26> C   -5.9847704500   2.4512469200  -0.3706167400
| 27> C   -7.4333931900   1.9515943600  -0.4634836700
| 28> H   -5.8867256100   3.4384405300  -0.8345012300
| 29> H   -5.7211027300   2.5675862300   0.6916810400
| 30> H   -7.7618303600   1.9695342900  -1.5115908600
| 31> H   -8.0976071600   2.6152421900   0.1021529300
| 32> O   -7.3365439400   0.4463667200   1.4748225200
| 33> H   -8.6082426300   0.1820096200  -0.0784629000
| 34> C   -4.2265338600  -0.7176765400  -0.0665675700
| 35> C   -4.0879051700   1.8609845400  -1.8875467400
| 36> H   -3.4088470700   1.1442349100  -2.3416968200
| 37> H   -3.9976588800   2.9022417500  -2.1881408100
| 38> C   -2.8595803600  -0.3246006300   0.1884067500
| 39> H   -4.5196016900  -1.7306782400   0.2063210900
| 40> C   -1.8599654400  -1.1253359100   0.6159915900
| 41> H   -2.6323853700   0.7268077000   0.0276962200
| 42> C   -1.9683668100  -2.6068019000   0.8734337700
| 43> C   -0.8979327900  -3.3984608000   0.0974658200
| 44> H   -2.9613361700  -2.9972851200   0.6350384700
| 45> H   -1.8049852400  -2.7759798400   1.9498102000
| 46> C    0.5167030500  -2.8436181600   0.3102149000
| 47> H   -1.1455308800  -3.3825379400  -0.9714824900
| 48> H   -0.9315156200  -4.4493517300   0.4099039900
| 49> C    0.5957815700  -1.3447357600  -0.0103964600
| 50> H    1.2202430900  -3.4192693100  -0.3000155500
| 51> H    0.8090317800  -2.9897706200   1.3611208600
| 52> C   -0.4727732200  -0.6212065800   0.8685979600
| 53> H   -0.2199007300  -0.9117940000   1.9055291900
| 54> C   -0.1321847700   0.8568173800   0.7164476500
| 55> H   -6.3784727200   0.4262672000   1.6105523200
| 56> C    1.4153941000   0.8642536100   0.6782380900
| 57> H   -0.5383356400   1.4624070300   1.5335002000
| 58> H   -0.5436668400   1.2561591000  -0.2174033000
| 59> C    1.8801547800  -0.6121239300   0.4737310800
| 60> H    1.8286687900   1.2790016700   1.6015842700
| 61> H    1.7902101000   1.4940624200  -0.1373894000
| 62> H    2.1228482100  -1.0478007800   1.4557579900
| 63> C    3.1363315400  -0.7003052100  -0.4044994400
| 64> C    0.3367790900  -1.0847037300  -1.5017976800
| 65> H    0.5287665600  -0.0411011200  -1.7707256800
| 66> H   -0.7012281700  -1.3036591300  -1.7711370400
| 67> H    0.9846619000  -1.7112253200  -2.1240729600
| 68> H    2.8996074000  -0.2189348500  -1.3668138500
| 69> C    3.5927441200  -2.1384329900  -0.7122385500
| 70> C    4.3251362400   0.0393118600   0.1687880100
| 71> C    4.5346247200   0.3821935000   1.4395992500
| 72> H    5.1185550500   0.2472282100  -0.5547699700
| 73> H    3.7736132000   0.1663178600   2.1907929100
| 74> C    5.7758173400   1.0631646900   1.9474469700
| 75> C    6.3918895200   0.2393500400   3.0879460700
| 76> C    5.4886176400   2.5394186500   2.3393988800
| 77> H    6.4999655400   1.0991448400   1.1197458300
| 78> H    5.0082562500   2.9911262700   1.4581313900
| 79> C    6.7808351000   3.3134010700   2.6133916700
| 80> C    4.5232890800   2.6821205300   3.5191726700
| 81> H    5.6818365200   0.1166267200   3.9133930100
| 82> H    7.2985985400   0.7066509900   3.4851224000
| 83> H    6.6575271500  -0.7602099400   2.7284600300
| 84> H    7.4915412700   3.2111825500   1.7851557200
| 85> H    7.2702174800   2.9589258600   3.5275482300
| 86> H    6.5673917700   4.3796567100   2.7479758900
| 87> H    3.5808360400   2.1523941800   3.3457292300
| 88> H    4.2852489900   3.7384735600   3.6863697500
| 89> H    4.9671522000   2.2950857200   4.4436533700
| 90> H    2.8856668000  -2.6647917600  -1.3582651700
| 91> H    3.7074425400  -2.7089124700   0.2170386500
| 92> H    4.5634123800  -2.1286977100  -1.2206224100
| 93> *
| 94> %eprnmr
| 95>  Nuclei = all H { shift }
| 96>  origin giao
| 97>  giao_2el giao_2el_same_as_scf
| 98>  giao_1el giao_1el_analytic
| 99> end
|100> 
|101>                          ****END OF INPUT****
================================================================================

                       ****************************
                       * Single Point Calculation *
                       ****************************

---------------------------------
CARTESIAN COORDINATES (ANGSTROEM)
---------------------------------
  C     -5.199310    0.071438   -0.581405
  C     -6.624123   -0.415392   -0.699109
  C     -7.573980    0.521051    0.058921
  H     -6.718737   -1.437629   -0.315685
  H     -6.930375   -0.419658   -1.755732
  C     -5.010948    1.479002   -0.998350
  C     -5.984770    2.451247   -0.370617
  C     -7.433393    1.951594   -0.463484
  H     -5.886726    3.438441   -0.834501
  H     -5.721103    2.567586    0.691681
  H     -7.761830    1.969534   -1.511591
  H     -8.097607    2.615242    0.102153
  O     -7.336544    0.446367    1.474823
  H     -8.608243    0.182010   -0.078463
  C     -4.226534   -0.717677   -0.066568
  C     -4.087905    1.860985   -1.887547
  H     -3.408847    1.144235   -2.341697
  H     -3.997659    2.902242   -2.188141
  C     -2.859580   -0.324601    0.188407
  H     -4.519602   -1.730678    0.206321
  C     -1.859965   -1.125336    0.615992
  H     -2.632385    0.726808    0.027696
  C     -1.968367   -2.606802    0.873434
  C     -0.897933   -3.398461    0.097466
  H     -2.961336   -2.997285    0.635038
  H     -1.804985   -2.775980    1.949810
  C      0.516703   -2.843618    0.310215
  H     -1.145531   -3.382538   -0.971482
  H     -0.931516   -4.449352    0.409904
  C      0.595782   -1.344736   -0.010396
  H      1.220243   -3.419269   -0.300016
  H      0.809032   -2.989771    1.361121
  C     -0.472773   -0.621207    0.868598
  H     -0.219901   -0.911794    1.905529
  C     -0.132185    0.856817    0.716448
  H     -6.378473    0.426267    1.610552
  C      1.415394    0.864254    0.678238
  H     -0.538336    1.462407    1.533500
  H     -0.543667    1.256159   -0.217403
  C      1.880155   -0.612124    0.473731
  H      1.828669    1.279002    1.601584
  H      1.790210    1.494062   -0.137389
  H      2.122848   -1.047801    1.455758
  C      3.136332   -0.700305   -0.404499
  C      0.336779   -1.084704   -1.501798
  H      0.528767   -0.041101   -1.770726
  H     -0.701228   -1.303659   -1.771137
  H      0.984662   -1.711225   -2.124073
  H      2.899607   -0.218935   -1.366814
  C      3.592744   -2.138433   -0.712239
  C      4.325136    0.039312    0.168788
  C      4.534625    0.382193    1.439599
  H      5.118555    0.247228   -0.554770
  H      3.773613    0.166318    2.190793
  C      5.775817    1.063165    1.947447
  C      6.391890    0.239350    3.087946
  C      5.488618    2.539419    2.339399
  H      6.499966    1.099145    1.119746
  H      5.008256    2.991126    1.458131
  C      6.780835    3.313401    2.613392
  C      4.523289    2.682121    3.519173
  H      5.681837    0.116627    3.913393
  H      7.298599    0.706651    3.485122
  H      6.657527   -0.760210    2.728460
  H      7.491541    3.211183    1.785156
  H      7.270217    2.958926    3.527548
  H      6.567392    4.379657    2.747976
  H      3.580836    2.152394    3.345729
  H      4.285249    3.738474    3.686370
  H      4.967152    2.295086    4.443653
  H      2.885667   -2.664792   -1.358265
  H      3.707443   -2.708912    0.217039
  H      4.563412   -2.128698   -1.220622

----------------------------
CARTESIAN COORDINATES (A.U.)
----------------------------
  NO LB      ZA    FRAG     MASS         X           Y           Z
   0 C     6.0000    0    12.011   -9.825272    0.134998   -1.098696
   1 C     6.0000    0    12.011  -12.517778   -0.784977   -1.321125
   2 C     6.0000    0    12.011  -14.312748    0.984645    0.111344
   3 H     1.0000    0     1.008  -12.696572   -2.716725   -0.596558
   4 H     1.0000    0     1.008  -13.096511   -0.793039   -3.317852
   5 C     6.0000    0    12.011   -9.469318    2.794908   -1.886609
   6 C     6.0000    0    12.011  -11.309577    4.632185   -0.700364
   7 C     6.0000    0    12.011  -14.047077    3.687979   -0.875857
   8 H     1.0000    0     1.008  -11.124299    6.497711   -1.576979
   9 H     1.0000    0     1.008  -10.811317    4.852035    1.307088
  10 H     1.0000    0     1.008  -14.667734    3.721880   -2.856493
  11 H     1.0000    0     1.008  -15.302260    4.942092    0.193041
  12 O     8.0000    0    15.999  -13.864059    0.843511    2.787011
  13 H     1.0000    0     1.008  -16.267221    0.343948   -0.148273
  14 C     6.0000    0    12.011   -7.986991   -1.356212   -0.125794
  15 C     6.0000    0    12.011   -7.725021    3.516751   -3.566946
  16 H     1.0000    0     1.008   -6.441787    2.162291   -4.425166
  17 H     1.0000    0     1.008   -7.554480    5.484442   -4.134987
  18 C     6.0000    0    12.011   -5.403824   -0.613406    0.356037
  19 H     1.0000    0     1.008   -8.540809   -3.270508    0.389890
  20 C     6.0000    0    12.011   -3.514825   -2.126577    1.164055
  21 H     1.0000    0     1.008   -4.974487    1.373468    0.052338
  22 C     6.0000    0    12.011   -3.719674   -4.926142    1.650551
  23 C     6.0000    0    12.011   -1.696847   -6.422160    0.184184
  24 H     1.0000    0     1.008   -5.596114   -5.664048    1.200049
  25 H     1.0000    0     1.008   -3.410928   -5.245842    3.684607
  26 C     6.0000    0    12.011    0.976427   -5.373660    0.586221
  27 H     1.0000    0     1.008   -2.164740   -6.392070   -1.835836
  28 H     1.0000    0     1.008   -1.760309   -8.408056    0.774606
  29 C     6.0000    0    12.011    1.125864   -2.541182   -0.019646
  30 H     1.0000    0     1.008    2.305925   -6.461483   -0.566947
  31 H     1.0000    0     1.008    1.528848   -5.649848    2.572146
  32 C     6.0000    0    12.011   -0.893412   -1.173910    1.641412
  33 H     1.0000    0     1.008   -0.415552   -1.723041    3.600928
  34 C     6.0000    0    12.011   -0.249793    1.619150    1.353890
  35 H     1.0000    0     1.008  -12.053567    0.805528    3.043503
  36 C     6.0000    0    12.011    2.674707    1.633203    1.281684
  37 H     1.0000    0     1.008   -1.017307    2.763549    2.897895
  38 H     1.0000    0     1.008   -1.027381    2.373797   -0.410833
  39 C     6.0000    0    12.011    3.552978   -1.156747    0.895222
  40 H     1.0000    0     1.008    3.455683    2.416963    3.026556
  41 H     1.0000    0     1.008    3.383007    2.823369   -0.259628
  42 H     1.0000    0     1.008    4.011602   -1.980057    2.750984
  43 C     6.0000    0    12.011    5.926808   -1.323385   -0.764393
  44 C     6.0000    0    12.011    0.636420   -2.049793   -2.837986
  45 H     1.0000    0     1.008    0.999224   -0.077670   -3.346187
  46 H     1.0000    0     1.008   -1.325129   -2.463559   -3.346964
  47 H     1.0000    0     1.008    1.860741   -3.233747   -4.013916
  48 H     1.0000    0     1.008    5.479464   -0.413727   -2.582904
  49 C     6.0000    0    12.011    6.789302   -4.041053   -1.345936
  50 C     6.0000    0    12.011    8.173323    0.074289    0.318963
  51 C     6.0000    0    12.011    8.569199    0.722241    2.720448
  52 H     1.0000    0     1.008    9.672667    0.467194   -1.048363
  53 H     1.0000    0     1.008    7.131095    0.314295    4.139999
  54 C     6.0000    0    12.011   10.914713    2.009090    3.680141
  55 C     6.0000    0    12.011   12.078921    0.452306    5.835372
  56 C     6.0000    0    12.011   10.371984    4.798806    4.420823
  57 H     1.0000    0     1.008   12.283155    2.077083    2.116013
  58 H     1.0000    0     1.008    9.464233    5.652409    2.755469
  59 C     6.0000    0    12.011   12.813921    6.261421    4.938595
  60 C     6.0000    0    12.011    8.547778    5.068473    6.650273
  61 H     1.0000    0     1.008   10.737115    0.220393    7.395241
  62 H     1.0000    0     1.008   13.792352    1.335377    6.585927
  63 H     1.0000    0     1.008   12.580903   -1.436589    5.156042
  64 H     1.0000    0     1.008   14.156961    6.068256    3.373455
  65 H     1.0000    0     1.008   13.738720    5.591560    6.666100
  66 H     1.0000    0     1.008   12.410572    8.276352    5.192922
  67 H     1.0000    0     1.008    6.766799    4.067436    6.322512
  68 H     1.0000    0     1.008    8.097947    7.064691    6.966229
  69 H     1.0000    0     1.008    9.386557    4.337083    8.397288
  70 H     1.0000    0     1.008    5.453120   -5.035727   -2.566749
  71 H     1.0000    0     1.008    7.006051   -5.119103    0.410144
  72 H     1.0000    0     1.008    8.623600   -4.022656   -2.306642

--------------------------------
INTERNAL COORDINATES (ANGSTROEM)
--------------------------------
 C      0   0   0     0.000000000000     0.00000000     0.00000000
 C      1   0   0     1.510281305224     0.00000000     0.00000000
 C      2   1   0     1.534198308667   110.41557437     0.00000000
 H      2   1   3     1.095871874010   110.78532272   237.80565788
 H      2   1   3     1.100117785026   109.79960936   118.64624726
 C      1   2   3     1.480053910490   113.87019511   305.99279350
 C      6   1   2     1.512495031076   114.35981325    50.06287597
 C      3   2   1     1.529419518507   110.19656020    56.76754314
 H      7   6   1     1.095149685814   110.24294683   188.51694781
 H      7   6   1     1.100696177432   108.31634569    71.77309458
 H      8   3   2     1.098508760755   108.28179426    64.42908507
 H      8   3   2     1.096153914132   109.53211819   181.42157238
 O      3   2   1     1.437613090157   110.65029571   292.72938289
 H      3   2   1     1.097052040294   109.46167676   177.18220923
 C      1   2   3     1.354271928513   121.29570264   122.59013245
 C      6   1   2     1.337381043678   123.14581741   232.12065998
 H     16   6   1     1.086785273384   121.38072507   358.93475531
 H     16   6   1     1.087528282462   120.96501943   178.36852200
 C     15   1   2     1.445019877387   126.02032652   185.08883761
 H     15   1   2     1.089279311261   116.35063409     3.03647663
 C     19  15   1     1.350272480769   126.50364577   184.79517874
 H     19  15   1     1.087614322417   115.75350058     5.65035727
 C     21  19  15     1.507570500039   125.70368353     1.94047233
 C     23  21  19     1.540999372015   111.64770589   126.04764699
 H     23  21  19     1.093296672483   112.27467580     2.33078420
 H     23  21  19     1.101771724024   107.88210733   244.63948100
 C     24  23  21     1.534375145137   112.63377286    50.99616870
 H     24  23  21     1.097364497828   109.04582461   288.91169914
 H     24  23  21     1.096866976119   109.11685782   172.92515833
 C     27  24  23     1.534826864997   111.81913180   306.00896466
 H     27  24  23     1.094862565113   108.96752118   182.49655333
 H     27  24  23     1.100554389710   109.22448038    65.97553725
 C     21  19  15     1.497417314832   122.65526119   180.74033546
 H     33  21  19     1.106169932972   106.34789345   125.57336462
 C     33  21  19     1.524370373446   121.10276027     2.97912601
 H     13   3   2     0.967846595233   107.61933578    41.97817858
 C     35  33  21     1.548068353421   103.32529557   195.08185436
 H     35  33  21     1.095112881328   112.26227359    73.33520947
 H     35  33  21     1.095841640056   110.76262786   313.59168003
 C     30  27  24     1.555864425652   115.93663991   166.54343558
 H     37  35  33     1.093334391112   111.02976272   251.69507732
 H     37  35  33     1.096537447356   111.27395875   133.47480093
 H     40  30  27     1.101404226683   105.84740394   321.88483625
 C     40  30  27     1.535267024581   118.06005869    82.74748471
 C     30  27  24     1.535896005688   111.06882410   294.73683329
 H     45  30  27     1.094663357119   111.73936930   188.05354764
 H     45  30  27     1.094506386389   111.40837245    68.09980443
 H     45  30  27     1.095220508541   110.80006721   308.00712010
 H     44  40  30     1.101728081533   107.38250298    62.87567617
 C     44  40  30     1.539878993497   114.23473852   304.03253667
 C     44  40  30     1.512927138135   113.45849348   180.44223152
 C     51  44  40     1.332821987368   127.63039172    21.77902996
 H     51  44  40     1.093745293513   114.34694790   197.53316611
 H     52  51  44     1.090886217872   119.73660563   357.13246974
 C     52  51  44     1.504057907217   124.61957054   176.98511413
 C     55  52  51     1.535888572008   109.80957822   235.31981536
 C     55  52  51     1.554167211676   111.26705339   109.00257161
 H     55  52  51     1.100351927301   107.69237299   352.90963567
 H     57  55  52     1.100644914539   105.57808506   307.15023639
 C     57  55  52     1.530995362295   111.67611442   190.36635574
 C     57  55  52     1.531041884103   113.53937582    64.87242818
 H     56  55  52     1.095718452357   111.07225774   301.06127548
 H     56  55  52     1.094641704821   111.88248955   180.11694299
 H     56  55  52     1.094949184686   110.06993610    60.11843038
 H     60  57  55     1.096141722032   111.40033383    51.91244878
 H     60  57  55     1.095823893037   111.26613889   291.21422744
 H     60  57  55     1.095706191105   110.45780788   172.00533697
 H     61  57  55     1.094947654168   112.05771359   305.25184729
 H     61  57  55     1.095673159294   110.14687609   185.41122118
 H     61  57  55     1.096118140585   111.20345683    66.41594877
 H     50  44  40     1.092868832460   112.09696439    67.89211167
 H     50  44  40     1.096429969990   110.33769585   306.78593633
 H     50  44  40     1.095785469769   110.30228004   187.82932468

---------------------------
INTERNAL COORDINATES (A.U.)
---------------------------
 C      0   0   0     0.000000000000     0.00000000     0.00000000
 C      1   0   0     2.854018052054     0.00000000     0.00000000
 C      2   1   0     2.899214638505   110.41557437     0.00000000
 H      2   1   3     2.070897719746   110.78532272   237.80565788
 H      2   1   3     2.078921328756   109.79960936   118.64624726
 C      1   2   3     2.796896554266   113.87019511   305.99279350
 C      6   1   2     2.858201387650   114.35981325    50.06287597
 C      3   2   1     2.890184033853   110.19656020    56.76754314
 H      7   6   1     2.069532981838   110.24294683   188.51694781
 H      7   6   1     2.080014332001   108.31634569    71.77309458
 H      8   3   2     2.075880713540   108.28179426    64.42908507
 H      8   3   2     2.071430698335   109.53211819   181.42157238
 O      3   2   1     2.716695026937   110.65029571   292.72938289
 H      3   2   1     2.073127910814   109.46167676   177.18220923
 C      1   2   3     2.559203055746   121.29570264   122.59013245
 C      6   1   2     2.527283909250   123.14581741   232.12065998
 H     16   6   1     2.053726533075   121.38072507   358.93475531
 H     16   6   1     2.055130616747   120.96501943   178.36852200
 C     15   1   2     2.730691826334   126.02032652   185.08883761
 H     15   1   2     2.058439581629   116.35063409     3.03647663
 C     19  15   1     2.551645194823   126.50364577   184.79517874
 H     19  15   1     2.055293208699   115.75350058     5.65035727
 C     21  19  15     2.848895372652   125.70368353     1.94047233
 C     23  21  19     2.912066785652   111.64770589   126.04764699
 H     23  21  19     2.066031294120   112.27467580     2.33078420
 H     23  21  19     2.082046820503   107.88210733   244.63948100
 C     24  23  21     2.899548811005   112.63377286    50.99616870
 H     24  23  21     2.073718369984   109.04582461   288.91169914
 H     24  23  21     2.072778190207   109.11685782   172.92515833
 C     27  24  23     2.900402437829   111.81913180   306.00896466
 H     27  24  23     2.068990402347   108.96752118   182.49655333
 H     27  24  23     2.079746392038   109.22448038    65.97553725
 C     21  19  15     2.829708633225   122.65526119   180.74033546
 H     33  21  19     2.090358230894   106.34789345   125.57336462
 C     33  21  19     2.880642532477   121.10276027     2.97912601
 H     13   3   2     1.828965004639   107.61933578    41.97817858
 C     35  33  21     2.925425224555   103.32529557   195.08185436
 H     35  33  21     2.069463431439   112.26227359    73.33520947
 H     35  33  21     2.070840585852   110.76262786   313.59168003
 C     30  27  24     2.940157665992   115.93663991   166.54343558
 H     37  35  33     2.066102572000   111.02976272   251.69507732
 H     37  35  33     2.072155471091   111.27395875   133.47480093
 H     40  30  27     2.081352351174   105.84740394   321.88483625
 C     40  30  27     2.901234218898   118.06005869    82.74748471
 C     30  27  24     2.902422820935   111.06882410   294.73683329
 H     45  30  27     2.068613953794   111.73936930   188.05354764
 H     45  30  27     2.068317322104   111.40837245    68.09980443
 H     45  30  27     2.069666817396   110.80006721   308.00712010
 H     44  40  30     2.081964348148   107.38250298    62.87567617
 C     44  40  30     2.909949577088   114.23473852   304.03253667
 C     44  40  30     2.859017951652   113.45849348   180.44223152
 C     51  44  40     2.518668541395   127.63039172    21.77902996
 H     51  44  40     2.066879065004   114.34694790   197.53316611
 H     52  51  44     2.061476195047   119.73660563   357.13246974
 C     52  51  44     2.842257534199   124.61957054   176.98511413
 C     55  52  51     2.902408773315   109.80957822   235.31981536
 C     55  52  51     2.936950396387   111.26705339   109.00257161
 H     55  52  51     2.079363793531   107.69237299   352.90963567
 H     57  55  52     2.079917459171   105.57808506   307.15023639
 C     57  55  52     2.893161947042   111.67611442   190.36635574
 C     57  55  52     2.893249860518   113.53937582    64.87242818
 H     56  55  52     2.070607794839   111.07225774   301.06127548
 H     56  55  52     2.068573036880   111.88248955   180.11694299
 H     56  55  52     2.069154089617   110.06993610    60.11843038
 H     60  57  55     2.071407658605   111.40033383    51.91244878
 H     60  57  55     2.070807048847   111.26613889   291.21422744
 H     60  57  55     2.070584624431   110.45780788   172.00533697
 H     61  57  55     2.069151197358   112.05771359   305.25184729
 H     61  57  55     2.070522203354   110.14687609   185.41122118
 H     61  57  55     2.071363096129   111.20345683    66.41594877
 H     50  44  40     2.065222793648   112.09696439    67.89211167
 H     50  44  40     2.071952368304   110.33769585   306.78593633
 H     50  44  40     2.070734439393   110.30228004   187.82932468

---------------------
BASIS SET INFORMATION
---------------------
There are 3 groups of distinct atoms

 Group   1 Type C   : 8s5p1d contracted to 3s3p1d pattern {521/311/1}
 Group   2 Type H   : 4s2p contracted to 2s1p pattern {31/2}
 Group   3 Type O   : 8s5p1d contracted to 3s3p1d pattern {521/311/1}

Atom   0C    basis set group =>   1
Atom   1C    basis set group =>   1
Atom   2C    basis set group =>   1
Atom   3H    basis set group =>   2
Atom   4H    basis set group =>   2
Atom   5C    basis set group =>   1
Atom   6C    basis set group =>   1
Atom   7C    basis set group =>   1
Atom   8H    basis set group =>   2
Atom   9H    basis set group =>   2
Atom  10H    basis set group =>   2
Atom  11H    basis set group =>   2
Atom  12O    basis set group =>   3
Atom  13H    basis set group =>   2
Atom  14C    basis set group =>   1
Atom  15C    basis set group =>   1
Atom  16H    basis set group =>   2
Atom  17H    basis set group =>   2
Atom  18C    basis set group =>   1
Atom  19H    basis set group =>   2
Atom  20C    basis set group =>   1
Atom  21H    basis set group =>   2
Atom  22C    basis set group =>   1
Atom  23C    basis set group =>   1
Atom  24H    basis set group =>   2
Atom  25H    basis set group =>   2
Atom  26C    basis set group =>   1
Atom  27H    basis set group =>   2
Atom  28H    basis set group =>   2
Atom  29C    basis set group =>   1
Atom  30H    basis set group =>   2
Atom  31H    basis set group =>   2
Atom  32C    basis set group =>   1
Atom  33H    basis set group =>   2
Atom  34C    basis set group =>   1
Atom  35H    basis set group =>   2
Atom  36C    basis set group =>   1
Atom  37H    basis set group =>   2
Atom  38H    basis set group =>   2
Atom  39C    basis set group =>   1
Atom  40H    basis set group =>   2
Atom  41H    basis set group =>   2
Atom  42H    basis set group =>   2
Atom  43C    basis set group =>   1
Atom  44C    basis set group =>   1
Atom  45H    basis set group =>   2
Atom  46H    basis set group =>   2
Atom  47H    basis set group =>   2
Atom  48H    basis set group =>   2
Atom  49C    basis set group =>   1
Atom  50C    basis set group =>   1
Atom  51C    basis set group =>   1
Atom  52H    basis set group =>   2
Atom  53H    basis set group =>   2
Atom  54C    basis set group =>   1
Atom  55C    basis set group =>   1
Atom  56C    basis set group =>   1
Atom  57H    basis set group =>   2
Atom  58H    basis set group =>   2
Atom  59C    basis set group =>   1
Atom  60C    basis set group =>   1
Atom  61H    basis set group =>   2
Atom  62H    basis set group =>   2
Atom  63H    basis set group =>   2
Atom  64H    basis set group =>   2
Atom  65H    basis set group =>   2
Atom  66H    basis set group =>   2
Atom  67H    basis set group =>   2
Atom  68H    basis set group =>   2
Atom  69H    basis set group =>   2
Atom  70H    basis set group =>   2
Atom  71H    basis set group =>   2
Atom  72H    basis set group =>   2

-------------------------
BASIS SET IN INPUT FORMAT
-------------------------

 # Basis set for element : H 
 NewGTO H 
 S 3 
   1      12.2518000000      0.0372173893
   2       1.8687100000      0.2538082070
   3       0.4182080000      0.7973867639
 S 1 
   1       0.1061000000      1.0000000000
 P 2 
   1       9.0000000000      0.0402678705
   2       1.0000000000      0.9880231245
  end;

 # Basis set for element : C 
 NewGTO C 
 S 5 
   1    1243.2000000000      0.0056300977
   2     187.1450000000      0.0419506039
   3      42.5126000000      0.1846643605
   4      11.7393000000      0.4665574214
   5       3.5054800000      0.4482347783
 S 2 
   1       5.3908900000     -0.1481148174
   2       0.4933410000      1.0519817143
 S 1 
   1       0.1497410000      1.0000000000
 P 3 
   1      59.6736000000      0.0113906672
   2       9.1805600000      0.1672414929
   3       1.9365800000      0.9041087436
 P 1 
   1       0.5262960000      1.0000000000
 P 1 
   1       0.1363190000      1.0000000000
 D 1 
   1       0.8000000000      1.0000000000
  end;

 # Basis set for element : O 
 NewGTO O 
 S 5 
   1    2288.6400000000      0.0054511382
   2     344.4160000000      0.0407189228
   3      78.2538000000      0.1813694209
   4      21.7195000000      0.4655368202
   5       6.5590700000      0.4512113212
 S 2 
   1      10.4656000000     -0.1502112012
   2       0.9643510000      1.0528679834
 S 1 
   1       0.2851270000      1.0000000000
 P 3 
   1     110.8840000000      0.0113058003
   2      17.0590000000      0.1699226452
   3       3.6899900000      0.9008060328
 P 1 
   1       0.9929960000      1.0000000000
 P 1 
   1       0.2449240000      1.0000000000
 D 1 
   1       1.0000000000      1.0000000000
  end;

---------------------------------
AUXILIARY/J BASIS SET INFORMATION
---------------------------------
There are 3 groups of distinct atoms

 Group   1 Type C   : 12s5p4d2f1g contracted to 6s4p3d1f1g pattern {711111/2111/211/2/1}
 Group   2 Type H   : 5s2p1d contracted to 3s1p1d pattern {311/2/1}
 Group   3 Type O   : 12s5p4d2f1g contracted to 6s4p3d1f1g pattern {711111/2111/211/2/1}

Atom   0C    basis set group =>   1
Atom   1C    basis set group =>   1
Atom   2C    basis set group =>   1
Atom   3H    basis set group =>   2
Atom   4H    basis set group =>   2
Atom   5C    basis set group =>   1
Atom   6C    basis set group =>   1
Atom   7C    basis set group =>   1
Atom   8H    basis set group =>   2
Atom   9H    basis set group =>   2
Atom  10H    basis set group =>   2
Atom  11H    basis set group =>   2
Atom  12O    basis set group =>   3
Atom  13H    basis set group =>   2
Atom  14C    basis set group =>   1
Atom  15C    basis set group =>   1
Atom  16H    basis set group =>   2
Atom  17H    basis set group =>   2
Atom  18C    basis set group =>   1
Atom  19H    basis set group =>   2
Atom  20C    basis set group =>   1
Atom  21H    basis set group =>   2
Atom  22C    basis set group =>   1
Atom  23C    basis set group =>   1
Atom  24H    basis set group =>   2
Atom  25H    basis set group =>   2
Atom  26C    basis set group =>   1
Atom  27H    basis set group =>   2
Atom  28H    basis set group =>   2
Atom  29C    basis set group =>   1
Atom  30H    basis set group =>   2
Atom  31H    basis set group =>   2
Atom  32C    basis set group =>   1
Atom  33H    basis set group =>   2
Atom  34C    basis set group =>   1
Atom  35H    basis set group =>   2
Atom  36C    basis set group =>   1
Atom  37H    basis set group =>   2
Atom  38H    basis set group =>   2
Atom  39C    basis set group =>   1
Atom  40H    basis set group =>   2
Atom  41H    basis set group =>   2
Atom  42H    basis set group =>   2
Atom  43C    basis set group =>   1
Atom  44C    basis set group =>   1
Atom  45H    basis set group =>   2
Atom  46H    basis set group =>   2
Atom  47H    basis set group =>   2
Atom  48H    basis set group =>   2
Atom  49C    basis set group =>   1
Atom  50C    basis set group =>   1
Atom  51C    basis set group =>   1
Atom  52H    basis set group =>   2
Atom  53H    basis set group =>   2
Atom  54C    basis set group =>   1
Atom  55C    basis set group =>   1
Atom  56C    basis set group =>   1
Atom  57H    basis set group =>   2
Atom  58H    basis set group =>   2
Atom  59C    basis set group =>   1
Atom  60C    basis set group =>   1
Atom  61H    basis set group =>   2
Atom  62H    basis set group =>   2
Atom  63H    basis set group =>   2
Atom  64H    basis set group =>   2
Atom  65H    basis set group =>   2
Atom  66H    basis set group =>   2
Atom  67H    basis set group =>   2
Atom  68H    basis set group =>   2
Atom  69H    basis set group =>   2
Atom  70H    basis set group =>   2
Atom  71H    basis set group =>   2
Atom  72H    basis set group =>   2

-------------------------------------
AUXILIARY/J BASIS SET IN INPUT FORMAT
-------------------------------------

 # Auxiliary/J basis set for element : H 
 NewAuxJGTO H 
 S 3 
   1      15.6752927000      0.1007184237
   2       3.6063578000      0.3404257499
   3       1.2080016000      0.6491996172
 S 1 
   1       0.4726794000      1.0000000000
 S 1 
   1       0.2018100000      1.0000000000
 P 2 
   1       2.0281365000      0.5596620919
   2       0.5358730000      0.5596620919
 D 1 
   1       2.2165124000      1.0000000000
  end;

 # Auxiliary/J basis set for element : C 
 NewAuxJGTO C 
 S 7 
   1    1861.0916331000      0.0134602335
   2     642.9939764000      0.0299160374
   3     235.1105725000      0.1008649584
   4      90.7028894000      0.2370970548
   5      36.7794552000      0.3924037254
   6      15.6046273000      0.3195862154
   7       6.8907294000      0.0530104441
 S 1 
   1       3.1478850000     -1.0000000000
 S 1 
   1       1.4777287000      1.0000000000
 S 1 
   1       0.7076466000      1.0000000000
 S 1 
   1       0.3430122000      1.0000000000
 S 1 
   1       0.1669453000      1.0000000000
 P 2 
   1      13.5472892000     -0.6769313712
   2       5.4669419000     -0.3779500978
 P 1 
   1       2.1751721000      1.0000000000
 P 1 
   1       0.8582194000      1.0000000000
 P 1 
   1       0.3376720000      1.0000000000
 D 2 
   1       5.9287253000     -0.3533329857
   2       1.9809209000     -0.7456525731
 D 1 
   1       0.8055417000     -1.0000000000
 D 1 
   1       0.3531244000     -1.0000000000
 F 2 
   1       1.6755626000      0.6311076882
   2       0.5997536000      0.4968166032
 G 1 
   1       1.0024600000     -1.0000000000
  end;

 # Auxiliary/J basis set for element : O 
 NewAuxJGTO O 
 S 7 
   1    2876.8216605000      0.0168151159
   2    1004.7443032000      0.0340137548
   3     369.7579954000      0.1194951309
   4     142.9442404000      0.2664627624
   5      57.8366425000      0.4202764046
   6      24.3864983000      0.2765077335
   7      10.6622662000      0.0057008815
 S 1 
   1       4.8070437000     -1.0000000000
 S 1 
   1       2.2210770000      1.0000000000
 S 1 
   1       1.0447795000      1.0000000000
 S 1 
   1       0.4968425000      1.0000000000
 S 1 
   1       0.2371384000      1.0000000000
 P 2 
   1      64.2613382000     -0.2731534179
   2      16.3006076000     -0.8168011598
 P 1 
   1       4.3550542000      1.0000000000
 P 1 
   1       1.2019554000      1.0000000000
 P 1 
   1       0.3354196000      1.0000000000
 D 2 
   1       9.2146611000     -0.4661230638
   2       2.8435251000     -0.6600908911
 D 1 
   1       0.9955759000     -1.0000000000
 D 1 
   1       0.3649441000     -1.0000000000
 F 2 
   1       2.6420115000      0.5931563945
   2       0.7345613000      0.5931563945
 G 1 
   1       1.3931000000     -1.0000000000
  end;



           ************************************************************
           *        Program running with 4 parallel MPI-processes     *
           *              working on a common directory               *
           ************************************************************
------------------------------------------------------------------------------
                           ORCA GTO INTEGRAL CALCULATION
                           -- RI-GTO INTEGRALS CHOSEN --
------------------------------------------------------------------------------
------------------------------------------------------------------------------
                   ___                                                        
                  /   \      - P O W E R E D   B Y -                         
                 /     \                                                     
                 |  |  |   _    _      __       _____    __    __             
                 |  |  |  | |  | |    /  \     |  _  \  |  |  /  |          
                  \  \/   | |  | |   /    \    | | | |  |  | /  /          
                 / \  \   | |__| |  /  /\  \   | |_| |  |  |/  /          
                |  |  |   |  __  | /  /__\  \  |    /   |      \           
                |  |  |   | |  | | |   __   |  |    \   |  |\   \          
                \     /   | |  | | |  |  |  |  | |\  \  |  | \   \       
                 \___/    |_|  |_| |__|  |__|  |_| \__\ |__|  \__/        
                                                                              
                      - O R C A' S   B I G   F R I E N D -                    
                                      &                                       
                       - I N T E G R A L  F E E D E R -                       
                                                                              
 v1 FN, 2020, v2 2021                                                         
------------------------------------------------------------------------------


Reading SHARK input file inpS.SHARKINP.tmp ... ok
----------------------
SHARK INTEGRAL PACKAGE
----------------------

Number of atoms                             ...     73
Number of basis functions                   ...    713
Number of shells                            ...    335
Maximum angular momentum                    ...      2
Integral batch strategy                     ... SHARK/LIBINT Hybrid
RI-J (if used) integral strategy            ... SPLIT-RIJ (Revised 2003 algorithm where possible)
Printlevel                                  ...      1
Contraction scheme used                     ... SEGMENTED contraction
Coulomb Range Separation                    ... NOT USED
Exchange Range Separation                   ... NOT USED
Finite Nucleus Model                        ... NOT USED
Auxiliary Coulomb fitting basis             ... AVAILABLE
   # of basis functions in Aux-J            ...   1905
   # of shells in Aux-J                     ...    655
   Maximum angular momentum in Aux-J        ...      4
Auxiliary J/K fitting basis                 ... NOT available
Auxiliary Correlation fitting basis         ... NOT available
Auxiliary 'external' fitting basis          ... NOT available
Integral threshold                          ...     3.000000e-11
Primitive cut-off                           ...     1.000000e-12
Primitive pair pre-selection threshold      ...     1.000000e-12

Calculating pre-screening integrals         ... done (  0.1 sec) Dimension = 335
Organizing shell pair data                  ... done (  0.2 sec)
Shell pair information
Total number of shell pairs                 ...     56280
Shell pairs after pre-screening             ...     31936
Total number of primitive shell pairs       ...    225367
Primitive shell pairs kept                  ...     75080
          la=0 lb=0:   9771 shell pairs
          la=1 lb=0:  13119 shell pairs
          la=1 lb=1:   4295 shell pairs
          la=2 lb=0:   2785 shell pairs
          la=2 lb=1:   1768 shell pairs
          la=2 lb=2:    198 shell pairs

Calculating one electron integrals          ... done (  0.1 sec)
Calculating RI/J V-Matrix + Cholesky decomp.... done (  0.2 sec)
Calculating Nuclear repulsion               ... done (  0.0 sec) ENN=   2799.653010439374 Eh

SHARK setup successfully completed in   0.7 seconds

Maximum memory used throughout the entire GTOINT-calculation: 61.4 MB


           ************************************************************
           *        Program running with 4 parallel MPI-processes     *
           *              working on a common directory               *
           ************************************************************
-------------------------------------------------------------------------------
                                 ORCA SCF
-------------------------------------------------------------------------------

------------
SCF SETTINGS
------------
Hamiltonian:
 Density Functional     Method          .... DFT(GTOs)
 Exchange Functional    Exchange        .... revTPSS
 Correlation Functional Correlation     .... revTPSS
 LDA part of GGA corr.  LDAOpt          .... PW91-LDA
 Gradients option       PostSCFGGA      .... off
   Density functional embedding theory  .... OFF
 RI-approximation to the Coulomb term is turned on
   Number of AuxJ basis functions       .... 1905


General Settings:
 Integral files         IntName         .... inpS
 Hartree-Fock type      HFTyp           .... RHF
 Total Charge           Charge          ....    0
 Multiplicity           Mult            ....    1
 Number of Electrons    NEL             ....  220
 Basis Dimension        Dim             ....  713
 Nuclear Repulsion      ENuc            ....   2799.6530104394 Eh

Convergence Acceleration:
 DIIS                   CNVDIIS         .... on
   Start iteration      DIISMaxIt       ....    12
   Startup error        DIISStart       ....  0.200000
   # of expansion vecs  DIISMaxEq       ....     5
   Bias factor          DIISBfac        ....   1.050
   Max. coefficient     DIISMaxC        ....  10.000
 Trust-Rad. Augm. Hess. CNVTRAH         .... auto
   Auto Start mean grad. ratio tolernc. ....  1.125000
   Auto Start start iteration           ....    20
   Auto Start num. interpolation iter.  ....    10
   Max. Number of Micro iterations      ....    16
   Max. Number of Macro iterations      .... Maxiter - #DIIS iter
   Number of Davidson start vectors     ....     2
   Converg. threshold I  (grad. norm)   ....   1.000e-04
   Converg. threshold II (energy diff.) ....   1.000e-07
   Grad. Scal. Fac. for Micro threshold ....   0.100
   Minimum threshold for Micro iter.    ....   0.010
   NR start threshold (gradient norm)   ....   0.001
   Initial trust radius                 ....   0.400
   Minimum AH scaling param. (alpha)    ....   1.000
   Maximum AH scaling param. (alpha)    .... 1000.000
   Orbital update algorithm             .... Taylor
   White noise on init. David. guess    .... on
   Maximum white noise                  ....   0.010
   Quad. conv. algorithm                .... NR
 SOSCF                  CNVSOSCF        .... off
 Level Shifting         CNVShift        .... on
   Level shift para.    LevelShift      ....    0.2500
   Turn off err/grad.   ShiftErr        ....    0.0010
 Zerner damping         CNVZerner       .... off
 Static damping         CNVDamp         .... on
   Fraction old density DampFac         ....    0.7000
   Max. Damping (<1)    DampMax         ....    0.9800
   Min. Damping (>=0)   DampMin         ....    0.0000
   Turn off err/grad.   DampErr         ....    0.1000
 Fernandez-Rico         CNVRico         .... off

SCF Procedure:
 Maximum # iterations   MaxIter         ....   125
 SCF integral mode      SCFMode         .... Direct
   Integral package                     .... SHARK and LIBINT hybrid scheme
 Reset frequency        DirectResetFreq ....    20
 Integral Threshold     Thresh          ....  3.000e-11 Eh
 Primitive CutOff       TCut            ....  1.000e-12 Eh

Convergence Tolerance:
 Convergence Check Mode ConvCheckMode   .... Total+1el-Energy
 Convergence forced     ConvForced      .... 0
 Energy Change          TolE            ....  1.000e-07 Eh
 1-El. energy change                    ....  1.000e-04 Eh
 DIIS Error             TolErr          ....  1.000e-07


Diagonalization of the overlap matrix:
Smallest eigenvalue                        ... 5.025e-04
Time for diagonalization                   ...    0.063 sec
Threshold for overlap eigenvalues          ... 1.000e-08
Number of eigenvalues below threshold      ... 0
Time for construction of square roots      ...    0.063 sec
Total time needed                          ...    0.129 sec

Time for model grid setup =    0.800 sec

------------------------------
INITIAL GUESS: MODEL POTENTIAL
------------------------------
Loading Hartree-Fock densities                     ... done
Calculating cut-offs                               ... done
Initializing the effective Hamiltonian             ... done
Setting up the integral package (SHARK)            ... done
Starting the Coulomb interaction                   ... done (   0.7 sec)
Reading the grid                                   ... done
Mapping shells                                     ... done
Starting the XC term evaluation                    ... done (   0.3 sec)
  promolecular density results
     # of electrons  =    219.977420229
     EX              =   -164.429485269
     EC              =     -7.327352613
     EX+EC           =   -171.756837881
Transforming the Hamiltonian                       ... done (   0.0 sec)
Diagonalizing the Hamiltonian                      ... done (   0.1 sec)
Back transforming the eigenvectors                 ... done (   0.0 sec)
Now organizing SCF variables                       ... done
                      ------------------
                      INITIAL GUESS DONE (   2.0 sec)
                      ------------------
-------------------
DFT GRID GENERATION
-------------------

General Integration Accuracy     IntAcc      ... 4.388
Radial Grid Type                 RadialGrid  ... OptM3 with GC (2021)
Angular Grid (max. ang.)         AngularGrid ... 4 (Lebedev-302)
Angular grid pruning method      GridPruning ... 4 (adaptive)
Weight generation scheme         WeightScheme... Becke
Basis function cutoff            BFCut       ... 1.0000e-11
Integration weight cutoff        WCut        ... 1.0000e-14
Angular grids for H and He will be reduced by one unit
Partially contracted basis set               ... off
Rotationally invariant grid construction     ... off

Total number of grid points                  ...   309813
Total number of batches                      ...     4883
Average number of points per batch           ...       63
Average number of grid points per atom       ...     4244
Time for grid setup =    3.464 sec


--------------------
CPCM SOLVATION MODEL
--------------------
CPCM parameters:
  Epsilon                                         ...       4.9000
  Refrac                                          ...       1.4500
  Rsolv                                           ...       1.3000
  Surface type                                    ... GAUSSIAN VDW
  Epsilon function type                           ...         CPCM
Radii:
 Radius for C  used is    3.8550 Bohr (=   2.0400 Ang.)
 Radius for H  used is    2.4944 Bohr (=   1.3200 Ang.)
 Radius for O  used is    3.4469 Bohr (=   1.8240 Ang.)
Calculating surface                               ...        done! (  0.0s)
GEPOL surface points                              ...         3610
GEPOL Volume                                      ...    3604.4862
GEPOL Surface-area                                ...    1786.0772
Calculating surface distance matrix               ...        done! (  0.1s)
Performing Cholesky decomposition & store         ...        done! (  0.4s)
Overall time for CPCM initialization              ...                 0.5s
--------------
SCF ITERATIONS
--------------
ITER       Energy         Delta-E        Max-DP      RMS-DP      [F,P]     Damp
               ***  Starting incremental Fock matrix formation  ***

  HOMO= 109 E= -1.944 eV LUMO=  7.770 eV gap=   9.714 eV
  0  -1167.5229085838   0.000000000000 0.05600005  0.00083295  0.2631516 0.7000

  HOMO= 109 E= -3.448 eV LUMO=  6.672 eV gap=  10.120 eV
  1  -1167.8963348828  -0.373426298912 0.02896273  0.00061553  0.1013726 0.7000
                               ***Turning on DIIS***

  HOMO= 109 E= -4.418 eV LUMO=  5.790 eV gap=  10.207 eV
  2  -1168.0424881789  -0.146153296191 0.04813792  0.00101476  0.0318812 0.0000

  HOMO= 109 E= -5.038 eV LUMO=  5.207 eV gap=  10.244 eV
  3  -1168.2401908709  -0.197702691912 0.02325669  0.00047608  0.0544343 0.0000

  HOMO= 109 E= -5.062 eV LUMO=  5.183 eV gap=  10.245 eV
  4  -1168.3069341093  -0.066743238447 0.00758819  0.00015265  0.0103744 0.0000

  HOMO= 109 E= -5.017 eV LUMO=  5.235 eV gap=  10.252 eV
  5  -1168.3100021598  -0.003068050541 0.00339484  0.00005698  0.0101866 0.0000

  HOMO= 109 E= -4.997 eV LUMO=  5.252 eV gap=  10.249 eV
  6  -1168.3102721810  -0.000270021138 0.00125797  0.00001923  0.0030019 0.0000

  HOMO= 109 E= -4.999 eV LUMO= -1.553 eV gap=   3.446 eV
  7  -1168.3102921539  -0.000019972934 0.00069823  0.00001167  0.0005210 0.0000

  HOMO= 109 E= -4.997 eV LUMO= -1.551 eV gap=   3.446 eV
  8  -1168.3102951621  -0.000003008154 0.00025258  0.00000287  0.0003914 0.0000

  HOMO= 109 E= -4.995 eV LUMO= -1.549 eV gap=   3.446 eV
  9  -1168.3102958047  -0.000000642608 0.00014651  0.00000151  0.0002288 0.0000

  HOMO= 109 E= -4.996 eV LUMO= -1.549 eV gap=   3.446 eV
 10  -1168.3102960576  -0.000000252910 0.00006964  0.00000070  0.0000886 0.0000

  HOMO= 109 E= -4.996 eV LUMO= -1.550 eV gap=   3.446 eV
 11  -1168.3102960742  -0.000000016627 0.00003039  0.00000028  0.0000287 0.0000

  HOMO= 109 E= -4.996 eV LUMO= -1.550 eV gap=   3.446 eV
 12  -1168.3102960759  -0.000000001701 0.00001552  0.00000014  0.0000185 0.0000

  HOMO= 109 E= -4.996 eV LUMO= -1.550 eV gap=   3.446 eV
 13  -1168.3102961036  -0.000000027651 0.00000708  0.00000006  0.0000080 0.0000
                 **** Energy Check signals convergence ****

               *****************************************************
               *                     SUCCESS                       *
               *           SCF CONVERGED AFTER  14 CYCLES          *
               *****************************************************


----------------
TOTAL SCF ENERGY
----------------

Total Energy       :        -1168.31029611 Eh          -31791.33940 eV

Components:
Nuclear Repulsion  :         2799.65301044 Eh           76182.43145 eV
Electronic Energy  :        -3967.96330655 Eh         -107973.77085 eV
One Electron Energy:        -7145.44886740 Eh         -194437.54870 eV
Two Electron Energy:         3177.48556085 Eh           86463.77784 eV
CPCM Dielectric    :           -0.00924659 Eh              -0.25161 eV

Virial components:
Potential Energy   :        -2330.40831164 Eh          -63413.63405 eV
Kinetic Energy     :         1162.09801553 Eh           31622.29465 eV
Virial Ratio       :            2.00534575


DFT components:
N(Alpha)           :      110.000188004675 electrons
N(Beta)            :      110.000188004675 electrons
N(Total)           :      220.000376009350 electrons
E(X)               :     -169.582983123335 Eh       
E(C)               :       -7.443944399262 Eh       
E(XC)              :     -177.026927522597 Eh       
DFET-embed. en.    :        0.000000000000 Eh       
CPCM Solvation Model Properties:
Surface-charge          :           -0.04526376
Charge-correction       :           -0.00006724 Eh              -0.00183 eV
Free-energy (cav+disp)  :  This term is not implemented in the current solvation scheme

---------------
SCF CONVERGENCE
---------------

  Last Energy change         ...   -1.0394e-08  Tolerance :   1.0000e-07
  Last MAX-Density change    ...    2.8737e-06  Tolerance :   1.0000e-05
  Last RMS-Density change    ...    2.9222e-08  Tolerance :   1.0000e-06
  Last DIIS Error            ...    3.6426e-06  Tolerance :   1.0000e-07

             **** THE GBW FILE WAS UPDATED (inpS.gbw) ****
             **** DENSITY inpS.scfp WAS UPDATED ****
             **** ENERGY FILE WAS UPDATED (inpS.en.tmp) ****
             **** THE GBW FILE WAS UPDATED (inpS.gbw) ****
             **** DENSITY inpS.scfp WAS UPDATED ****
----------------
ORBITAL ENERGIES
----------------

  NO   OCC          E(Eh)            E(eV) 
   0   2.0000     -18.903741      -514.3969 
   1   2.0000     -10.057299      -273.6730 
   2   2.0000     -10.016463      -272.5618 
   3   2.0000     -10.014798      -272.5165 
   4   2.0000     -10.012199      -272.4458 
   5   2.0000     -10.012179      -272.4452 
   6   2.0000     -10.012148      -272.4444 
   7   2.0000     -10.011864      -272.4367 
   8   2.0000     -10.009836      -272.3815 
   9   2.0000     -10.009725      -272.3785 
  10   2.0000     -10.008879      -272.3555 
  11   2.0000     -10.007631      -272.3215 
  12   2.0000     -10.007338      -272.3135 
  13   2.0000     -10.006330      -272.2861 
  14   2.0000     -10.006174      -272.2818 
  15   2.0000     -10.005353      -272.2595 
  16   2.0000     -10.004944      -272.2484 
  17   2.0000     -10.000999      -272.1410 
  18   2.0000     -10.000562      -272.1291 
  19   2.0000      -9.999530      -272.1010 
  20   2.0000      -9.999262      -272.0938 
  21   2.0000      -9.998998      -272.0866 
  22   2.0000      -9.998745      -272.0797 
  23   2.0000      -9.998656      -272.0773 
  24   2.0000      -9.997150      -272.0363 
  25   2.0000      -9.996130      -272.0085 
  26   2.0000      -9.995700      -271.9968 
  27   2.0000      -9.995355      -271.9874 
  28   2.0000      -9.995255      -271.9847 
  29   2.0000      -0.954335       -25.9688 
  30   2.0000      -0.807896       -21.9840 
  31   2.0000      -0.789616       -21.4865 
  32   2.0000      -0.770023       -20.9534 
  33   2.0000      -0.756585       -20.5877 
  34   2.0000      -0.734606       -19.9896 
  35   2.0000      -0.728104       -19.8127 
  36   2.0000      -0.708968       -19.2920 
  37   2.0000      -0.708872       -19.2894 
  38   2.0000      -0.693893       -18.8818 
  39   2.0000      -0.676025       -18.3956 
  40   2.0000      -0.657974       -17.9044 
  41   2.0000      -0.654432       -17.8080 
  42   2.0000      -0.635947       -17.3050 
  43   2.0000      -0.629554       -17.1310 
  44   2.0000      -0.625660       -17.0251 
  45   2.0000      -0.619545       -16.8587 
  46   2.0000      -0.591319       -16.0906 
  47   2.0000      -0.588578       -16.0160 
  48   2.0000      -0.559033       -15.2121 
  49   2.0000      -0.547756       -14.9052 
  50   2.0000      -0.541554       -14.7364 
  51   2.0000      -0.537256       -14.6195 
  52   2.0000      -0.526357       -14.3229 
  53   2.0000      -0.509402       -13.8615 
  54   2.0000      -0.494036       -13.4434 
  55   2.0000      -0.475539       -12.9401 
  56   2.0000      -0.472787       -12.8652 
  57   2.0000      -0.463443       -12.6109 
  58   2.0000      -0.451335       -12.2814 
  59   2.0000      -0.445206       -12.1147 
  60   2.0000      -0.436249       -11.8709 
  61   2.0000      -0.430390       -11.7115 
  62   2.0000      -0.420073       -11.4308 
  63   2.0000      -0.417183       -11.3521 
  64   2.0000      -0.413601       -11.2546 
  65   2.0000      -0.407704       -11.0942 
  66   2.0000      -0.404617       -11.0102 
  67   2.0000      -0.397913       -10.8278 
  68   2.0000      -0.396334       -10.7848 
  69   2.0000      -0.392211       -10.6726 
  70   2.0000      -0.389591       -10.6013 
  71   2.0000      -0.383906       -10.4466 
  72   2.0000      -0.378598       -10.3022 
  73   2.0000      -0.371772       -10.1164 
  74   2.0000      -0.369334       -10.0501 
  75   2.0000      -0.362508        -9.8644 
  76   2.0000      -0.360386        -9.8066 
  77   2.0000      -0.357637        -9.7318 
  78   2.0000      -0.354509        -9.6467 
  79   2.0000      -0.349176        -9.5016 
  80   2.0000      -0.347154        -9.4465 
  81   2.0000      -0.345756        -9.4085 
  82   2.0000      -0.341102        -9.2819 
  83   2.0000      -0.338470        -9.2102 
  84   2.0000      -0.331971        -9.0334 
  85   2.0000      -0.326234        -8.8773 
  86   2.0000      -0.325596        -8.8599 
  87   2.0000      -0.323020        -8.7898 
  88   2.0000      -0.318074        -8.6552 
  89   2.0000      -0.310322        -8.4443 
  90   2.0000      -0.309781        -8.4296 
  91   2.0000      -0.308147        -8.3851 
  92   2.0000      -0.304834        -8.2950 
  93   2.0000      -0.296884        -8.0786 
  94   2.0000      -0.290694        -7.9102 
  95   2.0000      -0.286098        -7.7851 
  96   2.0000      -0.283101        -7.7036 
  97   2.0000      -0.282052        -7.6750 
  98   2.0000      -0.281570        -7.6619 
  99   2.0000      -0.279794        -7.6136 
 100   2.0000      -0.276205        -7.5159 
 101   2.0000      -0.272806        -7.4234 
 102   2.0000      -0.271186        -7.3794 
 103   2.0000      -0.267886        -7.2896 
 104   2.0000      -0.259724        -7.0675 
 105   2.0000      -0.249510        -6.7895 
 106   2.0000      -0.229746        -6.2517 
 107   2.0000      -0.228780        -6.2254 
 108   2.0000      -0.213290        -5.8039 
 109   2.0000      -0.183590        -4.9957 
 110   0.0000      -0.056945        -1.5495 
 111   0.0000      -0.014269        -0.3883 
 112   0.0000      -0.007169        -0.1951 
 113   0.0000       0.029277         0.7967 
 114   0.0000       0.037477         1.0198 
 115   0.0000       0.040005         1.0886 
 116   0.0000       0.046041         1.2529 
 117   0.0000       0.047544         1.2937 
 118   0.0000       0.053246         1.4489 
 119   0.0000       0.059448         1.6177 
 120   0.0000       0.060962         1.6589 
 121   0.0000       0.064421         1.7530 
 122   0.0000       0.071216         1.9379 
 123   0.0000       0.074786         2.0350 
 124   0.0000       0.080041         2.1780 
 125   0.0000       0.082341         2.2406 
 126   0.0000       0.083352         2.2681 
 127   0.0000       0.087385         2.3779 
 128   0.0000       0.088517         2.4087 
 129   0.0000       0.092447         2.5156 
 130   0.0000       0.095484         2.5982 
 131   0.0000       0.100123         2.7245 
 132   0.0000       0.105090         2.8596 
 133   0.0000       0.107470         2.9244 
 134   0.0000       0.109191         2.9712 
 135   0.0000       0.111073         3.0224 
 136   0.0000       0.114976         3.1287 
 137   0.0000       0.117777         3.2049 
 138   0.0000       0.121520         3.3067 
 139   0.0000       0.122302         3.3280 
 140   0.0000       0.126553         3.4437 
 141   0.0000       0.128145         3.4870 
 142   0.0000       0.130382         3.5479 
 143   0.0000       0.133760         3.6398 
 144   0.0000       0.136181         3.7057 
 145   0.0000       0.137868         3.7516 
 146   0.0000       0.140383         3.8200 
 147   0.0000       0.145069         3.9475 
 148   0.0000       0.147935         4.0255 
 149   0.0000       0.151250         4.1157 
 150   0.0000       0.154134         4.1942 
 151   0.0000       0.157668         4.2904 
 152   0.0000       0.160493         4.3672 
 153   0.0000       0.163687         4.4541 
 154   0.0000       0.169746         4.6190 
 155   0.0000       0.173353         4.7172 
 156   0.0000       0.174675         4.7532 
 157   0.0000       0.177900         4.8409 
 158   0.0000       0.178938         4.8692 
 159   0.0000       0.186403         5.0723 
 160   0.0000       0.189436         5.1548 
 161   0.0000       0.191123         5.2007 
 162   0.0000       0.195270         5.3136 
 163   0.0000       0.199564         5.4304 
 164   0.0000       0.203392         5.5346 
 165   0.0000       0.205787         5.5998 
 166   0.0000       0.207345         5.6421 
 167   0.0000       0.210101         5.7171 
 168   0.0000       0.213982         5.8228 
 169   0.0000       0.218737         5.9521 
 170   0.0000       0.221143         6.0176 
 171   0.0000       0.229777         6.2525 
 172   0.0000       0.235074         6.3967 
 173   0.0000       0.235980         6.4213 
 174   0.0000       0.239964         6.5298 
 175   0.0000       0.245346         6.6762 
 176   0.0000       0.253365         6.8944 
 177   0.0000       0.255756         6.9595 
 178   0.0000       0.260138         7.0787 
 179   0.0000       0.268313         7.3012 
 180   0.0000       0.278145         7.5687 
 181   0.0000       0.283641         7.7183 
 182   0.0000       0.288208         7.8425 
 183   0.0000       0.293354         7.9826 
 184   0.0000       0.299581         8.1520 
 185   0.0000       0.327545         8.9130 
 186   0.0000       0.335209         9.1215 
 187   0.0000       0.336828         9.1655 
 188   0.0000       0.340690         9.2707 
 189   0.0000       0.353985         9.6324 
 190   0.0000       0.359335         9.7780 
 191   0.0000       0.361076         9.8254 
 192   0.0000       0.367842        10.0095 
 193   0.0000       0.372244        10.1293 
 194   0.0000       0.378097        10.2885 
 195   0.0000       0.380829        10.3629 
 196   0.0000       0.385103        10.4792 
 197   0.0000       0.390971        10.6389 
 198   0.0000       0.394183        10.7263 
 199   0.0000       0.397073        10.8049 
 200   0.0000       0.402412        10.9502 
 201   0.0000       0.407905        11.0996 
 202   0.0000       0.409493        11.1429 
 203   0.0000       0.417992        11.3741 
 204   0.0000       0.420308        11.4372 
 205   0.0000       0.425565        11.5802 
 206   0.0000       0.429536        11.6883 
 207   0.0000       0.436581        11.8800 
 208   0.0000       0.444529        12.0962 
 209   0.0000       0.451891        12.2966 
 210   0.0000       0.456056        12.4099 
 211   0.0000       0.462668        12.5898 
 212   0.0000       0.470751        12.8098 
 213   0.0000       0.474910        12.9230 
 214   0.0000       0.479544        13.0491 
 215   0.0000       0.482365        13.1258 
 216   0.0000       0.486593        13.2409 
 217   0.0000       0.491761        13.3815 
 218   0.0000       0.497011        13.5244 
 219   0.0000       0.500899        13.6302 
 220   0.0000       0.505220        13.7477 
 221   0.0000       0.511286        13.9128 
 222   0.0000       0.513741        13.9796 
 223   0.0000       0.519489        14.1360 
 224   0.0000       0.522499        14.2179 
 225   0.0000       0.525783        14.3073 
 226   0.0000       0.533971        14.5301 
 227   0.0000       0.536933        14.6107 
 228   0.0000       0.539777        14.6881 
 229   0.0000       0.541416        14.7327 
 230   0.0000       0.544806        14.8249 
 231   0.0000       0.553308        15.0563 
 232   0.0000       0.554610        15.0917 
 233   0.0000       0.560059        15.2400 
 234   0.0000       0.566248        15.4084 
 235   0.0000       0.567319        15.4375 
 236   0.0000       0.570115        15.5136 
 237   0.0000       0.572297        15.5730 
 238   0.0000       0.575553        15.6616 
 239   0.0000       0.580358        15.7924 
 240   0.0000       0.581280        15.8174 
 241   0.0000       0.584483        15.9046 
 242   0.0000       0.587688        15.9918 
 243   0.0000       0.590139        16.0585 
 244   0.0000       0.595865        16.2143 
 245   0.0000       0.596596        16.2342 
 246   0.0000       0.598274        16.2799 
 247   0.0000       0.602393        16.3920 
 248   0.0000       0.603752        16.4289 
 249   0.0000       0.605519        16.4770 
 250   0.0000       0.607202        16.5228 
 251   0.0000       0.608702        16.5636 
 252   0.0000       0.609525        16.5860 
 253   0.0000       0.611120        16.6294 
 254   0.0000       0.615769        16.7559 
 255   0.0000       0.619358        16.8536 
 256   0.0000       0.624581        16.9957 
 257   0.0000       0.626229        17.0405 
 258   0.0000       0.628059        17.0904 
 259   0.0000       0.632744        17.2178 
 260   0.0000       0.636091        17.3089 
 261   0.0000       0.638488        17.3741 
 262   0.0000       0.642145        17.4737 
 263   0.0000       0.642404        17.4807 
 264   0.0000       0.644546        17.5390 
 265   0.0000       0.647767        17.6266 
 266   0.0000       0.649686        17.6789 
 267   0.0000       0.654873        17.8200 
 268   0.0000       0.656930        17.8760 
 269   0.0000       0.661391        17.9974 
 270   0.0000       0.662365        18.0239 
 271   0.0000       0.665911        18.1204 
 272   0.0000       0.669080        18.2066 
 273   0.0000       0.670110        18.2346 
 274   0.0000       0.676983        18.4216 
 275   0.0000       0.682493        18.5716 
 276   0.0000       0.685228        18.6460 
 277   0.0000       0.687195        18.6995 
 278   0.0000       0.690911        18.8006 
 279   0.0000       0.696011        18.9394 
 280   0.0000       0.700627        19.0650 
 281   0.0000       0.702191        19.1076 
 282   0.0000       0.707027        19.2392 
 283   0.0000       0.709507        19.3067 
 284   0.0000       0.715894        19.4805 
 285   0.0000       0.720593        19.6083 
 286   0.0000       0.725147        19.7323 
 287   0.0000       0.728905        19.8345 
 288   0.0000       0.732547        19.9336 
 289   0.0000       0.738597        20.0983 
 290   0.0000       0.741344        20.1730 
 291   0.0000       0.747729        20.3468 
 292   0.0000       0.750367        20.4185 
 293   0.0000       0.761442        20.7199 
 294   0.0000       0.764926        20.8147 
 295   0.0000       0.769041        20.9267 
 296   0.0000       0.773442        21.0464 
 297   0.0000       0.775136        21.0925 
 298   0.0000       0.783805        21.3284 
 299   0.0000       0.784897        21.3581 
 300   0.0000       0.802323        21.8323 
 301   0.0000       0.810322        22.0500 
 302   0.0000       0.817068        22.2336 
 303   0.0000       0.835739        22.7416 
 304   0.0000       0.846747        23.0412 
 305   0.0000       0.852884        23.2082 
 306   0.0000       0.863711        23.5028 
 307   0.0000       0.872569        23.7438 
 308   0.0000       0.892510        24.2864 
 309   0.0000       0.896858        24.4048 
 310   0.0000       0.932666        25.3791 
 311   0.0000       0.938680        25.5428 
 312   0.0000       0.951400        25.8889 
 313   0.0000       0.970116        26.3982 
 314   0.0000       0.978484        26.6259 
 315   0.0000       0.989541        26.9268 
 316   0.0000       1.005031        27.3483 
 317   0.0000       1.022068        27.8119 
 318   0.0000       1.026387        27.9294 
 319   0.0000       1.037565        28.2336 
 320   0.0000       1.045673        28.4542 
 321   0.0000       1.056957        28.7613 
 322   0.0000       1.061066        28.8731 
 323   0.0000       1.074718        29.2446 
 324   0.0000       1.092329        29.7238 
 325   0.0000       1.113745        30.3065 
 326   0.0000       1.117531        30.4096 
 327   0.0000       1.134854        30.8810 
 328   0.0000       1.160406        31.5762 
 329   0.0000       1.177994        32.0548 
 330   0.0000       1.185806        32.2674 
 331   0.0000       1.189277        32.3619 
 332   0.0000       1.216706        33.1083 
 333   0.0000       1.241491        33.7827 
 334   0.0000       1.249591        34.0031 
 335   0.0000       1.265048        34.4237 
 336   0.0000       1.274217        34.6732 
 337   0.0000       1.292005        35.1572 
 338   0.0000       1.299709        35.3669 
 339   0.0000       1.308353        35.6021 
 340   0.0000       1.329992        36.1909 
 341   0.0000       1.334921        36.3250 
 342   0.0000       1.342578        36.5334 
 343   0.0000       1.357117        36.9290 
 344   0.0000       1.363538        37.1038 
 345   0.0000       1.379839        37.5473 
 346   0.0000       1.393900        37.9300 
 347   0.0000       1.396016        37.9875 
 348   0.0000       1.413200        38.4551 
 349   0.0000       1.415182        38.5091 
 350   0.0000       1.430661        38.9303 
 351   0.0000       1.435745        39.0686 
 352   0.0000       1.437580        39.1185 
 353   0.0000       1.450464        39.4691 
 354   0.0000       1.463127        39.8137 
 355   0.0000       1.465091        39.8671 
 356   0.0000       1.477932        40.2166 
 357   0.0000       1.487988        40.4902 
 358   0.0000       1.502707        40.8907 
 359   0.0000       1.507880        41.0315 
 360   0.0000       1.517385        41.2901 
 361   0.0000       1.521775        41.4096 
 362   0.0000       1.529159        41.6105 
 363   0.0000       1.538930        41.8764 
 364   0.0000       1.547465        42.1087 
 365   0.0000       1.555287        42.3215 
 366   0.0000       1.572963        42.8025 
 367   0.0000       1.588465        43.2243 
 368   0.0000       1.590864        43.2896 
 369   0.0000       1.601910        43.5902 
 370   0.0000       1.611482        43.8507 
 371   0.0000       1.620091        44.0849 
 372   0.0000       1.624611        44.2079 
 373   0.0000       1.635644        44.5081 
 374   0.0000       1.645525        44.7770 
 375   0.0000       1.657524        45.1035 
 376   0.0000       1.669793        45.4374 
 377   0.0000       1.672541        45.5121 
 378   0.0000       1.681739        45.7624 
 379   0.0000       1.683017        45.7972 
 380   0.0000       1.689485        45.9732 
 381   0.0000       1.693320        46.0776 
 382   0.0000       1.699531        46.2466 
 383   0.0000       1.704741        46.3884 
 384   0.0000       1.713993        46.6401 
 385   0.0000       1.719446        46.7885 
 386   0.0000       1.721112        46.8338 
 387   0.0000       1.728318        47.0299 
 388   0.0000       1.731457        47.1153 
 389   0.0000       1.734544        47.1993 
 390   0.0000       1.745816        47.5061 
 391   0.0000       1.753081        47.7038 
 392   0.0000       1.754684        47.7474 
 393   0.0000       1.759957        47.8909 
 394   0.0000       1.767649        48.1002 
 395   0.0000       1.770900        48.1886 
 396   0.0000       1.782887        48.5148 
 397   0.0000       1.784351        48.5547 
 398   0.0000       1.789050        48.6825 
 399   0.0000       1.791758        48.7562 
 400   0.0000       1.799738        48.9734 
 401   0.0000       1.808111        49.2012 
 402   0.0000       1.809524        49.2397 
 403   0.0000       1.818665        49.4884 
 404   0.0000       1.820107        49.5276 
 405   0.0000       1.824582        49.6494 
 406   0.0000       1.836303        49.9683 
 407   0.0000       1.839830        50.0643 
 408   0.0000       1.846816        50.2544 
 409   0.0000       1.851923        50.3934 
 410   0.0000       1.861428        50.6520 
 411   0.0000       1.869221        50.8641 
 412   0.0000       1.872111        50.9427 
 413   0.0000       1.875964        51.0476 
 414   0.0000       1.889249        51.4091 
 415   0.0000       1.892038        51.4850 
 416   0.0000       1.896097        51.5954 
 417   0.0000       1.909396        51.9573 
 418   0.0000       1.909876        51.9704 
 419   0.0000       1.915542        52.1245 
 420   0.0000       1.930538        52.5326 
 421   0.0000       1.933991        52.6266 
 422   0.0000       1.941549        52.8322 
 423   0.0000       1.952530        53.1310 
 424   0.0000       1.955996        53.2254 
 425   0.0000       1.958134        53.2835 
 426   0.0000       1.965582        53.4862 
 427   0.0000       1.970554        53.6215 
 428   0.0000       1.973958        53.7141 
 429   0.0000       1.980642        53.8960 
 430   0.0000       1.983617        53.9770 
 431   0.0000       1.987412        54.0802 
 432   0.0000       1.991920        54.2029 
 433   0.0000       1.994265        54.2667 
 434   0.0000       1.997270        54.3485 
 435   0.0000       2.002732        54.4971 
 436   0.0000       2.004523        54.5458 
 437   0.0000       2.011233        54.7284 
 438   0.0000       2.012912        54.7741 
 439   0.0000       2.016162        54.8626 
 440   0.0000       2.019755        54.9603 
 441   0.0000       2.029518        55.2260 
 442   0.0000       2.029916        55.2368 
 443   0.0000       2.042923        55.5908 
[...]

 --------------
 Nucleus  47H :
 --------------

Diamagnetic contribution to the shielding tensor (ppm) : 
            33.826         -3.833        -5.871
            -5.091         38.136         6.825
            -5.365          8.252        43.915

Paramagnetic contribution to the shielding tensor (ppm): 
            -2.386          1.985         3.680
             2.976        -10.280        -3.579
             2.454         -4.339        -9.377

Total shielding tensor (ppm): 
            31.440         -1.849        -2.191
            -2.115         27.856         3.246
            -2.911          3.913        34.538


 Diagonalized sT*s matrix:
 
 sDSO            33.112           31.451           51.313  iso=      38.626
 sPSO            -6.961           -1.446          -13.636  iso=      -7.348
        ---------------  ---------------  ---------------
 Total           26.152           30.005           37.678  iso=      31.278

 --------------
 Nucleus  48H :
 --------------

Diamagnetic contribution to the shielding tensor (ppm) : 
            36.344         -0.618        -2.578
            -3.554         40.074        -6.252
            -0.177         -1.574        41.546

Paramagnetic contribution to the shielding tensor (ppm): 
            -5.127          1.797         2.932
             4.045        -12.854         3.555
             0.172         -0.368       -10.475

Total shielding tensor (ppm): 
            31.217          1.180         0.354
             0.492         27.220        -2.697
            -0.005         -1.942        31.071


 Diagonalized sT*s matrix:
 
 sDSO            38.148           35.687           44.130  iso=      39.322
 sPSO           -12.148           -4.382          -11.926  iso=      -9.485
        ---------------  ---------------  ---------------
 Total           25.999           31.305           32.204  iso=      29.836

 --------------
 Nucleus  52H :
 --------------

Diamagnetic contribution to the shielding tensor (ppm) : 
            42.756          2.752        -7.705
             5.555         28.628        -4.073
            -6.958         -4.148        40.753

Paramagnetic contribution to the shielding tensor (ppm): 
           -16.052         -0.607         9.724
            -3.065         -3.460         6.407
             8.074          5.670       -14.252

Total shielding tensor (ppm): 
            26.704          2.145         2.019
             2.490         25.168         2.334
             1.115          1.522        26.501


 Diagonalized sT*s matrix:
 
 sDSO            29.426           49.511           33.200  iso=      37.379
 sPSO            -6.133          -24.467           -3.165  iso=     -11.255
        ---------------  ---------------  ---------------
 Total           23.293           25.044           30.035  iso=      26.124

 --------------
 Nucleus  53H :
 --------------

Diamagnetic contribution to the shielding tensor (ppm) : 
            46.261          2.482        -6.850
             1.696         42.487        -2.003
            -6.892          2.391        41.547

Paramagnetic contribution to the shielding tensor (ppm): 
           -18.334         -0.400        13.353
             0.766        -17.161         6.527
            11.890          0.785       -16.391

Total shielding tensor (ppm): 
            27.926          2.082         6.503
             2.462         25.326         4.523
             4.998          3.175        25.156


 Diagonalized sT*s matrix:
 
 sDSO            48.669           42.191           39.434  iso=      43.431
 sPSO           -28.697          -18.158           -5.031  iso=     -17.295
        ---------------  ---------------  ---------------
 Total           19.972           24.034           34.403  iso=      26.136

 --------------
 Nucleus  57H :
 --------------

Diamagnetic contribution to the shielding tensor (ppm) : 
            44.139          3.741        -5.821
            -0.448         22.938        -1.314
           -12.014         -7.700        42.863

Paramagnetic contribution to the shielding tensor (ppm): 
           -14.117         -2.767         3.189
             0.857          4.925         3.155
            10.665          9.509       -10.984

Total shielding tensor (ppm): 
            30.022          0.975        -2.632
             0.409         27.863         1.841
            -1.350          1.808        31.879


 Diagonalized sT*s matrix:
 
 sDSO            28.989           33.921           47.030  iso=      36.647
 sPSO            -2.440           -4.123          -13.613  iso=      -6.725
        ---------------  ---------------  ---------------
 Total           26.548           29.798           33.417  iso=      29.921

 --------------
 Nucleus  58H :
 --------------

Diamagnetic contribution to the shielding tensor (ppm) : 
            33.039         -1.491         2.190
            10.841         41.001         5.904
            -0.354         -8.035        37.179

Paramagnetic contribution to the shielding tensor (ppm): 
            -4.054          1.705         1.151
           -10.488        -10.404        -7.967
             3.331          6.316        -5.773

Total shielding tensor (ppm): 
            28.984          0.213         3.341
             0.353         30.597        -2.062
             2.976         -1.719        31.406


 Diagonalized sT*s matrix:
 
 sDSO            31.841           42.845           36.532  iso=      37.073
 sPSO            -5.460          -12.402           -2.368  iso=      -6.744
        ---------------  ---------------  ---------------
 Total           26.381           30.443           34.163  iso=      30.329

 --------------
 Nucleus  61H :
 --------------

Diamagnetic contribution to the shielding tensor (ppm) : 
            35.122          2.909        -6.174
            -5.618         18.163        -6.298
            -6.453         -8.183        42.484

Paramagnetic contribution to the shielding tensor (ppm): 
            -5.420         -3.117         4.790
             5.535         11.416         3.265
             4.116          5.987        -8.807

Total shielding tensor (ppm): 
            29.701         -0.208        -1.384
            -0.084         29.579        -3.033
            -2.337         -2.196        33.677


 Diagonalized sT*s matrix:
 
 sDSO            18.977           30.718           46.073  iso=      31.923
 sPSO             8.769           -0.920          -10.660  iso=      -0.937
        ---------------  ---------------  ---------------
 Total           27.746           29.798           35.412  iso=      30.986

 --------------
 Nucleus  62H :
 --------------

Diamagnetic contribution to the shielding tensor (ppm) : 
            43.481          4.804         6.458
            -5.607          6.415         1.307
             0.836          2.354        32.875

Paramagnetic contribution to the shielding tensor (ppm): 
            -9.095         -3.574        -1.168
             5.963         23.094        -1.955
             4.752         -1.992        -4.686

Total shielding tensor (ppm): 
            34.386          1.229         5.290
             0.356         29.509        -0.648
             5.588          0.362        28.189


 Diagonalized sT*s matrix:
 
 sDSO            32.464            6.483           43.825  iso=      27.591
 sPSO            -7.496           23.041           -6.233  iso=       3.104
        ---------------  ---------------  ---------------
 Total           24.968           29.523           37.593  iso=      30.695

 --------------
 Nucleus  63H :
 --------------

Diamagnetic contribution to the shielding tensor (ppm) : 
            33.519         -5.284         2.927
           -19.073         25.198       -11.410
            -1.485         -0.070        28.078

Paramagnetic contribution to the shielding tensor (ppm): 
            -3.761          1.667        -1.350
            15.095         10.189        12.255
             2.726          0.744         0.213

Total shielding tensor (ppm): 
            29.758         -3.617         1.577
            -3.978         35.388         0.845
             1.242          0.674        28.290


 Diagonalized sT*s matrix:
 
 sDSO            26.505           23.642           36.648  iso=      28.932
 sPSO            -0.053            6.042            0.652  iso=       2.214
        ---------------  ---------------  ---------------
 Total           26.452           29.684           37.300  iso=      31.145

 --------------
 Nucleus  64H :
 --------------

Diamagnetic contribution to the shielding tensor (ppm) : 
            37.030         10.607        -2.711
            11.602         14.617         3.749
           -12.455         -9.064        25.021

Paramagnetic contribution to the shielding tensor (ppm): 
            -3.040         -7.919        -2.405
            -8.067         13.810        -4.405
             8.603          8.739         5.093

Total shielding tensor (ppm): 
            33.990          2.687        -5.116
             3.536         28.427        -0.656
            -3.851         -0.325        30.115


 Diagonalized sT*s matrix:
 
 sDSO            14.042           18.287           44.340  iso=      25.556
 sPSO            12.053           10.323           -6.513  iso=       5.288
        ---------------  ---------------  ---------------
 Total           26.095           28.610           37.827  iso=      30.844

 --------------
 Nucleus  65H :
 --------------

Diamagnetic contribution to the shielding tensor (ppm) : 
            31.181          6.611         8.820
             6.425         11.932         2.478
             9.367         -0.218        32.535

Paramagnetic contribution to the shielding tensor (ppm): 
             0.739         -5.505        -4.221
            -4.725         17.614        -2.240
            -5.192         -0.029        -1.597

Total shielding tensor (ppm): 
            31.920          1.106         4.599
             1.700         29.547         0.238
             4.175         -0.247        30.938


 Diagonalized sT*s matrix:
 
 sDSO            19.352           14.485           41.811  iso=      25.216
 sPSO             7.340           15.213           -5.797  iso=       5.585
        ---------------  ---------------  ---------------
 Total           26.693           29.698           36.014  iso=      30.802

 --------------
 Nucleus  66H :
 --------------

Diamagnetic contribution to the shielding tensor (ppm) : 
            19.740          4.609         5.417
            21.329         35.842         6.616
             2.679          0.001        16.389

Paramagnetic contribution to the shielding tensor (ppm): 
             8.971         -2.004        -5.160
           -19.325          1.298        -5.456
            -2.892          1.564         9.944

Total shielding tensor (ppm): 
            28.712          2.605         0.256
             2.004         37.140         1.160
            -0.213          1.565        26.333


 Diagonalized sT*s matrix:
 
 sDSO            16.410           13.997           41.566  iso=      23.991
 sPSO             9.722           14.176           -3.684  iso=       6.738
        ---------------  ---------------  ---------------
 Total           26.132           28.172           37.881  iso=      30.728

 --------------
 Nucleus  67H :
 --------------

Diamagnetic contribution to the shielding tensor (ppm) : 
            39.364         -1.354        -8.419
            14.713         37.672        12.533
            -2.077         11.399        38.040

Paramagnetic contribution to the shielding tensor (ppm): 
            -3.142          5.227         8.641
           -11.620         -9.438        -9.058
             1.378         -8.972       -10.703

Total shielding tensor (ppm): 
            36.222          3.873         0.222
             3.093         28.234         3.475
            -0.699          2.426        27.337


 Diagonalized sT*s matrix:
 
 sDSO            22.952           48.450           43.675  iso=      38.359
 sPSO             1.305          -18.508           -6.079  iso=      -7.761
        ---------------  ---------------  ---------------
 Total           24.256           29.941           37.596  iso=      30.598

 --------------
 Nucleus  68H :
 --------------

Diamagnetic contribution to the shielding tensor (ppm) : 
            20.814         -9.354        -6.473
             8.695         44.035        10.535
             3.852         10.926        34.601

Paramagnetic contribution to the shielding tensor (ppm): 
             9.122          6.397         4.583
           -11.297         -9.080        -7.329
            -5.412         -7.455        -6.428

Total shielding tensor (ppm): 
            29.935         -2.957        -1.890
            -2.602         34.955         3.206
            -1.560          3.472        28.173


 Diagonalized sT*s matrix:
 
 sDSO            28.269           24.559           46.621  iso=      33.150
 sPSO            -1.599            4.161           -8.948  iso=      -2.128
        ---------------  ---------------  ---------------
 Total           26.671           28.721           37.673  iso=      31.021

 --------------
 Nucleus  69H :
 --------------

Diamagnetic contribution to the shielding tensor (ppm) : 
            25.129         -4.086        -1.536
             7.742         28.401         7.430
             4.798          1.345        44.404

Paramagnetic contribution to the shielding tensor (ppm): 
             3.449          3.135         1.730
            -8.689          0.487        -7.730
            -3.970         -2.242        -8.606

Total shielding tensor (ppm): 
            28.578         -0.951         0.194
            -0.947         28.888        -0.300
             0.828         -0.897        35.799


 Diagonalized sT*s matrix:
 
 sDSO            28.298           26.161           43.475  iso=      32.645
 sPSO            -0.527            3.434           -7.577  iso=      -1.557
        ---------------  ---------------  ---------------
 Total           27.772           29.595           35.898  iso=      31.088

 --------------
 Nucleus  70H :
 --------------

Diamagnetic contribution to the shielding tensor (ppm) : 
            32.529          1.343         3.158
            -7.767         41.150         6.937
             0.222          8.397        34.579

Paramagnetic contribution to the shielding tensor (ppm): 
            -0.482         -1.102        -3.018
             9.197        -10.543        -1.371
             0.784         -3.614        -6.368

Total shielding tensor (ppm): 
            32.046          0.241         0.140
             1.430         30.607         5.567
             1.006          4.782        28.211


 Diagonalized sT*s matrix:
 
 sDSO            29.731           34.821           43.706  iso=      36.086
 sPSO            -5.634           -3.113           -8.647  iso=      -5.798
        ---------------  ---------------  ---------------
 Total           24.097           31.708           35.058  iso=      30.288

 --------------
 Nucleus  71H :
 --------------

Diamagnetic contribution to the shielding tensor (ppm) : 
            30.080         -6.808         0.350
           -14.260         40.410        -8.191
            -0.784         -6.718        34.085

Paramagnetic contribution to the shielding tensor (ppm): 
             0.837          4.358         0.724
            12.256         -7.236         5.469
             1.100          4.340        -4.476

Total shielding tensor (ppm): 
            30.918         -2.451         1.074
            -2.004         33.174        -2.722
             0.315         -2.378        29.609


 Diagonalized sT*s matrix:
 
 sDSO            26.823           28.178           49.573  iso=      34.858
 sPSO             1.367            1.705          -13.946  iso=      -3.625
        ---------------  ---------------  ---------------
 Total           28.190           29.883           35.628  iso=      31.233

 --------------
 Nucleus  72H :
 --------------

Diamagnetic contribution to the shielding tensor (ppm) : 
            37.938         -7.531        -8.373
           -14.300         27.455        -1.828
            -9.580          3.639        29.226

Paramagnetic contribution to the shielding tensor (ppm): 
            -3.455          5.812         3.959
            12.033          1.503         4.987
             5.438         -1.375        -0.455

Total shielding tensor (ppm): 
            34.483         -1.719        -4.414
            -2.268         28.957         3.160
            -4.142          2.264        28.770


 Diagonalized sT*s matrix:
 
 sDSO            27.707           19.029           47.882  iso=      31.540
 sPSO            -2.069            9.713          -10.051  iso=      -0.802
        ---------------  ---------------  ---------------
 Total           25.638           28.742           37.831  iso=      30.737



--------------------------------
CHEMICAL SHIELDING SUMMARY (ppm)
--------------------------------


  Nucleus  Element    Isotropic     Anisotropy
  -------  -------  ------------   ------------
      3       H           29.364          6.496 
      4       H           29.050          7.449 
      8       H           29.574          7.947 
      9       H           29.336          5.416 
     10       H           30.108          8.352 
     11       H           29.856         10.216 
     13       H           27.731          7.793 
     16       H           26.799          4.669 
     17       H           26.514          4.768 
     19       H           25.399         10.398 
     21       H           25.594         14.866 
     24       H           28.900         10.131 
     25       H           30.018          9.459 
     27       H           30.249          7.196 
     28       H           30.119         11.881 
     30       H           29.746          8.073 
     31       H           30.422          6.859 
     33       H           29.763          3.970 
     35       H           30.157         14.855 
     37       H           30.355         10.338 
     38       H           30.275          9.827 
     40       H           29.573         11.887 
     41       H           30.711          7.589 
     42       H           30.163          6.844 
     45       H           31.239          7.400 
     46       H           31.018          8.026 
     47       H           31.278          9.599 
     48       H           29.836          3.552 
     52       H           26.124          5.867 
     53       H           26.136         12.401 
     57       H           29.921          5.244 
     58       H           30.329          5.751 
     61       H           30.986          6.640 
     62       H           30.695         10.347 
     63       H           31.145          9.232 
     64       H           30.844         10.474 
     65       H           30.802          7.819 
     66       H           30.728         10.730 
     67       H           30.598         10.497 
     68       H           31.021          9.977 
     69       H           31.088          7.215 
     70       H           30.288          7.155 
     71       H           31.233          6.591 
     72       H           30.737         10.641 



Maximum memory used throughout the entire EPRNMR-calculation: 141.2 MB

Timings for individual modules:

Sum of individual times         ...      144.861 sec (=   2.414 min)
GTO integral calculation        ...        0.835 sec (=   0.014 min)   0.6 %
SCF iterations                  ...       98.120 sec (=   1.635 min)  67.7 %
EPR/NMR calculation             ...       45.906 sec (=   0.765 min)  31.7 %
                             ****ORCA TERMINATED NORMALLY****
TOTAL RUN TIME: 0 days 0 hours 2 minutes 25 seconds 440 msec
