
                                 *****************
                                 * O   R   C   A *
                                 *****************

                                            #,                                       
                                            ###                                      
                                            ####                                     
                                            #####                                    
                                            ######                                   
                                           ########,                                 
                                     ,,################,,,,,                         
                               ,,#################################,,                 
                          ,,##########################################,,             
                       ,#########################################, ''#####,          
                    ,#############################################,,   '####,        
                  ,##################################################,,,,####,       
                ,###########''''           ''''###############################       
              ,#####''   ,,,,##########,,,,          '''####'''          '####       
            ,##' ,,,,###########################,,,                        '##       
           ' ,,###''''                  '''############,,,                           
         ,,##''                                '''############,,,,        ,,,,,,###''
      ,#''                                            '''#######################'''  
     '                                                          ''''####''''         
             ,#######,   #######,   ,#######,      ##                                
            ,#'     '#,  ##    ##  ,#'     '#,    #''#        ,####,   ,####,        
            ##       ##  ##   ,#'  ##            #'  '#       #'       #'  '#        
            ##       ##  #######   ##           ,######,      #####,   #    #        
            '#,     ,#'  ##    ##  '#,     ,#' ,#      #,     #,   #   #,  ,#        
             '#######'   ##     ##  '#######'  #'      '#     '####' # '####'        



                #########################################################
                #                        -***-                          #
                #          Department of theory and spectroscopy        #
                #                                                       #
                #                      Frank Neese                      #
                #                                                       #
                #     Directorship, Architecture, Infrastructure        #
                #                    SHARK, DRIVERS                     #
                #        Core code/Algorithms in most modules           #
                #                                                       #
                #        Max Planck Institute fuer Kohlenforschung      #
                #                Kaiser Wilhelm Platz 1                 #
                #                 D-45470 Muelheim/Ruhr                 #
                #                      Germany                          #
                #                                                       #
                #                  All rights reserved                  #
                #                        -***-                          #
                #########################################################


                         Program Version 6.0.0  -   RELEASE  -


 With contributions from (in alphabetic order):
   Daniel Aravena         : Magnetic Suceptibility
   Michael Atanasov       : Ab Initio Ligand Field Theory (pilot matlab implementation)
   Alexander A. Auer      : GIAO ZORA, VPT2 properties, NMR spectrum
   Ute Becker             : All parallelization in ORCA, NUMFREQ, NUMCALC
   Giovanni Bistoni       : ED, misc. LED, open-shell LED, HFLD
   Martin Brehm           : Molecular dynamics
   Dmytro Bykov           : pre 5.0 version of the SCF Hessian
   Marcos Casanova-Páez   : Triplet and SCS-CIS(D). UHF-(DLPNO)-IP/EA/STEOM-CCSD. UHF-CVS-IP/STEOM-CCSD
   Vijay G. Chilkuri      : MRCI spin determinant printing, contributions to CSF-ICE
   Pauline Colinet        : FMM embedding
   Dipayan Datta          : RHF DLPNO-CCSD density
   Achintya Kumar Dutta   : EOM-CC, STEOM-CC
   Nicolas Foglia         : Exact transition moments, OPA infrastructure, MCD improvements
   Dmitry Ganyushin       : Spin-Orbit,Spin-Spin,Magnetic field MRCI
   Miquel Garcia          : C-PCM and meta-GGA Hessian, CCSD/C-PCM, Gaussian charge scheme
   Tiago L. C. Gouveia    : GS-ROHF, GS-ROCIS
   Yang Guo               : DLPNO-NEVPT2, F12-NEVPT2, CIM, IAO-localization
   Andreas Hansen         : Spin unrestricted coupled pair/coupled cluster methods
   Ingolf Harden          : AUTO-CI MPn and infrastructure 
   Benjamin Helmich-Paris : MC-RPA, TRAH-(SCF,CASSCF), AVAS, COSX integrals, SCF dyn. polar.
   Lee Huntington         : MR-EOM, pCC
   Robert Izsak           : Overlap fitted RIJCOSX, COSX-SCS-MP3, EOM
   Riya Kayal             : Wick's Theorem for AUTO-CI, AUTO-CI UHF-CCSDT
   Emily Kempfer          : AUTO-CI, RHF CISDT and CCSDT
   Christian Kollmar      : KDIIS, OOCD, Brueckner-CCSD(T), CCSD density, CASPT2, CASPT2-K, improved NEVPT2
   Axel Koslowski         : Symmetry handling
   Simone Kossmann        : Meta GGA functionals, TD-DFT gradient, OOMP2, (MP2 Hessian; deprecated post 5.0)
   Lucas Lang             : DCDCAS
   Marvin Lechner         : AUTO-CI (C++ implementation), FIC-MRCC
   Spencer Leger          : CASSCF response
   Dagmar Lenk            : GEPOL surface, SMD, ORCA-2-JSON
   Dimitrios Liakos       : Extrapolation schemes; Compound Job, initial MDCI parallelization
   Dimitrios Manganas     : Further ROCIS development; embedding schemes. LFT, Crystal Embedding
   Dimitrios Pantazis     : SARC Basis sets
   Anastasios Papadopoulos: AUTO-CI, single reference methods and gradients
   Taras Petrenko         : pre 6.0 DFT Hessian and TD-DFT gradient, (ASA, deprecated), ECA, 1-Electron XAS/XES, NRVS
   Peter Pinski           : DLPNO-MP2, DLPNO-MP2 Gradient
   Christoph Reimann      : Effective Core Potentials
   Marius Retegan         : Local ZFS, SOC
   Christoph Riplinger    : Optimizer, TS searches, QM/MM, DLPNO-CCSD(T), (RO)-DLPNO pert. Triples
   Michael Roemelt        : Original ROCIS implementation
   Masaaki Saitow         : Open-shell DLPNO-CCSD energy and density
   Barbara Sandhoefer     : DKH picture change effects
   Kantharuban Sivalingam : CASSCF convergence/infrastructure, NEVPT2 and variants, FIC-MRCI
   Bernardo de Souza      : ESD, SOC TD-DFT
   Georgi Stoychev        : AutoAux, RI-MP2 NMR, DLPNO-MP2 response, X2C
   Van Anh Tran           : RI-MP2 g-tensors
   Willem Van den Heuvel  : Paramagnetic NMR
   Zikuan Wang            : NOTCH, Electric field optimization 
   Frank Wennmohs         : Technical directorship and infrastructure
   Hang Xu                : AUTO-CI-Response properties 


 We gratefully acknowledge several colleagues who have allowed us to
 interface, adapt or use parts of their codes:
   Stefan Grimme, W. Hujo, H. Kruse, P. Pracht,  : VdW corrections, initial TS optimization,
                  C. Bannwarth, S. Ehlert,         DFT functionals, gCP, sTDA/sTD-DF
                  L. Wittmann, M. Mueller
   Ed Valeev, F. Pavosevic, A. Kumar             : LibInt (2-el integral package), F12 methods
   Garnet Chan, S. Sharma, J. Yang, R. Olivares  : DMRG
   Ulf Ekstrom                                   : XCFun DFT Library
   Mihaly Kallay                                 : mrcc  (arbitrary order and MRCC methods)
   Frank Weinhold                                : gennbo (NPA and NBO analysis)
   Simon Mueller                                 : openCOSMO-RS
   Christopher J. Cramer and Donald G. Truhlar   : smd solvation model
   Lars Goerigk                                  : TD-DFT with DH, B97 family of functionals
   V. Asgeirsson, H. Jonsson                     : NEB implementation
   FAccTs GmbH                                   : IRC, NEB, NEB-TS, DLPNO-Multilevel, CI-OPT
                                                   MM, QMMM, 2- and 3-layer-ONIOM, Crystal-QMMM,
                                                   LR-CPCM, SF, NACMEs, symmetry and pop. for TD-DFT,
                                                   nearIR, NL-DFT gradient (VV10), updates on ESD,
                                                   ML-optimized integration grids, MBIS, APM,
                                                   GOAT, DOCKER, SOLVATOR, interface openCOSMO-RS
   S Lehtola, MJT Oliveira, MAL Marques          : LibXC Library
   Liviu Ungur et al                             : ANISO software


 Your calculation uses the libint2 library for the computation of 2-el integrals
 For citations please refer to: http://libint.valeyev.net

 Your ORCA version has been built with support for libXC version: 6.2.2
 For citations please refer to: https://libxc.gitlab.io

 This ORCA versions uses:
   CBLAS   interface :  Fast vector & matrix operations
   LAPACKE interface :  Fast linear algebra routines
   SCALAPACK package :  Parallel linear algebra routines
   Shared memory     :  Shared parallel matrices
   BLAS/LAPACK       :  OpenBLAS 0.3.27  USE64BITINT DYNAMIC_ARCH NO_AFFINITY Zen SINGLE_THREADED
        Core in use  :  Zen
   Copyright (c) 2011-2014, The OpenBLAS Project


NOTE: MaxCore=8000 MB was set to SCF,MP2,MDCI,CIPSI,MRCI and CIS
      => If you want to overwrite this, your respective input block should be placed after the MaxCore statement
Your calculation utilizes the atom-pairwise dispersion correction
based on EEQ partial charges (D4)


================================================================================

----- Orbital basis set information -----
Your calculation utilizes the basis: pcJ-0
   F. Jensen, Theor. Chem. Acc. 126, 371 (2010).

----- AuxJ basis set information -----
Your calculation utilizes the auxiliary basis: def2/J
   F. Weigend, Phys. Chem. Chem. Phys. 8, 1057 (2006).

================================================================================
                                        WARNINGS
                       Please study these warnings very carefully!
================================================================================

WARNING: Old DensityContainer found on disk!
         Will remove this file - 
         If you want to keep old densities, please start your calculation with a different basename. 


================================================================================
                                       INPUT FILE
================================================================================
NAME = inpJ
|  1> ! pbe0
|  2> ! D4
|  3> ! pcJ-0
|  4> ! def2/J RIJCOSX
|  5> ! DEFGRID2
|  6> ! scfconv7
|  7> ! smallprint printgap noloewdin
|  8> ! NOSOSCF
|  9> %MaxCore 8000
| 10> %output
| 11>        print[P_BondOrder_M] 1
| 12>        print[P_Mayer] 1
| 13>        print[P_basis] 2
| 14> end
| 15> %pal
| 16>     nprocs 4
| 17> end
| 18> ! CPCM(chloroform)
| 19> *xyz 0 1
| 20> C   -5.3006659000   0.1265676400  -0.6836427900
| 21> C   -6.7046338400  -0.3621446600  -0.9515300900
| 22> C   -7.7237623700   0.4800214800  -0.1739676500
| 23> H   -6.8056613300  -1.4189978000  -0.6797440400
| 24> H   -6.9359186200  -0.2643008400  -2.0226796900
| 25> C   -5.1083273500   1.5721407900  -0.9346864500
| 26> C   -6.1471188400   2.4645467700  -0.2916216200
| 27> C   -7.5749355200   1.9574966800  -0.5399362400
| 28> H   -6.0357299000   3.4936078000  -0.6494671300
| 29> H   -5.9635872000   2.4806990600   0.7935741100
| 30> H   -7.8285582100   2.0763607900  -1.6022158900
| 31> H   -8.2911547100   2.5521344000   0.0388975500
| 32> O   -7.5868444900   0.2661198100   1.2405933700
| 33> H   -8.7387557500   0.1433785100  -0.4187935000
| 34> C   -4.3514567200  -0.7061314900  -0.1937299800
| 35> C   -4.1228742100   2.0556042600  -1.6991703700
| 36> H   -3.3957117700   1.3976321000  -2.1676055900
| 37> H   -4.0282760900   3.1236631100  -1.8809178400
| 38> C   -3.0117862200  -0.3359281300   0.2016662500
| 39> H   -4.6470486100  -1.7457521200  -0.0577632800
| 40> C   -2.0295892500  -1.1785503100   0.5870001700
| 41> H   -2.7937361000   0.7296159900   0.1950205400
| 42> C   -2.1292091600  -2.6819502900   0.6301169400
| 43> C   -1.0082724000  -3.3447996800  -0.1932458100
| 44> H   -3.1016870700  -3.0443104400   0.2864469900
| 45> H   -2.0174878400  -2.9990483200   1.6791975300
| 46> C    0.3853587000  -2.8176257800   0.1732622600
| 47> H   -1.2005916600  -3.1758296600  -1.2603334500
| 48> H   -1.0421954300  -4.4302061700  -0.0383895300
| 49> C    0.4608156600  -1.2871420700   0.0810089200
| 50> H    1.1263298000  -3.2937760300  -0.4768825400
| 51> H    0.6245545500  -3.1156942300   1.2053100500
| 52> C   -0.6672101800  -0.7083180700   0.9953192500
| 53> H   -0.4704837000  -1.1516726500   1.9888037400
| 54> C   -0.3432792500   0.7788040600   1.0911849900
| 55> H   -6.6412743000   0.2536201000   1.4459978100
| 56> C    1.2050940300   0.8136897500   1.1011652700
| 57> H   -0.7839056000   1.2403226300   1.9810278700
| 58> H   -0.7326115700   1.3183846100   0.2207658000
| 59> C    1.6989313900  -0.6219191600   0.7435475600
| 60> H    1.5963885200   1.1264696400   2.0742081000
| 61> H    1.5778869700   1.5361010400   0.3649472300
| 62> H    1.8872194800  -1.1710073700   1.6804824100
| 63> C    3.0405704700  -0.5979402300  -0.0292938600
| 64> C    0.2904047900  -0.8094737200  -1.3679975300
| 65> H    0.4565567200   0.2686503400  -1.4596135600
| 66> H   -0.7173625300  -1.0173865900  -1.7404829700
| 67> H    1.0048703500  -1.3127750000  -2.0285982000
| 68> H    2.8720107800  -0.0035504900  -0.9426865700
| 69> C    3.5295357100  -1.9841770100  -0.4461740100
| 70> C    4.0558487700   0.1585214100   0.7971517800
| 71> C    5.1494017100  -0.3529498300   1.3649766200
| 72> H    3.8303651100   1.2134480000   0.9467721300
| 73> H    5.3692719200  -1.4103856900   1.2209781700
| 74> C    6.1472825100   0.3875961700   2.2170451700
| 75> C    5.7508744800   1.8307692200   2.5257220300
| 76> C    7.5866025900   0.2973306100   1.6332775900
| 77> H    6.1922944600  -0.1514503600   3.1790672500
| 78> H    8.2306903500   0.8423059700   2.3402541000
| 79> C    7.7121968300   0.9673459100   0.2636132100
| 80> C    8.0933727300  -1.1461740500   1.5679264000
| 81> H    5.6409579800   2.4308712400   1.6164239600
| 82> H    6.5138246900   2.3063692100   3.1515403600
| 83> H    4.7973533500   1.8687370700   3.0635354000
| 84> H    7.4308477200   2.0246057000   0.2963131900
| 85> H    7.0670476300   0.4685989500  -0.4696794700
| 86> H    8.7447112900   0.9076477000  -0.0982027200
| 87> H    7.9539447500  -1.6639636800   2.5242205200
| 88> H    9.1616203000  -1.1652908100   1.3252199900
| 89> H    7.5725118300  -1.7191936600   0.7921448600
| 90> H    2.8789314700  -2.4198586500  -1.2069511200
| 91> H    3.5580271600  -2.6722169300   0.4070225200
| 92> H    4.5388174000  -1.9251472600  -0.8680940600
| 93> *
| 94> %eprnmr
| 95>  Nuclei = all C { ssfc }
| 96>  SpinSpinRThresh 8.0
| 97> end
| 98> 
| 99>                          ****END OF INPUT****
================================================================================

                       ****************************
                       * Single Point Calculation *
                       ****************************

---------------------------------
CARTESIAN COORDINATES (ANGSTROEM)
---------------------------------
  C     -5.300666    0.126568   -0.683643
  C     -6.704634   -0.362145   -0.951530
  C     -7.723762    0.480021   -0.173968
  H     -6.805661   -1.418998   -0.679744
  H     -6.935919   -0.264301   -2.022680
  C     -5.108327    1.572141   -0.934686
  C     -6.147119    2.464547   -0.291622
  C     -7.574936    1.957497   -0.539936
  H     -6.035730    3.493608   -0.649467
  H     -5.963587    2.480699    0.793574
  H     -7.828558    2.076361   -1.602216
  H     -8.291155    2.552134    0.038898
  O     -7.586844    0.266120    1.240593
  H     -8.738756    0.143379   -0.418793
  C     -4.351457   -0.706131   -0.193730
  C     -4.122874    2.055604   -1.699170
  H     -3.395712    1.397632   -2.167606
  H     -4.028276    3.123663   -1.880918
  C     -3.011786   -0.335928    0.201666
  H     -4.647049   -1.745752   -0.057763
  C     -2.029589   -1.178550    0.587000
  H     -2.793736    0.729616    0.195021
  C     -2.129209   -2.681950    0.630117
  C     -1.008272   -3.344800   -0.193246
  H     -3.101687   -3.044310    0.286447
  H     -2.017488   -2.999048    1.679198
  C      0.385359   -2.817626    0.173262
  H     -1.200592   -3.175830   -1.260333
  H     -1.042195   -4.430206   -0.038390
  C      0.460816   -1.287142    0.081009
  H      1.126330   -3.293776   -0.476883
  H      0.624555   -3.115694    1.205310
  C     -0.667210   -0.708318    0.995319
  H     -0.470484   -1.151673    1.988804
  C     -0.343279    0.778804    1.091185
  H     -6.641274    0.253620    1.445998
  C      1.205094    0.813690    1.101165
  H     -0.783906    1.240323    1.981028
  H     -0.732612    1.318385    0.220766
  C      1.698931   -0.621919    0.743548
  H      1.596389    1.126470    2.074208
  H      1.577887    1.536101    0.364947
  H      1.887219   -1.171007    1.680482
  C      3.040570   -0.597940   -0.029294
  C      0.290405   -0.809474   -1.367998
  H      0.456557    0.268650   -1.459614
  H     -0.717363   -1.017387   -1.740483
  H      1.004870   -1.312775   -2.028598
  H      2.872011   -0.003550   -0.942687
  C      3.529536   -1.984177   -0.446174
  C      4.055849    0.158521    0.797152
  C      5.149402   -0.352950    1.364977
  H      3.830365    1.213448    0.946772
  H      5.369272   -1.410386    1.220978
  C      6.147283    0.387596    2.217045
  C      5.750874    1.830769    2.525722
  C      7.586603    0.297331    1.633278
  H      6.192294   -0.151450    3.179067
  H      8.230690    0.842306    2.340254
  C      7.712197    0.967346    0.263613
  C      8.093373   -1.146174    1.567926
  H      5.640958    2.430871    1.616424
  H      6.513825    2.306369    3.151540
  H      4.797353    1.868737    3.063535
  H      7.430848    2.024606    0.296313
  H      7.067048    0.468599   -0.469679
  H      8.744711    0.907648   -0.098203
  H      7.953945   -1.663964    2.524221
  H      9.161620   -1.165291    1.325220
  H      7.572512   -1.719194    0.792145
  H      2.878931   -2.419859   -1.206951
  H      3.558027   -2.672217    0.407023
  H      4.538817   -1.925147   -0.868094

----------------------------
CARTESIAN COORDINATES (A.U.)
----------------------------
  NO LB      ZA    FRAG     MASS         X           Y           Z
   0 C     6.0000    0    12.011  -10.016807    0.239178   -1.291898
   1 C     6.0000    0    12.011  -12.669922   -0.684354   -1.798131
   2 C     6.0000    0    12.011  -14.595796    0.907109   -0.328751
   3 H     1.0000    0     1.008  -12.860836   -2.681517   -1.284530
   4 H     1.0000    0     1.008  -13.106987   -0.499456   -3.822311
   5 C     6.0000    0    12.011   -9.653340    2.970916   -1.766301
   6 C     6.0000    0    12.011  -11.616371    4.657318   -0.551085
   7 C     6.0000    0    12.011  -14.314554    3.699133   -1.020332
   8 H     1.0000    0     1.008  -11.405877    6.601962   -1.227315
   9 H     1.0000    0     1.008  -11.269547    4.687842    1.499638
  10 H     1.0000    0     1.008  -14.793831    3.923753   -3.027749
  11 H     1.0000    0     1.008  -15.668012    4.822835    0.073506
  12 O     8.0000    0    15.999  -14.337058    0.502894    2.344382
  13 H     1.0000    0     1.008  -16.513855    0.270946   -0.791405
  14 C     6.0000    0    12.011   -8.223061   -1.334395   -0.366097
  15 C     6.0000    0    12.011   -7.791103    3.884529   -3.210967
  16 H     1.0000    0     1.008   -6.416965    2.641142   -4.096181
  17 H     1.0000    0     1.008   -7.612339    5.902868   -3.554420
  18 C     6.0000    0    12.011   -5.691451   -0.634812    0.381094
  19 H     1.0000    0     1.008   -8.781649   -3.298993   -0.109157
  20 C     6.0000    0    12.011   -3.835368   -2.227137    1.109270
  21 H     1.0000    0     1.008   -5.279396    1.378774    0.368535
  22 C     6.0000    0    12.011   -4.023622   -5.068152    1.190748
  23 C     6.0000    0    12.011   -1.905359   -6.320755   -0.365182
  24 H     1.0000    0     1.008   -5.861339   -5.752913    0.541306
  25 H     1.0000    0     1.008   -3.812499   -5.667380    3.173223
  26 C     6.0000    0    12.011    0.728222   -5.324541    0.327418
  27 H     1.0000    0     1.008   -2.268789   -6.001448   -2.381685
  28 H     1.0000    0     1.008   -1.969464   -8.371876   -0.072546
  29 C     6.0000    0    12.011    0.870815   -2.432346    0.153085
  30 H     1.0000    0     1.008    2.128455   -6.224335   -0.901177
  31 H     1.0000    0     1.008    1.180237   -5.887809    2.277706
  32 C     6.0000    0    12.011   -1.260845   -1.338527    1.880881
  33 H     1.0000    0     1.008   -0.889085   -2.176346    3.758294
  34 C     6.0000    0    12.011   -0.648704    1.471726    2.062041
  35 H     1.0000    0     1.008  -12.550190    0.479273    2.732540
  36 C     6.0000    0    12.011    2.277298    1.537651    2.080901
  37 H     1.0000    0     1.008   -1.481367    2.343870    3.743600
  38 H     1.0000    0     1.008   -1.384435    2.491386    0.417187
  39 C     6.0000    0    12.011    3.210515   -1.175257    1.405101
  40 H     1.0000    0     1.008    3.016737    2.128719    3.919685
  41 H     1.0000    0     1.008    2.981774    2.902810    0.689650
  42 H     1.0000    0     1.008    3.566328   -2.212883    3.175652
  43 C     6.0000    0    12.011    5.745845   -1.129943   -0.055357
  44 C     6.0000    0    12.011    0.548786   -1.529684   -2.585141
  45 H     1.0000    0     1.008    0.862767    0.507676   -2.758270
  46 H     1.0000    0     1.008   -1.355619   -1.922582   -3.289036
  47 H     1.0000    0     1.008    1.898930   -2.480785   -3.833495
  48 H     1.0000    0     1.008    5.427314   -0.006709   -1.781419
  49 C     6.0000    0    12.011    6.669856   -3.749551   -0.843147
  50 C     6.0000    0    12.011    7.664443    0.299562    1.506399
  51 C     6.0000    0    12.011    9.730959   -0.666979    2.579432
  52 H     1.0000    0     1.008    7.238341    2.293084    1.789140
  53 H     1.0000    0     1.008   10.146453   -2.665243    2.307314
  54 C     6.0000    0    12.011   11.616680    0.732451    4.189608
  55 C     6.0000    0    12.011   10.867578    3.459652    4.772923
  56 C     6.0000    0    12.011   14.336601    0.561873    3.086447
  57 H     1.0000    0     1.008   11.701741   -0.286200    6.007566
  58 H     1.0000    0     1.008   15.553751    1.591728    4.422439
  59 C     6.0000    0    12.011   14.573940    1.828019    0.498157
  60 C     6.0000    0    12.011   15.294258   -2.165955    2.962951
  61 H     1.0000    0     1.008   10.659866    4.593681    3.054599
  62 H     1.0000    0     1.008   12.309345    4.358406    5.955548
  63 H     1.0000    0     1.008    9.065684    3.531401    5.789243
  64 H     1.0000    0     1.008   14.042267    3.825950    0.559951
  65 H     1.0000    0     1.008   13.354785    0.885524   -0.887566
  66 H     1.0000    0     1.008   16.525109    1.715206   -0.185576
  67 H     1.0000    0     1.008   15.030777   -3.144436    4.770085
  68 H     1.0000    0     1.008   17.312953   -2.202080    2.504303
  69 H     1.0000    0     1.008   14.309974   -3.248805    1.496937
  70 H     1.0000    0     1.008    5.440392   -4.572870   -2.280807
  71 H     1.0000    0     1.008    6.723697   -5.049758    0.769161
  72 H     1.0000    0     1.008    8.577122   -3.638001   -1.640460

--------------------------------
INTERNAL COORDINATES (ANGSTROEM)
--------------------------------
 C      0   0   0     0.000000000000     0.00000000     0.00000000
 C      1   0   0     1.510539405054     0.00000000     0.00000000
 C      2   1   0     1.533776423121   110.48882851     0.00000000
 H      2   1   3     1.095907281771   110.71414430   237.84330391
 H      2   1   3     1.100194313816   109.83306285   118.74860256
 C      1   2   3     1.479763078686   114.00283215   306.28324330
 C      6   1   2     1.512946981364   114.51081757    49.41991385
 C      3   2   1     1.529383995850   110.14964842    56.83073064
 H      7   6   1     1.095183778389   110.21359270   189.04701887
 H      7   6   1     1.100724548542   108.25329495    72.40582654
 H      8   3   2     1.098586000426   108.26682858    64.38777813
 H      8   3   2     1.096180871306   109.51863055   181.34819485
 O      3   2   1     1.437178941397   110.72954836   292.75324477
 H      3   2   1     1.097032245434   109.45910792   177.22413843
 C      1   2   3     1.354400409739   121.10613751   123.18916802
 C      6   1   2     1.337643630381   123.07890524   231.32936705
 H     16   6   1     1.086795350017   121.36191886   359.04821348
 H     16   6   1     1.087534208300   120.96735809   178.45264539
 C     15   1   2     1.445027942645   126.24236352   185.24366307
 H     15   1   2     1.089345015716   116.21396442     3.07981268
 C     19  15   1     1.350261180664   126.34092299   185.78482387
 H     19  15   1     1.087646216359   115.79643613     6.62518466
 C     21  19  15     1.507313730511   125.62736851     2.39535882
 C     23  21  19     1.540712416978   111.45280914   124.83700558
 H     23  21  19     1.093218733044   112.35847553     1.28619126
 H     23  21  19     1.101636463761   107.91665104   243.42814561
 C     24  23  21     1.534421105532   112.66441377    51.31626853
 H     24  23  21     1.097366664733   109.02057834   289.17489056
 H     24  23  21     1.096922279815   109.13303339   173.21082066
 C     27  24  23     1.535117200128   111.88951042   306.11716586
 H     27  24  23     1.094735352758   108.87229354   182.56611998
 H     27  24  23     1.100537185372   109.16830490    66.10783316
 C     21  19  15     1.497971815823   122.91964224   180.61670418
 H     33  21  19     1.105565929020   106.31373760   126.87869047
 C     33  21  19     1.525009415398   121.09337026     4.35749259
 H     13   3   2     0.967703575967   107.69387218    42.55745376
 C     35  33  21     1.548798383126   103.57535136   196.80832914
 H     35  33  21     1.094975489158   112.12481842    74.89941323
 H     35  33  21     1.095607772725   110.78330953   315.23146280
 C     30  27  24     1.553837034684   116.12726740   166.03221178
 H     37  35  33     1.094419931520   111.69122233   248.99408871
 H     37  35  33     1.096754143122   110.50708158   130.40016961
 H     40  30  27     1.102178379547   106.57697583   320.60715742
 C     40  30  27     1.548500652417   118.95942706    80.82908962
 C     30  27  24     1.535195951450   111.19055895   294.16220159
 H     45  30  27     1.094692399511   111.62808182   186.50999015
 H     45  30  27     1.094334563003   111.36906407    66.52084411
 H     45  30  27     1.095521090660   110.72050027   306.41001993
 H     44  40  30     1.102722891207   106.81658251    62.68793213
 C     44  40  30     1.527916383712   113.54026361   303.53476286
 C     44  40  30     1.511964495323   108.46558787   177.24556687
 C     51  44  40     1.334123649011   126.24541174   113.46105200
 H     51  44  40     1.089081833633   114.87836636   295.18645399
 H     52  51  44     1.089609591029   118.76443278     1.29879274
 C     52  51  44     1.506716722886   126.52171404   181.58651459
 C     55  52  51     1.528126036161   113.99155288     5.59743470
 C     55  52  51     1.555819639763   111.83847080   237.62192820
 H     55  52  51     1.103668301418   106.25375281   123.43510212
 H     57  55  52     1.100755636497   105.75984587   181.49939083
 C     57  55  52     1.529926445682   112.73362434    63.61841022
 C     57  55  52     1.531271516182   112.14005912   298.36460442
 H     56  55  52     1.095000936751   112.07811326   299.70756299
 H     56  55  52     1.095416338928   110.16727618   179.62801221
 H     56  55  52     1.095393684454   110.96026804    59.94612199
 H     60  57  55     1.094543226164   112.03510623    58.23781755
 H     60  57  55     1.096669583289   110.55774041   297.79215753
 H     60  57  55     1.095701032941   110.43353747   178.34330920
 H     61  57  55     1.096377994347   111.46249511   310.11388797
 H     61  57  55     1.095638956399   110.40020795   190.08611283
 H     61  57  55     1.096122506109   111.45377559    70.93763705
 H     50  44  40     1.091735398180   111.19149252    68.08086251
 H     50  44  40     1.096428298176   111.42853636   307.66679694
 H     50  44  40     1.095513838227   110.55002543   187.51538129

---------------------------
INTERNAL COORDINATES (A.U.)
---------------------------
 C      0   0   0     0.000000000000     0.00000000     0.00000000
 C      1   0   0     2.854505790048     0.00000000     0.00000000
 C      2   1   0     2.898417390364   110.48882851     0.00000000
 H      2   1   3     2.070964630717   110.71414430   237.84330391
 H      2   1   3     2.079065947209   109.83306285   118.74860256
 C      1   2   3     2.796346961805   114.00283215   306.28324330
 C      6   1   2     2.859055449921   114.51081757    49.41991385
 C      3   2   1     2.890116905759   110.14964842    56.83073064
 H      7   6   1     2.069597407468   110.21359270   189.04701887
 H      7   6   1     2.080067945629   108.25329495    72.40582654
 H      8   3   2     2.076026675366   108.26682858    64.38777813
 H      8   3   2     2.071481640011   109.51863055   181.34819485
 O      3   2   1     2.715874604680   110.72954836   292.75324477
 H      3   2   1     2.073090503951   109.45910792   177.22413843
 C      1   2   3     2.559445850077   121.10613751   123.18916802
 C      6   1   2     2.527780126204   123.07890524   231.32936705
 H     16   6   1     2.053745575151   121.36191886   359.04821348
 H     16   6   1     2.055141814957   120.96735809   178.45264539
 C     15   1   2     2.730707067462   126.24236352   185.24366307
 H     15   1   2     2.058563745054   116.21396442     3.07981268
 C     19  15   1     2.551623840720   126.34092299   185.78482387
 H     19  15   1     2.055353479514   115.79643613     6.62518466
 C     21  19  15     2.848410148565   125.62736851     2.39535882
 C     23  21  19     2.911524519220   111.45280914   124.83700558
 H     23  21  19     2.065884009926   112.35847553     1.28619126
 H     23  21  19     2.081791215649   107.91665104   243.42814561
 C     24  23  21     2.899635663565   112.66441377    51.31626853
 H     24  23  21     2.073722464839   109.02057834   289.17489056
 H     24  23  21     2.072882699046   109.13303339   173.21082066
 C     27  24  23     2.900951091714   111.88951042   306.11716586
 H     27  24  23     2.068750005834   108.87229354   182.56611998
 H     27  24  23     2.079713880550   109.16830490    66.10783316
 C     21  19  15     2.830756488239   122.91964224   180.61670418
 H     33  21  19     2.089216828843   106.31373760   126.87869047
 C     33  21  19     2.881850146753   121.09337026     4.35749259
 H     13   3   2     1.828694737393   107.69387218    42.55745376
 C     35  33  21     2.926804780768   103.57535136   196.80832914
 H     35  33  21     2.069203797864   112.12481842    74.89941323
 H     35  33  21     2.070398640645   110.78330953   315.23146280
 C     30  27  24     2.936326452297   116.12726740   166.03221178
 H     37  35  33     2.068153946077   111.69122233   248.99408871
 H     37  35  33     2.072564966744   110.50708158   130.40016961
 H     40  30  27     2.082815288073   106.57697583   320.60715742
 C     40  30  27     2.926242151266   118.95942706    80.82908962
 C     30  27  24     2.901099910145   111.19055895   294.16220159
 H     45  30  27     2.068668835960   111.62808182   186.50999015
 H     45  30  27     2.067992622961   111.36906407    66.52084411
 H     45  30  27     2.070234835282   110.72050027   306.41001993
 H     44  40  30     2.083844265987   106.81658251    62.68793213
 C     44  40  30     2.887343520748   113.54026361   303.53476286
 C     44  40  30     2.857198820373   108.46558787   177.24556687
 C     51  44  40     2.521128325419   126.24541174   113.46105200
 H     51  44  40     2.058066402996   114.87836636   295.18645399
 H     52  51  44     2.059063719938   118.76443278     1.29879274
 C     52  51  44     2.847281967653   126.52171404   181.58651459
 C     55  52  51     2.887739706460   113.99155288     5.59743470
 C     55  52  51     2.940073032928   111.83847080   237.62192820
 H     55  52  51     2.085630832370   106.25375281   123.43510212
 H     57  55  52     2.080126693350   105.75984587   181.49939083
 C     57  55  52     2.891141987382   112.73362434    63.61841022
 C     57  55  52     2.893683802259   112.14005912   298.36460442
 H     56  55  52     2.069251886847   112.07811326   299.70756299
 H     56  55  52     2.070036883197   110.16727618   179.62801221
 H     56  55  52     2.069994072444   110.96026804    59.94612199
 H     60  57  55     2.068386939188   112.03510623    58.23781755
 H     60  57  55     2.072405171818   110.55774041   297.79215753
 H     60  57  55     2.070574876913   110.43353747   178.34330920
 H     61  57  55     2.071854148574   111.46249511   310.11388797
 H     61  57  55     2.070457569249   110.40020795   190.08611283
 H     61  57  55     2.071371345773   111.45377559    70.93763705
 H     50  44  40     2.063080913267   111.19149252    68.08086251
 H     50  44  40     2.071949209034   111.42853636   307.66679694
 H     50  44  40     2.070221130169   110.55002543   187.51538129

---------------------
BASIS SET INFORMATION
---------------------
There are 3 groups of distinct atoms

 Group   1 Type C   : 7s4p contracted to 4s3p pattern {4111/211}
 Group   2 Type H   : 5s contracted to 3s pattern {311}
 Group   3 Type O   : 7s4p contracted to 4s3p pattern {4111/211}

Atom   0C    basis set group =>   1
Atom   1C    basis set group =>   1
Atom   2C    basis set group =>   1
Atom   3H    basis set group =>   2
Atom   4H    basis set group =>   2
Atom   5C    basis set group =>   1
Atom   6C    basis set group =>   1
Atom   7C    basis set group =>   1
Atom   8H    basis set group =>   2
Atom   9H    basis set group =>   2
Atom  10H    basis set group =>   2
Atom  11H    basis set group =>   2
Atom  12O    basis set group =>   3
Atom  13H    basis set group =>   2
Atom  14C    basis set group =>   1
Atom  15C    basis set group =>   1
Atom  16H    basis set group =>   2
Atom  17H    basis set group =>   2
Atom  18C    basis set group =>   1
Atom  19H    basis set group =>   2
Atom  20C    basis set group =>   1
Atom  21H    basis set group =>   2
Atom  22C    basis set group =>   1
Atom  23C    basis set group =>   1
Atom  24H    basis set group =>   2
Atom  25H    basis set group =>   2
Atom  26C    basis set group =>   1
Atom  27H    basis set group =>   2
Atom  28H    basis set group =>   2
Atom  29C    basis set group =>   1
Atom  30H    basis set group =>   2
Atom  31H    basis set group =>   2
Atom  32C    basis set group =>   1
Atom  33H    basis set group =>   2
Atom  34C    basis set group =>   1
Atom  35H    basis set group =>   2
Atom  36C    basis set group =>   1
Atom  37H    basis set group =>   2
Atom  38H    basis set group =>   2
Atom  39C    basis set group =>   1
Atom  40H    basis set group =>   2
Atom  41H    basis set group =>   2
Atom  42H    basis set group =>   2
Atom  43C    basis set group =>   1
Atom  44C    basis set group =>   1
Atom  45H    basis set group =>   2
Atom  46H    basis set group =>   2
Atom  47H    basis set group =>   2
Atom  48H    basis set group =>   2
Atom  49C    basis set group =>   1
Atom  50C    basis set group =>   1
Atom  51C    basis set group =>   1
Atom  52H    basis set group =>   2
Atom  53H    basis set group =>   2
Atom  54C    basis set group =>   1
Atom  55C    basis set group =>   1
Atom  56C    basis set group =>   1
Atom  57H    basis set group =>   2
Atom  58H    basis set group =>   2
Atom  59C    basis set group =>   1
Atom  60C    basis set group =>   1
Atom  61H    basis set group =>   2
Atom  62H    basis set group =>   2
Atom  63H    basis set group =>   2
Atom  64H    basis set group =>   2
Atom  65H    basis set group =>   2
Atom  66H    basis set group =>   2
Atom  67H    basis set group =>   2
Atom  68H    basis set group =>   2
Atom  69H    basis set group =>   2
Atom  70H    basis set group =>   2
Atom  71H    basis set group =>   2
Atom  72H    basis set group =>   2

-------------------------
BASIS SET IN INPUT FORMAT
-------------------------

 # Basis set for element : H 
 NewGTO H 
 S 3 
   1    1357.7500000000      0.0012928364
   2      54.3100000000      0.0588280685
   3       4.3448000000      0.9761499708
 S 1 
   1       0.6604910000      1.0000000000
 S 1 
   1       0.1366870000      1.0000000000
  end;

 # Basis set for element : C 
 NewGTO C 
 S 4 
   1  139534.0000000000      0.0001655246
   2    5581.3600000000      0.0074486101
   3     446.5090000000      0.1285821065
   4      67.4620000000      0.9218029311
 S 1 
   1      15.0674000000      1.0000000000
 S 1 
   1       3.9387600000      1.0000000000
 S 1 
   1       0.2999150000      1.0000000000
 P 2 
   1      28.3900000000      0.0816325586
   2       4.3676900000      0.9660360576
 P 1 
   1       0.8698170000      1.0000000000
 P 1 
   1       0.1889340000      1.0000000000
  end;

 # Basis set for element : O 
 NewGTO O 
 S 4 
   1  253789.0000000000      0.0001641076
   2   10151.6000000000      0.0074010921
   3     812.1250000000      0.1277711901
   4     122.6930000000      0.9223372164
 S 1 
   1      27.5608000000      1.0000000000
 S 1 
   1       7.3172600000      1.0000000000
 S 1 
   1       0.5792400000      1.0000000000
 P 2 
   1      53.4157000000      0.0793786106
   2       8.2177900000      0.9670506337
 P 1 
   1       1.6754400000      1.0000000000
 P 1 
   1       0.3506720000      1.0000000000
  end;

---------------------------------
AUXILIARY/J BASIS SET INFORMATION
---------------------------------
There are 3 groups of distinct atoms

 Group   1 Type C   : 12s5p4d2f1g contracted to 6s4p3d1f1g pattern {711111/2111/211/2/1}
 Group   2 Type H   : 5s2p1d contracted to 3s1p1d pattern {311/2/1}
 Group   3 Type O   : 12s5p4d2f1g contracted to 6s4p3d1f1g pattern {711111/2111/211/2/1}

Atom   0C    basis set group =>   1
Atom   1C    basis set group =>   1
Atom   2C    basis set group =>   1
Atom   3H    basis set group =>   2
Atom   4H    basis set group =>   2
Atom   5C    basis set group =>   1
Atom   6C    basis set group =>   1
Atom   7C    basis set group =>   1
Atom   8H    basis set group =>   2
Atom   9H    basis set group =>   2
Atom  10H    basis set group =>   2
Atom  11H    basis set group =>   2
Atom  12O    basis set group =>   3
Atom  13H    basis set group =>   2
Atom  14C    basis set group =>   1
Atom  15C    basis set group =>   1
Atom  16H    basis set group =>   2
Atom  17H    basis set group =>   2
Atom  18C    basis set group =>   1
Atom  19H    basis set group =>   2
Atom  20C    basis set group =>   1
Atom  21H    basis set group =>   2
Atom  22C    basis set group =>   1
Atom  23C    basis set group =>   1
Atom  24H    basis set group =>   2
Atom  25H    basis set group =>   2
Atom  26C    basis set group =>   1
Atom  27H    basis set group =>   2
Atom  28H    basis set group =>   2
Atom  29C    basis set group =>   1
Atom  30H    basis set group =>   2
Atom  31H    basis set group =>   2
Atom  32C    basis set group =>   1
Atom  33H    basis set group =>   2
Atom  34C    basis set group =>   1
Atom  35H    basis set group =>   2
Atom  36C    basis set group =>   1
Atom  37H    basis set group =>   2
Atom  38H    basis set group =>   2
Atom  39C    basis set group =>   1
Atom  40H    basis set group =>   2
Atom  41H    basis set group =>   2
Atom  42H    basis set group =>   2
Atom  43C    basis set group =>   1
Atom  44C    basis set group =>   1
Atom  45H    basis set group =>   2
Atom  46H    basis set group =>   2
Atom  47H    basis set group =>   2
Atom  48H    basis set group =>   2
Atom  49C    basis set group =>   1
Atom  50C    basis set group =>   1
Atom  51C    basis set group =>   1
Atom  52H    basis set group =>   2
Atom  53H    basis set group =>   2
Atom  54C    basis set group =>   1
Atom  55C    basis set group =>   1
Atom  56C    basis set group =>   1
Atom  57H    basis set group =>   2
Atom  58H    basis set group =>   2
Atom  59C    basis set group =>   1
Atom  60C    basis set group =>   1
Atom  61H    basis set group =>   2
Atom  62H    basis set group =>   2
Atom  63H    basis set group =>   2
Atom  64H    basis set group =>   2
Atom  65H    basis set group =>   2
Atom  66H    basis set group =>   2
Atom  67H    basis set group =>   2
Atom  68H    basis set group =>   2
Atom  69H    basis set group =>   2
Atom  70H    basis set group =>   2
Atom  71H    basis set group =>   2
Atom  72H    basis set group =>   2

-------------------------------------
AUXILIARY/J BASIS SET IN INPUT FORMAT
-------------------------------------

 # Auxiliary/J basis set for element : H 
 NewAuxJGTO H 
 S 3 
   1      15.6752927000      0.1007184237
   2       3.6063578000      0.3404257499
   3       1.2080016000      0.6491996172
 S 1 
   1       0.4726794000      1.0000000000
 S 1 
   1       0.2018100000      1.0000000000
 P 2 
   1       2.0281365000      0.5596620919
   2       0.5358730000      0.5596620919
 D 1 
   1       2.2165124000      1.0000000000
  end;

 # Auxiliary/J basis set for element : C 
 NewAuxJGTO C 
 S 7 
   1    1861.0916331000      0.0134602335
   2     642.9939764000      0.0299160374
   3     235.1105725000      0.1008649584
   4      90.7028894000      0.2370970548
   5      36.7794552000      0.3924037254
   6      15.6046273000      0.3195862154
   7       6.8907294000      0.0530104441
 S 1 
   1       3.1478850000     -1.0000000000
 S 1 
   1       1.4777287000      1.0000000000
 S 1 
   1       0.7076466000      1.0000000000
 S 1 
   1       0.3430122000      1.0000000000
 S 1 
   1       0.1669453000      1.0000000000
 P 2 
   1      13.5472892000     -0.6769313712
   2       5.4669419000     -0.3779500978
 P 1 
   1       2.1751721000      1.0000000000
 P 1 
   1       0.8582194000      1.0000000000
 P 1 
   1       0.3376720000      1.0000000000
 D 2 
   1       5.9287253000     -0.3533329857
   2       1.9809209000     -0.7456525731
 D 1 
   1       0.8055417000     -1.0000000000
 D 1 
   1       0.3531244000     -1.0000000000
 F 2 
   1       1.6755626000      0.6311076882
   2       0.5997536000      0.4968166032
 G 1 
   1       1.0024600000     -1.0000000000
  end;

 # Auxiliary/J basis set for element : O 
 NewAuxJGTO O 
 S 7 
   1    2876.8216605000      0.0168151159
   2    1004.7443032000      0.0340137548
   3     369.7579954000      0.1194951309
   4     142.9442404000      0.2664627624
   5      57.8366425000      0.4202764046
   6      24.3864983000      0.2765077335
   7      10.6622662000      0.0057008815
 S 1 
   1       4.8070437000     -1.0000000000
 S 1 
   1       2.2210770000      1.0000000000
 S 1 
   1       1.0447795000      1.0000000000
 S 1 
   1       0.4968425000      1.0000000000
 S 1 
   1       0.2371384000      1.0000000000
 P 2 
   1      64.2613382000     -0.2731534179
   2      16.3006076000     -0.8168011598
 P 1 
   1       4.3550542000      1.0000000000
 P 1 
   1       1.2019554000      1.0000000000
 P 1 
   1       0.3354196000      1.0000000000
 D 2 
   1       9.2146611000     -0.4661230638
   2       2.8435251000     -0.6600908911
 D 1 
   1       0.9955759000     -1.0000000000
 D 1 
   1       0.3649441000     -1.0000000000
 F 2 
   1       2.6420115000      0.5931563945
   2       0.7345613000      0.5931563945
 G 1 
   1       1.3931000000     -1.0000000000
  end;


Checking for AutoStart:
The File: inpJ.gbw exists
Trying to determine its content:
     ... Fine, the file contains calculation information
     ... Fine, the calculation information was read
     ... Fine, the file contains a basis set
     ... Fine, the basis set was read
     ... Fine, the file contains a geometry
     ... Fine, the geometry was read
     ... Fine, the file contains a set of orbitals
     ... Fine, the orbitals can be read
     => possible old guess file was deleted
     => GBW file was renamed to GES file
     => GES file is set as startup file
     => Guess is set to MORead
     ... now leaving AutoStart



           ************************************************************
           *        Program running with 4 parallel MPI-processes     *
           *              working on a common directory               *
           ************************************************************
------------------------------------------------------------------------------
                             ORCA STARTUP CALCULATIONS
                           -- RI-GTO INTEGRALS CHOSEN --
------------------------------------------------------------------------------
------------------------------------------------------------------------------
                   ___                                                        
                  /   \      - P O W E R E D   B Y -                         
                 /     \                                                     
                 |  |  |   _    _      __       _____    __    __             
                 |  |  |  | |  | |    /  \     |  _  \  |  |  /  |          
                  \  \/   | |  | |   /    \    | | | |  |  | /  /          
                 / \  \   | |__| |  /  /\  \   | |_| |  |  |/  /          
                |  |  |   |  __  | /  /__\  \  |    /   |      \           
                |  |  |   | |  | | |   __   |  |    \   |  |\   \          
                \     /   | |  | | |  |  |  |  | |\  \  |  | \   \       
                 \___/    |_|  |_| |__|  |__|  |_| \__\ |__|  \__/        
                                                                              
                      - O R C A' S   B I G   F R I E N D -                    
                                      &                                       
                       - I N T E G R A L  F E E D E R -                       
                                                                              
 v1 FN, 2020, v2 2021, v3 2022-2024                                           
------------------------------------------------------------------------------


----------------------
SHARK INTEGRAL PACKAGE
----------------------

Number of atoms                             ...     73
Number of basis functions                   ...    509
Number of shells                            ...    335
Maximum angular momentum                    ...      1
Integral batch strategy                     ... SHARK/LIBINT Hybrid
RI-J (if used) integral strategy            ... SPLIT-RIJ (Revised 2003 algorithm where possible)
Printlevel                                  ...      1
Contraction scheme used                     ... SEGMENTED contraction
Prescreening option                         ... SCHWARTZ
   Thresh                                   ... 3.000e-11
   Tcut                                     ... 1.000e-12
   Tpresel                                  ... 1.000e-12 
Coulomb Range Separation                    ... NOT USED
Exchange Range Separation                   ... NOT USED
Multipole approximations                    ... NOT USED
Finite Nucleus Model                        ... NOT USED
CABS basis                                  ... NOT available
Auxiliary Coulomb fitting basis             ... AVAILABLE
   # of basis functions in Aux-J            ...   1905
   # of shells in Aux-J                     ...    655
   Maximum angular momentum in Aux-J        ...      4
Auxiliary J/K fitting basis                 ... NOT available
Auxiliary Correlation fitting basis         ... NOT available
Auxiliary 'external' fitting basis          ... NOT available

Checking pre-screening integrals            ... done (  0.0 sec) Dimension = 335
Check shell pair data                       ... done (  0.0 sec)
Shell pair information
Shell pair cut-off parameter TPreSel        ...   1.0e-12
Total number of shell pairs                 ...     56280
Shell pairs after pre-screening             ...     21749
Total number of primitive shell pairs       ...    145865
Primitive shell pairs kept                  ...     37404
          la=0 lb=0:  10933 shell pairs
          la=1 lb=0:   8956 shell pairs
          la=1 lb=1:   1860 shell pairs

Calculating one electron integrals          ... done (  0.0 sec)
Calculating RI/J V-Matrix + Cholesky decomp.... done (  0.2 sec)
Calculating Nuclear repulsion               ... done (  0.0 sec) ENN=   2776.524158385734 Eh

Diagonalization of the overlap matrix:
Smallest eigenvalue                        ... 7.571e-03
Time for diagonalization                   ...    0.030 sec
Threshold for overlap eigenvalues          ... 1.000e-07
Number of eigenvalues below threshold      ... 0
Time for construction of square roots      ...    0.016 sec
Total time needed                          ...    0.048 sec

-------------------
DFT GRID GENERATION
-------------------

General Integration Accuracy     IntAcc      ... 4.388
Radial Grid Type                 RadialGrid  ... OptM3 with GC (2021)
Angular Grid (max. ang.)         AngularGrid ... 4 (Lebedev-302)
Angular grid pruning method      GridPruning ... 4 (adaptive)
Weight generation scheme         WeightScheme... mBecke (2022)
Basis function cutoff            BFCut       ... 1.0000e-11
Integration weight cutoff        WCut        ... 1.0000e-14
Partially contracted basis set               ... off
Rotationally invariant grid construction     ... off
Angular grids for H and He will be reduced by one unit

Total number of grid points                  ...   309816
Total number of batches                      ...     4879
Average number of points per batch           ...       63
Average number of grid points per atom       ...     4244

--------------------
COSX GRID GENERATION
--------------------

GRIDX 1
-------
General Integration Accuracy     IntAcc      ... 3.816
Radial Grid Type                 RadialGrid  ... OptM3 with GC (2021)
Angular Grid (max. ang.)         AngularGrid ... 1 (Lebedev-50)
Angular grid pruning method      GridPruning ... 4 (adaptive)
Weight generation scheme         WeightScheme... mBecke (2022)
Basis function cutoff            BFCut       ... 1.0000e-11
Integration weight cutoff        WCut        ... 1.0000e-14
Partially contracted basis set               ... on
Rotationally invariant grid construction     ... off
Angular grids for H and He will be reduced by one unit

Total number of grid points                  ...    39395
Total number of batches                      ...      352
Average number of points per batch           ...      111
Average number of grid points per atom       ...      540
UseSFitting                                  ... on

GRIDX 2
-------
General Integration Accuracy     IntAcc      ... 4.020
Radial Grid Type                 RadialGrid  ... OptM3 with GC (2021)
Angular Grid (max. ang.)         AngularGrid ... 2 (Lebedev-110)
Angular grid pruning method      GridPruning ... 4 (adaptive)
Weight generation scheme         WeightScheme... mBecke (2022)
Basis function cutoff            BFCut       ... 1.0000e-11
Integration weight cutoff        WCut        ... 1.0000e-14
Partially contracted basis set               ... on
Rotationally invariant grid construction     ... off
Angular grids for H and He will be reduced by one unit

Total number of grid points                  ...    81399
Total number of batches                      ...      674
Average number of points per batch           ...      120
Average number of grid points per atom       ...     1115
UseSFitting                                  ... on

GRIDX 3
-------
General Integration Accuracy     IntAcc      ... 4.338
Radial Grid Type                 RadialGrid  ... OptM3 with GC (2021)
Angular Grid (max. ang.)         AngularGrid ... 3 (Lebedev-194)
Angular grid pruning method      GridPruning ... 4 (adaptive)
Weight generation scheme         WeightScheme... mBecke (2022)
Basis function cutoff            BFCut       ... 1.0000e-11
Integration weight cutoff        WCut        ... 1.0000e-14
Partially contracted basis set               ... on
Rotationally invariant grid construction     ... off
Angular grids for H and He will be reduced by one unit

Total number of grid points                  ...   176216
Total number of batches                      ...     1418
Average number of points per batch           ...      124
Average number of grid points per atom       ...     2414
UseSFitting                                  ... on
Initializing property integral containers    ... done (  0.0 sec)

SHARK setup successfully completed in   3.6 seconds

Maximum memory used throughout the entire STARTUP-calculation: 85.6 MB


           ************************************************************
           *        Program running with 4 parallel MPI-processes     *
           *              working on a common directory               *
           ************************************************************
-------------------------------------------------------------------------------
                                 ORCA GUESS
                   Start orbitals & Density for SCF / CASSCF
-------------------------------------------------------------------------------

------------
SCF SETTINGS
------------
Hamiltonian:
 Density Functional     Method          .... DFT(GTOs)
 Exchange Functional    Exchange        .... PBE
   PBE kappa parameter   XKappa         ....  0.804000
   PBE mue parameter    XMuePBE         ....  0.219520
 Correlation Functional Correlation     .... PBE
   PBE beta parameter  CBetaPBE         ....  0.066725
 LDA part of GGA corr.  LDAOpt          .... PW91-LDA
 Gradients option       PostSCFGGA      .... off
 Hybrid DFT is turned on
   Fraction HF Exchange ScalHFX         ....  0.250000
   Scaling of DF-GGA-X  ScalDFX         ....  0.750000
   Scaling of DF-GGA-C  ScalDFC         ....  1.000000
   Scaling of DF-LDA-C  ScalLDAC        ....  1.000000
   Perturbative correction              ....  0.000000
   NL short-range parameter             ....  6.900000
 RI-approximation to the Coulomb term is turned on
   Number of AuxJ basis functions       .... 1905
   RIJ-COSX (HFX calculated with COS-X)).... on


General Settings:
 Integral files         IntName         .... inpJ
 Hartree-Fock type      HFTyp           .... RHF
 Total Charge           Charge          ....    0
 Multiplicity           Mult            ....    1
 Number of Electrons    NEL             ....  220
 Basis Dimension        Dim             ....  509
 Nuclear Repulsion      ENuc            ....   2776.5241583857 Eh

Convergence Acceleration:
 AO-DIIS                CNVDIIS         .... on
   Start iteration      DIISMaxIt       ....    12
   Startup error        DIISStart       ....  0.200000
   # of expansion vecs  DIISMaxEq       ....     5
   Bias factor          DIISBfac        ....   1.050
   Max. coefficient     DIISMaxC        ....  10.000
 MO-DIIS                CNVKDIIS        .... off
 Trust-Rad. Augm. Hess. CNVTRAH         .... auto
   Auto Start mean grad. ratio tolernc. ....  1.125000
   Auto Start start iteration           ....     1
   Auto Start num. interpolation iter.  ....    10
   Max. Number of Micro iterations      ....    24
   Max. Number of Macro iterations      .... Maxiter - #DIIS iter
   Number of Davidson start vectors     ....     2
   Converg. threshold    (grad. norm)   ....   1.000e-04
   Grad. Scal. Fac. for Micro threshold ....   0.100
   Minimum threshold for Micro iter.    ....   1.000e-02
   NR start threshold (gradient norm)   ....   1.000e-04
   Initial trust radius                 ....   0.400
   Minimum AH scaling param. (alpha)    ....   1.000
   Maximum AH scaling param. (alpha)    .... 1000.000
   Quad. conv. algorithm                .... NR
   White noise on init. David. guess    .... on
   Maximum white noise                  ....   0.010
   Pseudo random numbers                .... off
   Inactive MOs                         .... canonical
   Orbital update algorithm             .... Taylor
   Preconditioner                       .... Diag
   Full preconditioner red. dimension   ....   250
 SOSCF                  CNVSOSCF        .... off
 Level Shifting         CNVShift        .... on
   Level shift para.    LevelShift      ....    0.2500
   Turn off err/grad.   ShiftErr        ....    0.0010
 Zerner damping         CNVZerner       .... off
 Static damping         CNVDamp         .... on
   Fraction old density DampFac         ....    0.7000
   Max. Damping (<1)    DampMax         ....    0.9800
   Min. Damping (>=0)   DampMin         ....    0.0000
   Turn off err/grad.   DampErr         ....    0.1000

SCF Procedure:
 Maximum # iterations   MaxIter         ....   125
 SCF integral mode      SCFMode         .... Direct
   Integral package                     .... SHARK and LIBINT hybrid scheme
 Reset frequency        DirectResetFreq ....    20
 Integral Threshold     Thresh          ....  3.000e-11 Eh
 Primitive CutOff       TCut            ....  1.000e-12 Eh

Convergence Tolerance:
 Convergence Check Mode ConvCheckMode   .... Total+1el-Energy
 Convergence forced     ConvForced      .... 0
 Energy Change          TolE            ....  1.000e-07 Eh
 1-El. energy change                    ....  1.000e-04 Eh
 DIIS Error             TolErr          ....  1.000e-07

---------------------
INITIAL GUESS: MOREAD
---------------------
Guess MOs are being read from file: inpJ.ges
Input Geometry matches current geometry (good)
Input basis set matches current basis set (good)
Occupation numbers will be reassigned to an Aufbau configuration
MOs were renormalized
MOs were reorthogonalized (Cholesky)
                      ------------------
                      INITIAL GUESS DONE (   0.1 sec)
                      ------------------
             **** ENERGY FILE WAS UPDATED (inpJ.en.tmp) ****
Finished Guess after   0.2 sec
Maximum memory used throughout the entire GUESS-calculation: 36.6 MB


           ************************************************************
           *        Program running with 4 parallel MPI-processes     *
           *              working on a common directory               *
           ************************************************************

-------------------------------------------------------------------------------------------
                                      ORCA LEAN-SCF
                              memory conserving SCF solver
-------------------------------------------------------------------------------------------

--------------------
CPCM SOLVATION MODEL
--------------------
CPCM parameters:
  Epsilon                                         ...       4.8030
  Refrac                                          ...       1.4459
  Rsolv                                           ...       1.3000
  Surface type                                    ... GAUSSIAN VDW
  Discretization scheme                           ... Constant charge density
    Threshold for H atoms                         ...       5.0000 (charges/Ang^2)
    Threshold for non-H atoms                     ...       5.0000 (charges/Ang^2)
  Epsilon function type                           ...         CPCM
Solvent:                                          ... CHLOROFORM
Radii:
  Scheme                                          ... Element-dependent radii
  Radius for C  used is    3.8550 Bohr (=   2.0400 Ang.)
  Radius for H  used is    2.4944 Bohr (=   1.3200 Ang.)
  Radius for O  used is    3.4469 Bohr (=   1.8240 Ang.)
Calculating surface                               ...        done! (  0.0s)
Cavity surface points                             ...         5335
Cavity Volume                                     ...    3599.3614
Cavity Surface-area                               ...    1782.9121
Calculating surface distance matrix               ...        done! (  0.2s)
Performing Cholesky decomposition & store         ...        done! (  0.9s)
Overall time for CPCM initialization              ...                 1.1s

----------------------------------------D-I-I-S--------------------------------------------
Iteration    Energy (Eh)           Delta-E    RMSDP     MaxDP     DIISErr   Damp  Time(sec)
-------------------------------------------------------------------------------------------
               ***  Starting incremental Fock matrix formation  ***
    1    -1165.5114685863868544     0.00e+00  4.27e-08  5.64e-06  6.43e-06  0.700   6.2

  HOMO= 109 E= -6.014 eV LUMO=  5.928 eV gap=  11.942 eV
    2    -1165.5114686114211509    -2.50e-08  2.87e-08  3.38e-06  3.24e-06  0.700   1.9
                 **** Energy Check signals convergence ****

  HOMO= 109 E= -6.014 eV LUMO=  5.928 eV gap=  11.942 eV

               *****************************************************
               *                     SUCCESS                       *
               *           SCF CONVERGED AFTER   2 CYCLES          *
               *****************************************************

Recomputing exchange energy using gridx3       ... done (    8.304 sec)
Old exchange energy                            :    -42.068183945 Eh
New exchange energy                            :    -42.068223138 Eh
Exchange energy change after final integration :     -0.000039193 Eh
Total energy after final integration           :  -1165.511507804 Eh
             **** ENERGY FILE WAS UPDATED (inpJ.en.tmp) ****

----------------
TOTAL SCF ENERGY
----------------

Total Energy       :      -1165.51150780446233 Eh          -31715.18050 eV

Components:
Nuclear Repulsion  :       2776.52415838573370 Eh           75553.06339 eV
Electronic Energy  :      -3942.02203371269025 Eh         -107267.87293 eV
One Electron Energy:      -7094.78896846834505 Eh         -193059.02276 eV
Two Electron Energy:       3152.76693475565480 Eh           85791.14983 eV
CPCM Dielectric    :         -0.01359328446450 Eh              -0.36989 eV

Virial components:
Potential Energy   :      -2322.40600727099445 Eh          -63195.88027 eV
Kinetic Energy     :       1156.89449946653235 Eh           31480.69978 eV
Virial Ratio       :          2.00744839597898

DFT components:
N(Alpha)           :      109.999970095716 electrons
N(Beta)            :      109.999970095716 electrons
N(Total)           :      219.999940191432 electrons
E(X)               :     -125.746836068755 Eh       
E(C)               :       -7.329167152284 Eh       
E(XC)              :     -133.076003221038 Eh       

CPCM Solvation Model Properties:
Surface-charge          :         -0.03341434217085
Corrected charge        :          0.00000000000000
Outlying charge corr.   :          0.00003907994737 Eh               0.00106 eV
Free-energy (cav+disp)  :  This term is not implemented in the current solvation scheme

---------------
SCF CONVERGENCE
---------------

  Last Energy change         ...    2.5034e-08  Tolerance :   1.0000e-07
  Last MAX-Density change    ...    3.3830e-06  Tolerance :   1.0000e-05
  Last RMS-Density change    ...    2.8685e-08  Tolerance :   1.0000e-06
  Last DIIS Error            ...    3.2355e-06  Tolerance :   1.0000e-07


----------------
ORBITAL ENERGIES
----------------

  NO   OCC          E(Eh)            E(eV) 
   0   2.0000     -19.212534      -522.7996 
   1   2.0000     -10.300514      -280.2912 
   2   2.0000     -10.270721      -279.4805 
   3   2.0000     -10.268512      -279.4204 
   4   2.0000     -10.264156      -279.3019 
   5   2.0000     -10.257636      -279.1245 
   6   2.0000     -10.257619      -279.1240 
   7   2.0000     -10.252127      -278.9746 
   8   2.0000     -10.250932      -278.9421 
   9   2.0000     -10.249274      -278.8969 
  10   2.0000     -10.248335      -278.8714 
  11   2.0000     -10.247685      -278.8537 
  12   2.0000     -10.247026      -278.8358 
  13   2.0000     -10.246848      -278.8309 
  14   2.0000     -10.245088      -278.7830 
  15   2.0000     -10.243043      -278.7274 
  16   2.0000     -10.242138      -278.7027 
  17   2.0000     -10.241880      -278.6957 
  18   2.0000     -10.241671      -278.6900 
  19   2.0000     -10.241302      -278.6800 
  20   2.0000     -10.240291      -278.6525 
  21   2.0000     -10.235947      -278.5343 
  22   2.0000     -10.235566      -278.5239 
  23   2.0000     -10.234335      -278.4904 
  24   2.0000     -10.225248      -278.2431 
  25   2.0000     -10.225127      -278.2398 
  26   2.0000     -10.224457      -278.2216 
  27   2.0000     -10.222200      -278.1602 
  28   2.0000     -10.221474      -278.1405 
  29   2.0000      -1.043311       -28.3899 
  30   2.0000      -0.902178       -24.5495 
  31   2.0000      -0.882297       -24.0085 
  32   2.0000      -0.860066       -23.4036 
  33   2.0000      -0.846537       -23.0354 
  34   2.0000      -0.822626       -22.3848 
  35   2.0000      -0.814926       -22.1753 
  36   2.0000      -0.796164       -21.6647 
  37   2.0000      -0.795326       -21.6419 
  38   2.0000      -0.776286       -21.1238 
  39   2.0000      -0.758980       -20.6529 
  40   2.0000      -0.741864       -20.1871 
  41   2.0000      -0.731116       -19.8947 
  42   2.0000      -0.715611       -19.4728 
  43   2.0000      -0.703216       -19.1355 
  44   2.0000      -0.703028       -19.1304 
  45   2.0000      -0.696616       -18.9559 
  46   2.0000      -0.671381       -18.2692 
  47   2.0000      -0.665703       -18.1147 
  48   2.0000      -0.636701       -17.3255 
  49   2.0000      -0.622699       -16.9445 
  50   2.0000      -0.613868       -16.7042 
  51   2.0000      -0.607469       -16.5301 
  52   2.0000      -0.597914       -16.2701 
  53   2.0000      -0.582496       -15.8505 
  54   2.0000      -0.556914       -15.1544 
  55   2.0000      -0.541385       -14.7318 
  56   2.0000      -0.531504       -14.4629 
  57   2.0000      -0.529448       -14.4070 
  58   2.0000      -0.515411       -14.0250 
  59   2.0000      -0.509963       -13.8768 
  60   2.0000      -0.502898       -13.6846 
  61   2.0000      -0.493533       -13.4297 
  62   2.0000      -0.482774       -13.1369 
  63   2.0000      -0.481393       -13.0994 
  64   2.0000      -0.475343       -12.9347 
  65   2.0000      -0.467836       -12.7305 
  66   2.0000      -0.465352       -12.6629 
  67   2.0000      -0.462176       -12.5765 
  68   2.0000      -0.459541       -12.5047 
  69   2.0000      -0.453507       -12.3405 
  70   2.0000      -0.450813       -12.2672 
  71   2.0000      -0.444468       -12.0946 
  72   2.0000      -0.437201       -11.8968 
  73   2.0000      -0.434745       -11.8300 
  74   2.0000      -0.430469       -11.7137 
  75   2.0000      -0.428037       -11.6475 
  76   2.0000      -0.420040       -11.4299 
  77   2.0000      -0.414850       -11.2886 
  78   2.0000      -0.413294       -11.2463 
  79   2.0000      -0.404020       -10.9939 
  80   2.0000      -0.400127       -10.8880 
  81   2.0000      -0.397587       -10.8189 
  82   2.0000      -0.395622       -10.7654 
  83   2.0000      -0.388693       -10.5769 
  84   2.0000      -0.381984       -10.3943 
  85   2.0000      -0.377181       -10.2636 
  86   2.0000      -0.374732       -10.1970 
  87   2.0000      -0.371084       -10.0977 
  88   2.0000      -0.368353       -10.0234 
  89   2.0000      -0.364505        -9.9187 
  90   2.0000      -0.361058        -9.8249 
  91   2.0000      -0.358830        -9.7643 
  92   2.0000      -0.353138        -9.6094 
  93   2.0000      -0.346059        -9.4167 
  94   2.0000      -0.342589        -9.3223 
  95   2.0000      -0.339708        -9.2439 
  96   2.0000      -0.338267        -9.2047 
  97   2.0000      -0.334633        -9.1058 
  98   2.0000      -0.332991        -9.0612 
  99   2.0000      -0.330676        -8.9981 
 100   2.0000      -0.324875        -8.8403 
 101   2.0000      -0.324184        -8.8215 
 102   2.0000      -0.320194        -8.7129 
 103   2.0000      -0.319290        -8.6883 
 104   2.0000      -0.311403        -8.4737 
 105   2.0000      -0.301867        -8.2142 
 106   2.0000      -0.276857        -7.5337 
 107   2.0000      -0.275395        -7.4939 
 108   2.0000      -0.255087        -6.9413 
 109   2.0000      -0.221023        -6.0143 
 110   0.0000      -0.032165        -0.8752 
 111   0.0000       0.019253         0.5239 
 112   0.0000       0.029913         0.8140 
 113   0.0000       0.081766         2.2250 
 114   0.0000       0.092119         2.5067 
 115   0.0000       0.099065         2.6957 
 116   0.0000       0.103702         2.8219 
 117   0.0000       0.106187         2.8895 
 118   0.0000       0.108835         2.9615 
 119   0.0000       0.112732         3.0676 
 120   0.0000       0.117259         3.1908 
*Only the first 10 virtual orbitals were printed.

                    ********************************
                    * MULLIKEN POPULATION ANALYSIS *
                    ********************************

-----------------------
MULLIKEN ATOMIC CHARGES
-----------------------
   0 C :    0.079459
   1 C :   -0.500661
   2 C :   -0.074223
   3 H :    0.222964
   4 H :    0.219742
   5 C :    0.138548
   6 C :   -0.480109
   7 C :   -0.439914
   8 H :    0.225459
   9 H :    0.207365
  10 H :    0.208824
  11 H :    0.227879
  12 O :   -0.488279
  13 H :    0.247349
  14 C :   -0.280260
  15 C :   -0.514098
  16 H :    0.201101
  17 H :    0.197029
  18 C :   -0.260830
  19 H :    0.220534
  20 C :    0.153612
  21 H :    0.218966
  22 C :   -0.478892
  23 C :   -0.427658
  24 H :    0.211948
  25 H :    0.207170
  26 C :   -0.397200
  27 H :    0.208629
  28 H :    0.217525
  29 C :    0.000991
  30 H :    0.222760
  31 H :    0.194722
  32 C :   -0.229835
  33 H :    0.228720
  34 C :   -0.430170
  35 H :    0.341284
  36 C :   -0.427155
  37 H :    0.208828
  38 H :    0.198694
  39 C :   -0.185025
  40 H :    0.211164
  41 H :    0.205679
  42 H :    0.212676
  43 C :   -0.238042
  44 C :   -0.627990
  45 H :    0.205791
  46 H :    0.209506
  47 H :    0.201752
  48 H :    0.218274
  49 C :   -0.641110
  50 C :   -0.189976
  51 C :   -0.185714
  52 H :    0.224781
  53 H :    0.222282
  54 C :   -0.227357
  55 C :   -0.633214
  56 C :   -0.200032
  57 H :    0.223315
  58 H :    0.220052
  59 C :   -0.614567
  60 C :   -0.612433
  61 H :    0.197620
  62 H :    0.206249
  63 H :    0.202834
  64 H :    0.205678
  65 H :    0.193968
  66 H :    0.200412
  67 H :    0.200863
  68 H :    0.205314
  69 H :    0.198948
  70 H :    0.215173
  71 H :    0.191944
  72 H :    0.200367
Sum of atomic charges:   -0.0000000

--------------------------------
MULLIKEN REDUCED ORBITAL CHARGES
--------------------------------
  0 C s       :     3.354282  s :     3.354282
      pz      :     0.993932  p :     2.566260
      px      :     0.816468
      py      :     0.755860

  1 C s       :     3.378009  s :     3.378009
      pz      :     1.138260  p :     3.122652
      px      :     0.864579
      py      :     1.119813

  2 C s       :     3.312639  s :     3.312639
      pz      :     0.710078  p :     2.761584
      px      :     1.131062
      py      :     0.920444

  3 H s       :     0.777036  s :     0.777036

  4 H s       :     0.780258  s :     0.780258

  5 C s       :     3.341732  s :     3.341732
      pz      :     0.905887  p :     2.519720
      px      :     0.850238
      py      :     0.763595

  6 C s       :     3.367343  s :     3.367343
      pz      :     1.138407  p :     3.112766
      px      :     0.875947
      py      :     1.098412

  7 C s       :     3.338568  s :     3.338568
      pz      :     1.178516  p :     3.101346
      px      :     0.981554
      py      :     0.941276

  8 H s       :     0.774541  s :     0.774541

  9 H s       :     0.792635  s :     0.792635

 10 H s       :     0.791176  s :     0.791176

 11 H s       :     0.772121  s :     0.772121

 12 O s       :     3.684840  s :     3.684840
      pz      :     1.411734  p :     4.803438
      px      :     1.485536
      py      :     1.906168

 13 H s       :     0.752651  s :     0.752651

 14 C s       :     3.394042  s :     3.394042
      pz      :     0.969800  p :     2.886217
      px      :     0.826285
      py      :     1.090132

 15 C s       :     3.385379  s :     3.385379
      pz      :     0.997844  p :     3.128719
      px      :     0.994729
      py      :     1.136146

 16 H s       :     0.798899  s :     0.798899

 17 H s       :     0.802971  s :     0.802971

 18 C s       :     3.397303  s :     3.397303
      pz      :     1.002460  p :     2.863526
      px      :     0.770913
      py      :     1.090153

 19 H s       :     0.779466  s :     0.779466

 20 C s       :     3.350697  s :     3.350697
      pz      :     0.934674  p :     2.495691
      px      :     0.764564
      py      :     0.796453

 21 H s       :     0.781034  s :     0.781034

 22 C s       :     3.372491  s :     3.372491
      pz      :     1.124066  p :     3.106401
      px      :     1.089228
      py      :     0.893107

 23 C s       :     3.327576  s :     3.327576
      pz      :     1.099892  p :     3.100082
      px      :     0.880553
      py      :     1.119636

 24 H s       :     0.788052  s :     0.788052

 25 H s       :     0.792830  s :     0.792830

 26 C s       :     3.350157  s :     3.350157
      pz      :     1.166661  p :     3.047043
      px      :     0.981020
      py      :     0.899362

 27 H s       :     0.791371  s :     0.791371

 28 H s       :     0.782475  s :     0.782475

 29 C s       :     3.318206  s :     3.318206
      pz      :     0.870030  p :     2.680803
      px      :     0.906159
      py      :     0.904614

 30 H s       :     0.777240  s :     0.777240

 31 H s       :     0.805278  s :     0.805278

 32 C s       :     3.362614  s :     3.362614
      pz      :     1.082468  p :     2.867221
      px      :     0.860533
      py      :     0.924220

 33 H s       :     0.771280  s :     0.771280

 34 C s       :     3.344744  s :     3.344744
      pz      :     1.190404  p :     3.085427
      px      :     0.937569
      py      :     0.957454

 35 H s       :     0.658716  s :     0.658716

 36 C s       :     3.336002  s :     3.336002
      pz      :     1.171781  p :     3.091153
      px      :     0.933552
      py      :     0.985820

 37 H s       :     0.791172  s :     0.791172

 38 H s       :     0.801306  s :     0.801306

 39 C s       :     3.338713  s :     3.338713
      pz      :     1.062573  p :     2.846312
      px      :     0.854247
      py      :     0.929492

 40 H s       :     0.788836  s :     0.788836

 41 H s       :     0.794321  s :     0.794321

 42 H s       :     0.787324  s :     0.787324

 43 C s       :     3.348315  s :     3.348315
      pz      :     1.047843  p :     2.889727
      px      :     0.871270
      py      :     0.970614

 44 C s       :     3.365693  s :     3.365693
      pz      :     0.955883  p :     3.262296
      px      :     1.165518
      py      :     1.140895

 45 H s       :     0.794209  s :     0.794209

 46 H s       :     0.790494  s :     0.790494

 47 H s       :     0.798248  s :     0.798248

 48 H s       :     0.781726  s :     0.781726

 49 C s       :     3.352108  s :     3.352108
      pz      :     1.149932  p :     3.289002
      px      :     1.151928
      py      :     0.987142

 50 C s       :     3.349350  s :     3.349350
      pz      :     0.927671  p :     2.840625
      px      :     0.842435
      py      :     1.070519

 51 C s       :     3.353246  s :     3.353246
      pz      :     0.921410  p :     2.832468
      px      :     0.841650
      py      :     1.069408

 52 H s       :     0.775219  s :     0.775219

 53 H s       :     0.777718  s :     0.777718

 54 C s       :     3.340045  s :     3.340045
      pz      :     1.065667  p :     2.887313
      px      :     0.870174
      py      :     0.951472

 55 C s       :     3.347462  s :     3.347462
      pz      :     1.156966  p :     3.285752
      px      :     1.161607
      py      :     0.967179

 56 C s       :     3.312327  s :     3.312327
      pz      :     0.980771  p :     2.887705
      px      :     0.965539
      py      :     0.941394

 57 H s       :     0.776685  s :     0.776685

 58 H s       :     0.779948  s :     0.779948

 59 C s       :     3.344773  s :     3.344773
      pz      :     0.987986  p :     3.269794
      px      :     1.156517
      py      :     1.125291

 60 C s       :     3.341167  s :     3.341167
      pz      :     1.163528  p :     3.271265
      px      :     1.143448
      py      :     0.964289

 61 H s       :     0.802380  s :     0.802380

 62 H s       :     0.793751  s :     0.793751

 63 H s       :     0.797166  s :     0.797166

 64 H s       :     0.794322  s :     0.794322

 65 H s       :     0.806032  s :     0.806032

 66 H s       :     0.799588  s :     0.799588

 67 H s       :     0.799137  s :     0.799137

 68 H s       :     0.794686  s :     0.794686

 69 H s       :     0.801052  s :     0.801052

 70 H s       :     0.784827  s :     0.784827

 71 H s       :     0.808056  s :     0.808056

 72 H s       :     0.799633  s :     0.799633


------------------------
MULLIKEN OVERLAP CHARGES
------------------------
B(  0-C ,  1-C ) :   0.5241 B(  0-C ,  2-C ) :  -0.1801 B(  0-C ,  3-H ) :  -0.0796 
B(  0-C ,  4-H ) :  -0.0864 B(  0-C ,  5-C ) :   0.4161 B(  0-C ,  6-C ) :  -0.1407 
B(  0-C , 14-C ) :   0.9497 B(  0-C , 15-C ) :  -0.2025 B(  0-C , 18-C ) :  -0.1862 
B(  0-C , 19-H ) :  -0.0753 B(  1-C ,  2-C ) :   0.5263 B(  1-C ,  3-H ) :   0.8090 
B(  1-C ,  4-H ) :   0.7736 B(  1-C ,  5-C ) :  -0.1402 B(  1-C ,  7-C ) :  -0.1582 
B(  1-C , 12-O ) :  -0.1100 B(  1-C , 13-H ) :  -0.0576 B(  1-C , 14-C ) :  -0.1139 
B(  2-C ,  3-H ) :  -0.0592 B(  2-C ,  4-H ) :  -0.0536 B(  2-C ,  6-C ) :  -0.1581 
B(  2-C ,  7-C ) :   0.5147 B(  2-C , 10-H ) :  -0.0625 B(  2-C , 11-H ) :  -0.0697 
B(  2-C , 12-O ) :   0.6969 B(  2-C , 13-H ) :   0.8217 B(  2-C , 35-H ) :  -0.1149 
B(  5-C ,  6-C ) :   0.5298 B(  5-C ,  7-C ) :  -0.1572 B(  5-C ,  8-H ) :  -0.0730 
B(  5-C ,  9-H ) :  -0.0939 B(  5-C , 14-C ) :  -0.1992 B(  5-C , 15-C ) :   1.0614 
B(  5-C , 16-H ) :  -0.0996 B(  5-C , 17-H ) :  -0.0951 B(  6-C ,  7-C ) :   0.5527 
B(  6-C ,  8-H ) :   0.8228 B(  6-C ,  9-H ) :   0.7936 B(  6-C , 10-H ) :  -0.0740 
B(  6-C , 11-H ) :  -0.0562 B(  6-C , 15-C ) :  -0.1299 B(  7-C ,  9-H ) :  -0.0777 
B(  7-C , 10-H ) :   0.7763 B(  7-C , 11-H ) :   0.8045 B(  7-C , 12-O ) :  -0.1081 
B(  7-C , 13-H ) :  -0.0826 B( 12-O , 35-H ) :   0.6663 B( 14-C , 18-C ) :   0.6125 
B( 14-C , 19-H ) :   0.8211 B( 14-C , 20-C ) :  -0.1939 B( 14-C , 21-H ) :  -0.0737 
B( 15-C , 16-H ) :   0.8136 B( 15-C , 17-H ) :   0.8064 B( 18-C , 19-H ) :  -0.0603 
B( 18-C , 20-C ) :   0.9196 B( 18-C , 21-H ) :   0.8335 B( 18-C , 22-C ) :  -0.1508 
B( 18-C , 32-C ) :  -0.1497 B( 20-C , 21-H ) :  -0.0829 B( 20-C , 22-C ) :   0.5335 
B( 20-C , 23-C ) :  -0.1728 B( 20-C , 24-H ) :  -0.0674 B( 20-C , 25-H ) :  -0.0919 
B( 20-C , 29-C ) :  -0.1235 B( 20-C , 32-C ) :   0.5185 B( 20-C , 33-H ) :  -0.0914 
[...]
        0.0000         2.9663        0.0000
        0.0000         0.0000        2.9663

 Diagonalized JT*J matrix:
 
 J[55,60](FC)             2.966            2.966            2.966  iso=      2.966
                ---------------  ---------------  ---------------  ---------------
 J[55,60](Total)          2.966            2.966            2.966  iso=      2.966



-----------------------------------------------------------
 NUCLEUS A = C   56 NUCLEUS B = C   59 
 ( 13C  gnA =  1.405  13C  gnB =  1.405) r(AB) =     1.5299
-----------------------------------------------------------

Fermi-contact contribution to J (Hz):
       26.8016         0.0000        0.0000
        0.0000        26.8016        0.0000
        0.0000         0.0000       26.8016

Total spin-spin coupling tensor J (Hz):
       26.8016         0.0000        0.0000
        0.0000        26.8016        0.0000
        0.0000         0.0000       26.8016

 Diagonalized JT*J matrix:
 
 J[56,59](FC)            26.802           26.802           26.802  iso=     26.802
                ---------------  ---------------  ---------------  ---------------
 J[56,59](Total)         26.802           26.802           26.802  iso=     26.802



-----------------------------------------------------------
 NUCLEUS A = C   56 NUCLEUS B = C   60 
 ( 13C  gnA =  1.405  13C  gnB =  1.405) r(AB) =     1.5313
-----------------------------------------------------------

Fermi-contact contribution to J (Hz):
       27.0650         0.0000        0.0000
        0.0000        27.0650        0.0000
        0.0000         0.0000       27.0650

Total spin-spin coupling tensor J (Hz):
       27.0650         0.0000        0.0000
        0.0000        27.0650        0.0000
        0.0000         0.0000       27.0650

 Diagonalized JT*J matrix:
 
 J[56,60](FC)            27.065           27.065           27.065  iso=     27.065
                ---------------  ---------------  ---------------  ---------------
 J[56,60](Total)         27.065           27.065           27.065  iso=     27.065



-----------------------------------------------------------
 NUCLEUS A = C   59 NUCLEUS B = C   60 
 ( 13C  gnA =  1.405  13C  gnB =  1.405) r(AB) =     2.5127
-----------------------------------------------------------

Fermi-contact contribution to J (Hz):
       -0.9315         0.0000        0.0000
        0.0000        -0.9315        0.0000
        0.0000         0.0000       -0.9315

Total spin-spin coupling tensor J (Hz):
       -0.9315         0.0000        0.0000
        0.0000        -0.9315        0.0000
        0.0000         0.0000       -0.9315

 Diagonalized JT*J matrix:
 
 J[59,60](FC)            -0.932           -0.932           -0.932  iso=     -0.932
                ---------------  ---------------  ---------------  ---------------
 J[59,60](Total)         -0.932           -0.932           -0.932  iso=     -0.932



-----------------------------------------------------------------------------
                SUMMARY OF ISOTROPIC COUPLING CONSTANTS J (Hz)                
-----------------------------------------------------------------------------
                  0 C        1 C        2 C        5 C        6 C        7 C  
      0 C        0.000     33.165     -3.772     41.400     -0.891      2.288
      1 C       33.165      0.000     23.476     -1.215      1.432     -0.670
      2 C       -3.772     23.476      0.000      2.306     -2.776     25.885
      5 C       41.400     -1.215      2.306      0.000     30.434     -2.788
      6 C       -0.891      1.432     -2.776     30.434      0.000     24.858
      7 C        2.288     -0.670     25.885     -2.788     24.858      0.000
     14 C       69.429     -0.357      2.851     -3.043      2.180     -0.622
     15 C       -3.428      2.422     -0.867     64.490     -1.065      2.598
     18 C       -2.434      4.183     -1.095      3.181     -0.813      0.191
     20 C        6.821     -1.106      1.085     -1.401      0.606     -0.103
     22 C       -0.923      0.328     -0.330      0.429     -0.181      0.038
     23 C        0.827     -0.287      0.281     -0.345      0.152      0.000
     26 C       -0.094      0.039      0.000      0.049      0.000      0.000
     29 C        1.156     -0.362      0.000     -0.447      0.204      0.000
     32 C       -1.120      0.544     -0.373      0.474     -0.212      0.044
     34 C        0.022     -0.015      0.014     -0.015      0.005     -0.001
     36 C       -0.017      0.000      0.000      0.017     -0.008      0.000
     39 C       -0.073      0.000      0.000      0.031      0.000      0.000
     43 C        0.000      0.000      0.000      0.000      0.000      0.000
     44 C        0.010     -0.003      0.000     -0.002     -0.003      0.000
     49 C        0.000      0.000      0.000      0.000      0.000      0.000
     50 C        0.000      0.000      0.000      0.000      0.000      0.000
     51 C        0.000      0.000      0.000      0.000      0.000      0.000
     54 C        0.000      0.000      0.000      0.000      0.000      0.000
     55 C        0.000      0.000      0.000      0.000      0.000      0.000
     56 C        0.000      0.000      0.000      0.000      0.000      0.000
     59 C        0.000      0.000      0.000      0.000      0.000      0.000
     60 C        0.000      0.000      0.000      0.000      0.000      0.000
                 14 C       15 C       18 C       20 C       22 C       23 C  
      0 C       69.429     -3.428     -2.434      6.821     -0.923      0.827
      1 C       -0.357      2.422      4.183     -1.106      0.328     -0.287
      2 C        2.851     -0.867     -1.095      1.085     -0.330      0.281
      5 C       -3.043     64.490      3.181     -1.401      0.429     -0.345
      6 C        2.180     -1.065     -0.813      0.606     -0.181      0.152
      7 C       -0.622      2.598      0.191     -0.103      0.038      0.000
     14 C        0.000      3.113     54.079     -2.640      3.827     -0.923
     15 C        3.113      0.000     -1.156      1.016     -0.275      0.255
     18 C       54.079     -1.156      0.000     70.012     -2.168      2.365
     20 C       -2.640      1.016     70.012      0.000     32.179     -2.978
     22 C        3.827     -0.275     -2.168     32.179      0.000     24.303
     23 C       -0.923      0.255      2.365     -2.978     24.303      0.000
     26 C        0.138     -0.034     -0.353      1.040     -1.936     25.461
     29 C       -1.120      0.322      2.268     -2.444      1.054     -2.227
     32 C        4.374     -0.317     -1.307     36.898     -0.229      1.556
     34 C        0.071      0.004      2.490     -1.354      1.613     -0.267
     36 C        0.019     -0.014     -0.134      3.505      0.076      0.158
     39 C        0.259     -0.024     -0.053      2.944     -0.337      2.537
     43 C        0.009      0.016      0.279      0.207     -0.004     -0.112
     44 C        0.006      0.028     -0.054      0.693     -0.134      0.602
     49 C       -0.001      0.000     -0.009     -0.030      0.142      0.049
     50 C        0.000      0.000      0.003      0.213     -0.006      0.115
     51 C        0.000      0.000      0.000      0.064     -0.003      0.002
     54 C        0.000      0.000      0.000      0.000      0.000      0.000
     55 C        0.000      0.000      0.000      0.000      0.000      0.000
     56 C        0.000      0.000      0.000      0.000      0.000      0.000
     59 C        0.000      0.000      0.000      0.000      0.000      0.000
     60 C        0.000      0.000      0.000      0.000      0.000      0.000
                 26 C       29 C       32 C       34 C       36 C       39 C  
      0 C       -0.094      1.156     -1.120      0.022     -0.017     -0.073
      1 C        0.039     -0.362      0.544     -0.015      0.000      0.000
      2 C        0.000      0.000     -0.373      0.014      0.000      0.000
      5 C        0.049     -0.447      0.474     -0.015      0.017      0.031
      6 C        0.000      0.204     -0.212      0.005     -0.008      0.000
      7 C        0.000      0.000      0.044     -0.001      0.000      0.000
     14 C        0.138     -1.120      4.374      0.071      0.019      0.259
     15 C       -0.034      0.322     -0.317      0.004     -0.014     -0.024
     18 C       -0.353      2.268     -1.307      2.490     -0.134     -0.053
     20 C        1.040     -2.444     36.898     -1.354      3.505      2.944
     22 C       -1.936      1.054     -0.229      1.613      0.076     -0.337
     23 C       25.461     -2.227      1.556     -0.267      0.158      2.537
     26 C        0.000     27.939     -0.922      2.267      3.030     -0.580
     29 C       27.939      0.000     23.066      0.932      0.690     28.216
     32 C       -0.922     23.066      0.000     28.051      1.245      3.434
     34 C        2.267      0.932     28.051      0.000     26.030      0.002
     36 C        3.030      0.690      1.245     26.030      0.000     26.439
     39 C       -0.580     28.216      3.434      0.002     26.439      0.000
     43 C       -0.017     -0.711      2.862      1.542     -0.035     27.734
     44 C       -0.615     27.165     -1.000      0.821      0.290     -1.288
     49 C        0.427      0.116     -0.007      0.061      3.268     -1.015
     50 C       -0.077      3.023      0.008      0.091      1.382     -2.790
     51 C       -0.016      0.165      0.147     -0.033      0.067      2.789
     54 C       -0.002      0.085     -0.037      0.013     -0.001     -0.852
     55 C        0.000     -0.001      0.003     -0.002      0.001      0.030
     56 C       -0.003      0.034      0.000     -0.005      0.022      0.911
     59 C        0.000     -0.002      0.000      0.000     -0.001     -0.006
     60 C        0.000      0.003      0.000      0.000     -0.002      0.008
                 43 C       44 C       49 C       50 C       51 C       54 C  
      0 C        0.000      0.010      0.000      0.000      0.000      0.000
      1 C        0.000     -0.003      0.000      0.000      0.000      0.000
      2 C        0.000      0.000      0.000      0.000      0.000      0.000
      5 C        0.000     -0.002      0.000      0.000      0.000      0.000
      6 C        0.000     -0.003      0.000      0.000      0.000      0.000
      7 C        0.000      0.000      0.000      0.000      0.000      0.000
     14 C        0.009      0.006     -0.001      0.000      0.000      0.000
     15 C        0.016      0.028      0.000      0.000      0.000      0.000
     18 C        0.279     -0.054     -0.009      0.003      0.000      0.000
     20 C        0.207      0.693     -0.030      0.213      0.064      0.000
     22 C       -0.004     -0.134      0.142     -0.006     -0.003      0.000
     23 C       -0.112      0.602      0.049      0.115      0.002      0.000
     26 C       -0.017     -0.615      0.427     -0.077     -0.016     -0.002
     29 C       -0.711     27.165      0.116      3.023      0.165      0.085
     32 C        2.862     -1.000     -0.007      0.008      0.147     -0.037
     34 C        1.542      0.821      0.061      0.091     -0.033      0.013
     36 C       -0.035      0.290      3.268      1.382      0.067     -0.001
     39 C       27.734     -1.288     -1.015     -2.790      2.789     -0.852
     43 C        0.000      1.407     27.392     35.865     -1.245      3.361
     44 C        1.407      0.000     -0.043     -0.112      0.082      0.007
     49 C       27.392     -0.043      0.000     -1.971      3.174     -0.007
     50 C       35.865     -0.112     -1.971      0.000     69.062     -1.465
     51 C       -1.245      0.082      3.174     69.062      0.000     36.036
     54 C        3.361      0.007     -0.007     -1.465     36.036      0.000
     55 C       -0.027     -0.001      0.097      2.898     -1.695     28.268
     56 C       -0.712      0.003      0.041      2.715     -2.805     25.359
     59 C        0.024      0.000     -0.003     -0.116      1.042     -1.381
     60 C        0.007      0.000     -0.004      0.012      1.288     -0.753
                 55 C       56 C       59 C       60 C  
      0 C        0.000      0.000      0.000      0.000
      1 C        0.000      0.000      0.000      0.000
      2 C        0.000      0.000      0.000      0.000
      5 C        0.000      0.000      0.000      0.000
      6 C        0.000      0.000      0.000      0.000
      7 C        0.000      0.000      0.000      0.000
     14 C        0.000      0.000      0.000      0.000
     15 C        0.000      0.000      0.000      0.000
     18 C        0.000      0.000      0.000      0.000
     20 C        0.000      0.000      0.000      0.000
     22 C        0.000      0.000      0.000      0.000
     23 C        0.000      0.000      0.000      0.000
     26 C        0.000     -0.003      0.000      0.000
     29 C       -0.001      0.034     -0.002      0.003
     32 C        0.003      0.000      0.000      0.000
     34 C       -0.002     -0.005      0.000      0.000
     36 C        0.001      0.022     -0.001     -0.002
     39 C        0.030      0.911     -0.006      0.008
     43 C       -0.027     -0.712      0.024      0.007
     44 C       -0.001      0.003      0.000      0.000
     49 C        0.097      0.041     -0.003     -0.004
     50 C        2.898      2.715     -0.116      0.012
     51 C       -1.695     -2.805      1.042      1.288
     54 C       28.268     25.359     -1.381     -0.753
     55 C        0.000     -0.664      0.994      2.966
     56 C       -0.664      0.000     26.802     27.065
     59 C        0.994     26.802      0.000     -0.932
     60 C        2.966     27.065     -0.932      0.000

NMR spin-spin coupling calculation done in   0.3 sec 

Maximum memory used throughout the entire PROP-calculation: 34.1 MB

--------------------------------
SUGGESTED CITATIONS FOR THIS RUN
--------------------------------

Below you find a list of papers that are relevant to this ORCA run
We neither can nor want to force you to cite these papers, but we appreciate if you do
You receive ORCA, which is the product of decades of hard work by many enthusiastic individuals, for free
The only thing we kindly ask in return is that you cite our papers,
We deeply appreciate it, if you show your appreciation for ORCA by not just citing the generic ORCA reference.

Please note that relegating all ORCA citations to the supporting information does *not* help us.
SI sections are not indexed - citations you put there will not count into any citation statistics
But we need these citations in order to attract the funding resources that allow us to do what we are doing

Therefore, if you are a happy ORCA user, please consider citing a few of the papers listed below in the main body of your paper

In addition to the list printed below, the program has created the file inpJ.bibtex that contains the list in bibtex format
You can import this file easily into all common literature databanks and citation aid programs


List of essential papers. We consider these as the minimum necessary citations

  1. Neese,F.
     Software update: the ORCA program system, version 5.0
     WIRES Comput. Molec. Sci., 2022 12(1)e1606
     doi.org/10.1002/wcms.1606

List of papers to cite with high priority. The work reported in these papers was absolutely
necessary for this run to complete.
Our perspective: the developers of density functionals and basis sets usually get cited in chemistry papers
Good! But without the algorithms to do something with them, the functionals or basis sets would not do anything.
Hence, in our opinion, the algorithm design and method developments papers are equally worthy of getting cited

  1. Neese,F.
     An improvement of the resolution of the identity approximation for the formation of the Coulomb matrix
     J. Comp. Chem., 2003 24(14)1740-1747
     doi.org/10.1002/jcc.10318
  2. Neese,F.; Wennmohs,F.; Hansen,A.; Becker,U.
     Efficient, approximate and parallel Hartree-Fock and hybrid DFT calculations. A 'chain-of-spheres' algorithm for the Hartree-Fock exchange
     Chem. Phys., 2009 356(1-3)98-109
     doi.org/10.1016/j.chemphys.2008.10.036
  3. Stoychev,G.L.; Auer,A.A.; Izsak,R.; Neese,F.
     Self-Consistent Field Calculation of Nuclear Magnetic Resonance Chemical Shielding Constants Using Gauge-Including Atomic Orbitals and Approximate Two-Electron Integrals
     J. Chem. Theory Comput., 2018 14(2)619-637
     doi.org/10.1021/acs.jctc.7b01006
  4. Garcia-Rates,M.; Neese,F.
     Effect of the Solute Cavity on the Solvation Energy and its Derivatives within the Framework of the Gaussian Charge Scheme
     J. Comput. Chem., 2020 41 922-939
     doi.org/10.1002/jcc.26139
  5. Helmich-Paris,B.; de Souza,B.; Neese,F.; Izsák,R.
     An improved chain of spheres for exchange algorithm
     J. Chem. Phys., 2021 155 104109
     doi.org/doi: 10.1063/5.0058766.
  6. Neese,F.
     The SHARK Integral Generation and Digestion System
     J. Comp. Chem., 2022  1-16
     doi.org/10.1002/jcc.26942
  7. Grimme,S.; Bannwarth,C.; Dohm,S.; Hansen,A.; Pisarek,J.; Pracht,P.; Seibert,J.; Neese,F.
     Fully Automated Quantum-Chemistry-Based Computation of Spin-Spin-Coupled Nuclear Magnetic Resonance Spectra
     Angew. Chem., Int. Ed., 2017 56 14763-14769
     doi.org/10.1002/anie.201708266
  8. Caldeweyher,E.; Bannwarth,C.; Grimme,S.
     Extension of the D3 dispersion coefficient model
     J. Chem. Phys., 2017 147 034112-XXXX
     doi.org/10.1063/1.4993215
  9. Caldeweyher,E.; Ehlert,S.; Hansen,A.; Neugebauer,H.; Spicher,S.; Bannwarth,C.; Grimme,S.
     A generally applicable atomic-charge dependent London dispersion correction
     J. Chem. Phys., 2019 150 154122-XXXX
     doi.org/10.1063/1.5090222
 10. Caldeweyher,E.; Mewes,J.; Ehlert,S.; Grimme,S.
     Extension and evaluation of the D4 London-dispersion model for periodic systems
     Phys. Chem. Chem. Phys., 2020 22(16)8499-8512
     doi.org/10.1039/D0CP00502A

List of suggested additional citations. These are papers that are important in the 'surrounding' of 
of this run, or papers that preceded the highly important papers. If you like your results we are grateful for a citation.

  1. Izsak,R.; Neese,F.
     An overlap fitted chain of spheres exchange method
     J. Chem. Phys., 2011 135 144105
     doi.org/10.1063/1.3646921
  2. Izsak,R.; Hansen,A.; Neese,F.
     The resolution of identity and chain of spheres approximations for the LPNO-CCSD singles Fock term
     Molec. Phys., 2012 110 2413-2417
     doi.org/10.1080/00268976.2012.687466
  3. Neese,F.
     The ORCA program system
     WIRES Comput. Molec. Sci., 2012 2(1)73-78
     doi.org/10.1002/wcms.81
  4. Izsak,R.; Neese,F.; Klopper,W.
     Robust fitting techniques in the chain of spheres approximation to the Fock exchange: The role of the complementary space
     J. Chem. Phys., 2013 139 
     doi.org/10.1063/1.4819264
  5. Neese,F.
     Software update: the ORCA program system, version 4.0
     WIRES Comput. Molec. Sci., 2018 8(1)1-6
     doi.org/10.1002/wcms.1327
  6. Neese,F.; Wennmohs,F.; Becker,U.; Riplinger,C.
     The ORCA quantum chemistry program package
     J. Chem. Phys., 2020 152 Art. No. L224108
     doi.org/10.1063/5.0004608

Timings for individual modules:

Sum of individual times          ...      132.266 sec (=   2.204 min)
Startup calculation              ...        3.777 sec (=   0.063 min)   2.9 %
SCF iterations                   ...       18.807 sec (=   0.313 min)  14.2 %
Property integrals               ...        0.642 sec (=   0.011 min)   0.5 %
SCF Response                     ...      108.444 sec (=   1.807 min)  82.0 %
Property calculations            ...        0.596 sec (=   0.010 min)   0.5 %
                             ****ORCA TERMINATED NORMALLY****
TOTAL RUN TIME: 0 days 0 hours 2 minutes 12 seconds 554 msec
