
                                 *****************
                                 * O   R   C   A *
                                 *****************

                                            #,                                       
                                            ###                                      
                                            ####                                     
                                            #####                                    
                                            ######                                   
                                           ########,                                 
                                     ,,################,,,,,                         
                               ,,#################################,,                 
                          ,,##########################################,,             
                       ,#########################################, ''#####,          
                    ,#############################################,,   '####,        
                  ,##################################################,,,,####,       
                ,###########''''           ''''###############################       
              ,#####''   ,,,,##########,,,,          '''####'''          '####       
            ,##' ,,,,###########################,,,                        '##       
           ' ,,###''''                  '''############,,,                           
         ,,##''                                '''############,,,,        ,,,,,,###''
      ,#''                                            '''#######################'''  
     '                                                          ''''####''''         
             ,#######,   #######,   ,#######,      ##                                
            ,#'     '#,  ##    ##  ,#'     '#,    #''#        ,####,   ,####,        
            ##       ##  ##   ,#'  ##            #'  '#       #'       #'  '#        
            ##       ##  #######   ##           ,######,      #####,   #    #        
            '#,     ,#'  ##    ##  '#,     ,#' ,#      #,     #,   #   #,  ,#        
             '#######'   ##     ##  '#######'  #'      '#     '####' # '####'        



                #########################################################
                #                        -***-                          #
                #          Department of theory and spectroscopy        #
                #                                                       #
                #                      Frank Neese                      #
                #                                                       #
                #     Directorship, Architecture, Infrastructure        #
                #                    SHARK, DRIVERS                     #
                #        Core code/Algorithms in most modules           #
                #                                                       #
                #        Max Planck Institute fuer Kohlenforschung      #
                #                Kaiser Wilhelm Platz 1                 #
                #                 D-45470 Muelheim/Ruhr                 #
                #                      Germany                          #
                #                                                       #
                #                  All rights reserved                  #
                #                        -***-                          #
                #########################################################


                         Program Version 6.0.0  -   RELEASE  -


 With contributions from (in alphabetic order):
   Daniel Aravena         : Magnetic Suceptibility
   Michael Atanasov       : Ab Initio Ligand Field Theory (pilot matlab implementation)
   Alexander A. Auer      : GIAO ZORA, VPT2 properties, NMR spectrum
   Ute Becker             : All parallelization in ORCA, NUMFREQ, NUMCALC
   Giovanni Bistoni       : ED, misc. LED, open-shell LED, HFLD
   Martin Brehm           : Molecular dynamics
   Dmytro Bykov           : pre 5.0 version of the SCF Hessian
   Marcos Casanova-Páez   : Triplet and SCS-CIS(D). UHF-(DLPNO)-IP/EA/STEOM-CCSD. UHF-CVS-IP/STEOM-CCSD
   Vijay G. Chilkuri      : MRCI spin determinant printing, contributions to CSF-ICE
   Pauline Colinet        : FMM embedding
   Dipayan Datta          : RHF DLPNO-CCSD density
   Achintya Kumar Dutta   : EOM-CC, STEOM-CC
   Nicolas Foglia         : Exact transition moments, OPA infrastructure, MCD improvements
   Dmitry Ganyushin       : Spin-Orbit,Spin-Spin,Magnetic field MRCI
   Miquel Garcia          : C-PCM and meta-GGA Hessian, CCSD/C-PCM, Gaussian charge scheme
   Tiago L. C. Gouveia    : GS-ROHF, GS-ROCIS
   Yang Guo               : DLPNO-NEVPT2, F12-NEVPT2, CIM, IAO-localization
   Andreas Hansen         : Spin unrestricted coupled pair/coupled cluster methods
   Ingolf Harden          : AUTO-CI MPn and infrastructure 
   Benjamin Helmich-Paris : MC-RPA, TRAH-(SCF,CASSCF), AVAS, COSX integrals, SCF dyn. polar.
   Lee Huntington         : MR-EOM, pCC
   Robert Izsak           : Overlap fitted RIJCOSX, COSX-SCS-MP3, EOM
   Riya Kayal             : Wick's Theorem for AUTO-CI, AUTO-CI UHF-CCSDT
   Emily Kempfer          : AUTO-CI, RHF CISDT and CCSDT
   Christian Kollmar      : KDIIS, OOCD, Brueckner-CCSD(T), CCSD density, CASPT2, CASPT2-K, improved NEVPT2
   Axel Koslowski         : Symmetry handling
   Simone Kossmann        : Meta GGA functionals, TD-DFT gradient, OOMP2, (MP2 Hessian; deprecated post 5.0)
   Lucas Lang             : DCDCAS
   Marvin Lechner         : AUTO-CI (C++ implementation), FIC-MRCC
   Spencer Leger          : CASSCF response
   Dagmar Lenk            : GEPOL surface, SMD, ORCA-2-JSON
   Dimitrios Liakos       : Extrapolation schemes; Compound Job, initial MDCI parallelization
   Dimitrios Manganas     : Further ROCIS development; embedding schemes. LFT, Crystal Embedding
   Dimitrios Pantazis     : SARC Basis sets
   Anastasios Papadopoulos: AUTO-CI, single reference methods and gradients
   Taras Petrenko         : pre 6.0 DFT Hessian and TD-DFT gradient, (ASA, deprecated), ECA, 1-Electron XAS/XES, NRVS
   Peter Pinski           : DLPNO-MP2, DLPNO-MP2 Gradient
   Christoph Reimann      : Effective Core Potentials
   Marius Retegan         : Local ZFS, SOC
   Christoph Riplinger    : Optimizer, TS searches, QM/MM, DLPNO-CCSD(T), (RO)-DLPNO pert. Triples
   Michael Roemelt        : Original ROCIS implementation
   Masaaki Saitow         : Open-shell DLPNO-CCSD energy and density
   Barbara Sandhoefer     : DKH picture change effects
   Kantharuban Sivalingam : CASSCF convergence/infrastructure, NEVPT2 and variants, FIC-MRCI
   Bernardo de Souza      : ESD, SOC TD-DFT
   Georgi Stoychev        : AutoAux, RI-MP2 NMR, DLPNO-MP2 response, X2C
   Van Anh Tran           : RI-MP2 g-tensors
   Willem Van den Heuvel  : Paramagnetic NMR
   Zikuan Wang            : NOTCH, Electric field optimization 
   Frank Wennmohs         : Technical directorship and infrastructure
   Hang Xu                : AUTO-CI-Response properties 


 We gratefully acknowledge several colleagues who have allowed us to
 interface, adapt or use parts of their codes:
   Stefan Grimme, W. Hujo, H. Kruse, P. Pracht,  : VdW corrections, initial TS optimization,
                  C. Bannwarth, S. Ehlert,         DFT functionals, gCP, sTDA/sTD-DF
                  L. Wittmann, M. Mueller
   Ed Valeev, F. Pavosevic, A. Kumar             : LibInt (2-el integral package), F12 methods
   Garnet Chan, S. Sharma, J. Yang, R. Olivares  : DMRG
   Ulf Ekstrom                                   : XCFun DFT Library
   Mihaly Kallay                                 : mrcc  (arbitrary order and MRCC methods)
   Frank Weinhold                                : gennbo (NPA and NBO analysis)
   Simon Mueller                                 : openCOSMO-RS
   Christopher J. Cramer and Donald G. Truhlar   : smd solvation model
   Lars Goerigk                                  : TD-DFT with DH, B97 family of functionals
   V. Asgeirsson, H. Jonsson                     : NEB implementation
   FAccTs GmbH                                   : IRC, NEB, NEB-TS, DLPNO-Multilevel, CI-OPT
                                                   MM, QMMM, 2- and 3-layer-ONIOM, Crystal-QMMM,
                                                   LR-CPCM, SF, NACMEs, symmetry and pop. for TD-DFT,
                                                   nearIR, NL-DFT gradient (VV10), updates on ESD,
                                                   ML-optimized integration grids, MBIS, APM,
                                                   GOAT, DOCKER, SOLVATOR, interface openCOSMO-RS
   S Lehtola, MJT Oliveira, MAL Marques          : LibXC Library
   Liviu Ungur et al                             : ANISO software


 Your calculation uses the libint2 library for the computation of 2-el integrals
 For citations please refer to: http://libint.valeyev.net

 Your ORCA version has been built with support for libXC version: 6.2.2
 For citations please refer to: https://libxc.gitlab.io

 This ORCA versions uses:
   CBLAS   interface :  Fast vector & matrix operations
   LAPACKE interface :  Fast linear algebra routines
   SCALAPACK package :  Parallel linear algebra routines
   Shared memory     :  Shared parallel matrices
   BLAS/LAPACK       :  OpenBLAS 0.3.27  USE64BITINT DYNAMIC_ARCH NO_AFFINITY Zen SINGLE_THREADED
        Core in use  :  Zen
   Copyright (c) 2011-2014, The OpenBLAS Project


NOTE: MaxCore=8000 MB was set to SCF,MP2,MDCI,CIPSI,MRCI and CIS
      => If you want to overwrite this, your respective input block should be placed after the MaxCore statement
Your calculation utilizes the atom-pairwise dispersion correction
based on EEQ partial charges (D4)


================================================================================

----- Orbital basis set information -----
Your calculation utilizes the basis: def2-SVP
   F. Weigend and R. Ahlrichs, Phys. Chem. Chem. Phys. 7, 3297 (2005).

----- AuxJ basis set information -----
Your calculation utilizes the auxiliary basis: def2/J
   F. Weigend, Phys. Chem. Chem. Phys. 8, 1057 (2006).

================================================================================
                                        WARNINGS
                       Please study these warnings very carefully!
================================================================================

WARNING: Old DensityContainer found on disk!
         Will remove this file - 
         If you want to keep old densities, please start your calculation with a different basename. 


================================================================================
                                       INPUT FILE
================================================================================
NAME = inpS
|  1> ! wb97x-d4
|  2> ! def2-svp
|  3> ! def2/J RIJCOSX
|  4> ! DEFGRID2
|  5> ! scfconv7
|  6> ! smallprint printgap noloewdin
|  7> ! NOSOSCF
|  8> %MaxCore 8000
|  9> %output
| 10>        print[P_BondOrder_M] 1
| 11>        print[P_Mayer] 1
| 12>        print[P_basis] 2
| 13> end
| 14> %pal
| 15>     nprocs 4
| 16> end
| 17> ! CPCM(chloroform)
| 18> *xyz 0 1
| 19> C   -5.3006659000   0.1265676400  -0.6836427900
| 20> C   -6.7046338400  -0.3621446600  -0.9515300900
| 21> C   -7.7237623700   0.4800214800  -0.1739676500
| 22> H   -6.8056613300  -1.4189978000  -0.6797440400
| 23> H   -6.9359186200  -0.2643008400  -2.0226796900
| 24> C   -5.1083273500   1.5721407900  -0.9346864500
| 25> C   -6.1471188400   2.4645467700  -0.2916216200
| 26> C   -7.5749355200   1.9574966800  -0.5399362400
| 27> H   -6.0357299000   3.4936078000  -0.6494671300
| 28> H   -5.9635872000   2.4806990600   0.7935741100
| 29> H   -7.8285582100   2.0763607900  -1.6022158900
| 30> H   -8.2911547100   2.5521344000   0.0388975500
| 31> O   -7.5868444900   0.2661198100   1.2405933700
| 32> H   -8.7387557500   0.1433785100  -0.4187935000
| 33> C   -4.3514567200  -0.7061314900  -0.1937299800
| 34> C   -4.1228742100   2.0556042600  -1.6991703700
| 35> H   -3.3957117700   1.3976321000  -2.1676055900
| 36> H   -4.0282760900   3.1236631100  -1.8809178400
| 37> C   -3.0117862200  -0.3359281300   0.2016662500
| 38> H   -4.6470486100  -1.7457521200  -0.0577632800
| 39> C   -2.0295892500  -1.1785503100   0.5870001700
| 40> H   -2.7937361000   0.7296159900   0.1950205400
| 41> C   -2.1292091600  -2.6819502900   0.6301169400
| 42> C   -1.0082724000  -3.3447996800  -0.1932458100
| 43> H   -3.1016870700  -3.0443104400   0.2864469900
| 44> H   -2.0174878400  -2.9990483200   1.6791975300
| 45> C    0.3853587000  -2.8176257800   0.1732622600
| 46> H   -1.2005916600  -3.1758296600  -1.2603334500
| 47> H   -1.0421954300  -4.4302061700  -0.0383895300
| 48> C    0.4608156600  -1.2871420700   0.0810089200
| 49> H    1.1263298000  -3.2937760300  -0.4768825400
| 50> H    0.6245545500  -3.1156942300   1.2053100500
| 51> C   -0.6672101800  -0.7083180700   0.9953192500
| 52> H   -0.4704837000  -1.1516726500   1.9888037400
| 53> C   -0.3432792500   0.7788040600   1.0911849900
| 54> H   -6.6412743000   0.2536201000   1.4459978100
| 55> C    1.2050940300   0.8136897500   1.1011652700
| 56> H   -0.7839056000   1.2403226300   1.9810278700
| 57> H   -0.7326115700   1.3183846100   0.2207658000
| 58> C    1.6989313900  -0.6219191600   0.7435475600
| 59> H    1.5963885200   1.1264696400   2.0742081000
| 60> H    1.5778869700   1.5361010400   0.3649472300
| 61> H    1.8872194800  -1.1710073700   1.6804824100
| 62> C    3.0405704700  -0.5979402300  -0.0292938600
| 63> C    0.2904047900  -0.8094737200  -1.3679975300
| 64> H    0.4565567200   0.2686503400  -1.4596135600
| 65> H   -0.7173625300  -1.0173865900  -1.7404829700
| 66> H    1.0048703500  -1.3127750000  -2.0285982000
| 67> H    2.8720107800  -0.0035504900  -0.9426865700
| 68> C    3.5295357100  -1.9841770100  -0.4461740100
| 69> C    4.0558487700   0.1585214100   0.7971517800
| 70> C    5.1494017100  -0.3529498300   1.3649766200
| 71> H    3.8303651100   1.2134480000   0.9467721300
| 72> H    5.3692719200  -1.4103856900   1.2209781700
| 73> C    6.1472825100   0.3875961700   2.2170451700
| 74> C    5.7508744800   1.8307692200   2.5257220300
| 75> C    7.5866025900   0.2973306100   1.6332775900
| 76> H    6.1922944600  -0.1514503600   3.1790672500
| 77> H    8.2306903500   0.8423059700   2.3402541000
| 78> C    7.7121968300   0.9673459100   0.2636132100
| 79> C    8.0933727300  -1.1461740500   1.5679264000
| 80> H    5.6409579800   2.4308712400   1.6164239600
| 81> H    6.5138246900   2.3063692100   3.1515403600
| 82> H    4.7973533500   1.8687370700   3.0635354000
| 83> H    7.4308477200   2.0246057000   0.2963131900
| 84> H    7.0670476300   0.4685989500  -0.4696794700
| 85> H    8.7447112900   0.9076477000  -0.0982027200
| 86> H    7.9539447500  -1.6639636800   2.5242205200
| 87> H    9.1616203000  -1.1652908100   1.3252199900
| 88> H    7.5725118300  -1.7191936600   0.7921448600
| 89> H    2.8789314700  -2.4198586500  -1.2069511200
| 90> H    3.5580271600  -2.6722169300   0.4070225200
| 91> H    4.5388174000  -1.9251472600  -0.8680940600
| 92> *
| 93> %eprnmr
| 94>  Nuclei = all C { shift }
| 95>  origin giao
| 96>  giao_2el giao_2el_same_as_scf
| 97>  giao_1el giao_1el_analytic
| 98> end
| 99> 
|100>                          ****END OF INPUT****
================================================================================

                       ****************************
                       * Single Point Calculation *
                       ****************************

---------------------------------
CARTESIAN COORDINATES (ANGSTROEM)
---------------------------------
  C     -5.300666    0.126568   -0.683643
  C     -6.704634   -0.362145   -0.951530
  C     -7.723762    0.480021   -0.173968
  H     -6.805661   -1.418998   -0.679744
  H     -6.935919   -0.264301   -2.022680
  C     -5.108327    1.572141   -0.934686
  C     -6.147119    2.464547   -0.291622
  C     -7.574936    1.957497   -0.539936
  H     -6.035730    3.493608   -0.649467
  H     -5.963587    2.480699    0.793574
  H     -7.828558    2.076361   -1.602216
  H     -8.291155    2.552134    0.038898
  O     -7.586844    0.266120    1.240593
  H     -8.738756    0.143379   -0.418793
  C     -4.351457   -0.706131   -0.193730
  C     -4.122874    2.055604   -1.699170
  H     -3.395712    1.397632   -2.167606
  H     -4.028276    3.123663   -1.880918
  C     -3.011786   -0.335928    0.201666
  H     -4.647049   -1.745752   -0.057763
  C     -2.029589   -1.178550    0.587000
  H     -2.793736    0.729616    0.195021
  C     -2.129209   -2.681950    0.630117
  C     -1.008272   -3.344800   -0.193246
  H     -3.101687   -3.044310    0.286447
  H     -2.017488   -2.999048    1.679198
  C      0.385359   -2.817626    0.173262
  H     -1.200592   -3.175830   -1.260333
  H     -1.042195   -4.430206   -0.038390
  C      0.460816   -1.287142    0.081009
  H      1.126330   -3.293776   -0.476883
  H      0.624555   -3.115694    1.205310
  C     -0.667210   -0.708318    0.995319
  H     -0.470484   -1.151673    1.988804
  C     -0.343279    0.778804    1.091185
  H     -6.641274    0.253620    1.445998
  C      1.205094    0.813690    1.101165
  H     -0.783906    1.240323    1.981028
  H     -0.732612    1.318385    0.220766
  C      1.698931   -0.621919    0.743548
  H      1.596389    1.126470    2.074208
  H      1.577887    1.536101    0.364947
  H      1.887219   -1.171007    1.680482
  C      3.040570   -0.597940   -0.029294
  C      0.290405   -0.809474   -1.367998
  H      0.456557    0.268650   -1.459614
  H     -0.717363   -1.017387   -1.740483
  H      1.004870   -1.312775   -2.028598
  H      2.872011   -0.003550   -0.942687
  C      3.529536   -1.984177   -0.446174
  C      4.055849    0.158521    0.797152
  C      5.149402   -0.352950    1.364977
  H      3.830365    1.213448    0.946772
  H      5.369272   -1.410386    1.220978
  C      6.147283    0.387596    2.217045
  C      5.750874    1.830769    2.525722
  C      7.586603    0.297331    1.633278
  H      6.192294   -0.151450    3.179067
  H      8.230690    0.842306    2.340254
  C      7.712197    0.967346    0.263613
  C      8.093373   -1.146174    1.567926
  H      5.640958    2.430871    1.616424
  H      6.513825    2.306369    3.151540
  H      4.797353    1.868737    3.063535
  H      7.430848    2.024606    0.296313
  H      7.067048    0.468599   -0.469679
  H      8.744711    0.907648   -0.098203
  H      7.953945   -1.663964    2.524221
  H      9.161620   -1.165291    1.325220
  H      7.572512   -1.719194    0.792145
  H      2.878931   -2.419859   -1.206951
  H      3.558027   -2.672217    0.407023
  H      4.538817   -1.925147   -0.868094

----------------------------
CARTESIAN COORDINATES (A.U.)
----------------------------
  NO LB      ZA    FRAG     MASS         X           Y           Z
   0 C     6.0000    0    12.011  -10.016807    0.239178   -1.291898
   1 C     6.0000    0    12.011  -12.669922   -0.684354   -1.798131
   2 C     6.0000    0    12.011  -14.595796    0.907109   -0.328751
   3 H     1.0000    0     1.008  -12.860836   -2.681517   -1.284530
   4 H     1.0000    0     1.008  -13.106987   -0.499456   -3.822311
   5 C     6.0000    0    12.011   -9.653340    2.970916   -1.766301
   6 C     6.0000    0    12.011  -11.616371    4.657318   -0.551085
   7 C     6.0000    0    12.011  -14.314554    3.699133   -1.020332
   8 H     1.0000    0     1.008  -11.405877    6.601962   -1.227315
   9 H     1.0000    0     1.008  -11.269547    4.687842    1.499638
  10 H     1.0000    0     1.008  -14.793831    3.923753   -3.027749
  11 H     1.0000    0     1.008  -15.668012    4.822835    0.073506
  12 O     8.0000    0    15.999  -14.337058    0.502894    2.344382
  13 H     1.0000    0     1.008  -16.513855    0.270946   -0.791405
  14 C     6.0000    0    12.011   -8.223061   -1.334395   -0.366097
  15 C     6.0000    0    12.011   -7.791103    3.884529   -3.210967
  16 H     1.0000    0     1.008   -6.416965    2.641142   -4.096181
  17 H     1.0000    0     1.008   -7.612339    5.902868   -3.554420
  18 C     6.0000    0    12.011   -5.691451   -0.634812    0.381094
  19 H     1.0000    0     1.008   -8.781649   -3.298993   -0.109157
  20 C     6.0000    0    12.011   -3.835368   -2.227137    1.109270
  21 H     1.0000    0     1.008   -5.279396    1.378774    0.368535
  22 C     6.0000    0    12.011   -4.023622   -5.068152    1.190748
  23 C     6.0000    0    12.011   -1.905359   -6.320755   -0.365182
  24 H     1.0000    0     1.008   -5.861339   -5.752913    0.541306
  25 H     1.0000    0     1.008   -3.812499   -5.667380    3.173223
  26 C     6.0000    0    12.011    0.728222   -5.324541    0.327418
  27 H     1.0000    0     1.008   -2.268789   -6.001448   -2.381685
  28 H     1.0000    0     1.008   -1.969464   -8.371876   -0.072546
  29 C     6.0000    0    12.011    0.870815   -2.432346    0.153085
  30 H     1.0000    0     1.008    2.128455   -6.224335   -0.901177
  31 H     1.0000    0     1.008    1.180237   -5.887809    2.277706
  32 C     6.0000    0    12.011   -1.260845   -1.338527    1.880881
  33 H     1.0000    0     1.008   -0.889085   -2.176346    3.758294
  34 C     6.0000    0    12.011   -0.648704    1.471726    2.062041
  35 H     1.0000    0     1.008  -12.550190    0.479273    2.732540
  36 C     6.0000    0    12.011    2.277298    1.537651    2.080901
  37 H     1.0000    0     1.008   -1.481367    2.343870    3.743600
  38 H     1.0000    0     1.008   -1.384435    2.491386    0.417187
  39 C     6.0000    0    12.011    3.210515   -1.175257    1.405101
  40 H     1.0000    0     1.008    3.016737    2.128719    3.919685
  41 H     1.0000    0     1.008    2.981774    2.902810    0.689650
  42 H     1.0000    0     1.008    3.566328   -2.212883    3.175652
  43 C     6.0000    0    12.011    5.745845   -1.129943   -0.055357
  44 C     6.0000    0    12.011    0.548786   -1.529684   -2.585141
  45 H     1.0000    0     1.008    0.862767    0.507676   -2.758270
  46 H     1.0000    0     1.008   -1.355619   -1.922582   -3.289036
  47 H     1.0000    0     1.008    1.898930   -2.480785   -3.833495
  48 H     1.0000    0     1.008    5.427314   -0.006709   -1.781419
  49 C     6.0000    0    12.011    6.669856   -3.749551   -0.843147
  50 C     6.0000    0    12.011    7.664443    0.299562    1.506399
  51 C     6.0000    0    12.011    9.730959   -0.666979    2.579432
  52 H     1.0000    0     1.008    7.238341    2.293084    1.789140
  53 H     1.0000    0     1.008   10.146453   -2.665243    2.307314
  54 C     6.0000    0    12.011   11.616680    0.732451    4.189608
  55 C     6.0000    0    12.011   10.867578    3.459652    4.772923
  56 C     6.0000    0    12.011   14.336601    0.561873    3.086447
  57 H     1.0000    0     1.008   11.701741   -0.286200    6.007566
  58 H     1.0000    0     1.008   15.553751    1.591728    4.422439
  59 C     6.0000    0    12.011   14.573940    1.828019    0.498157
  60 C     6.0000    0    12.011   15.294258   -2.165955    2.962951
  61 H     1.0000    0     1.008   10.659866    4.593681    3.054599
  62 H     1.0000    0     1.008   12.309345    4.358406    5.955548
  63 H     1.0000    0     1.008    9.065684    3.531401    5.789243
  64 H     1.0000    0     1.008   14.042267    3.825950    0.559951
  65 H     1.0000    0     1.008   13.354785    0.885524   -0.887566
  66 H     1.0000    0     1.008   16.525109    1.715206   -0.185576
  67 H     1.0000    0     1.008   15.030777   -3.144436    4.770085
  68 H     1.0000    0     1.008   17.312953   -2.202080    2.504303
  69 H     1.0000    0     1.008   14.309974   -3.248805    1.496937
  70 H     1.0000    0     1.008    5.440392   -4.572870   -2.280807
  71 H     1.0000    0     1.008    6.723697   -5.049758    0.769161
  72 H     1.0000    0     1.008    8.577122   -3.638001   -1.640460

--------------------------------
INTERNAL COORDINATES (ANGSTROEM)
--------------------------------
 C      0   0   0     0.000000000000     0.00000000     0.00000000
 C      1   0   0     1.510539405054     0.00000000     0.00000000
 C      2   1   0     1.533776423121   110.48882851     0.00000000
 H      2   1   3     1.095907281771   110.71414430   237.84330391
 H      2   1   3     1.100194313816   109.83306285   118.74860256
 C      1   2   3     1.479763078686   114.00283215   306.28324330
 C      6   1   2     1.512946981364   114.51081757    49.41991385
 C      3   2   1     1.529383995850   110.14964842    56.83073064
 H      7   6   1     1.095183778389   110.21359270   189.04701887
 H      7   6   1     1.100724548542   108.25329495    72.40582654
 H      8   3   2     1.098586000426   108.26682858    64.38777813
 H      8   3   2     1.096180871306   109.51863055   181.34819485
 O      3   2   1     1.437178941397   110.72954836   292.75324477
 H      3   2   1     1.097032245434   109.45910792   177.22413843
 C      1   2   3     1.354400409739   121.10613751   123.18916802
 C      6   1   2     1.337643630381   123.07890524   231.32936705
 H     16   6   1     1.086795350017   121.36191886   359.04821348
 H     16   6   1     1.087534208300   120.96735809   178.45264539
 C     15   1   2     1.445027942645   126.24236352   185.24366307
 H     15   1   2     1.089345015716   116.21396442     3.07981268
 C     19  15   1     1.350261180664   126.34092299   185.78482387
 H     19  15   1     1.087646216359   115.79643613     6.62518466
 C     21  19  15     1.507313730511   125.62736851     2.39535882
 C     23  21  19     1.540712416978   111.45280914   124.83700558
 H     23  21  19     1.093218733044   112.35847553     1.28619126
 H     23  21  19     1.101636463761   107.91665104   243.42814561
 C     24  23  21     1.534421105532   112.66441377    51.31626853
 H     24  23  21     1.097366664733   109.02057834   289.17489056
 H     24  23  21     1.096922279815   109.13303339   173.21082066
 C     27  24  23     1.535117200128   111.88951042   306.11716586
 H     27  24  23     1.094735352758   108.87229354   182.56611998
 H     27  24  23     1.100537185372   109.16830490    66.10783316
 C     21  19  15     1.497971815823   122.91964224   180.61670418
 H     33  21  19     1.105565929020   106.31373760   126.87869047
 C     33  21  19     1.525009415398   121.09337026     4.35749259
 H     13   3   2     0.967703575967   107.69387218    42.55745376
 C     35  33  21     1.548798383126   103.57535136   196.80832914
 H     35  33  21     1.094975489158   112.12481842    74.89941323
 H     35  33  21     1.095607772725   110.78330953   315.23146280
 C     30  27  24     1.553837034684   116.12726740   166.03221178
 H     37  35  33     1.094419931520   111.69122233   248.99408871
 H     37  35  33     1.096754143122   110.50708158   130.40016961
 H     40  30  27     1.102178379547   106.57697583   320.60715742
 C     40  30  27     1.548500652417   118.95942706    80.82908962
 C     30  27  24     1.535195951450   111.19055895   294.16220159
 H     45  30  27     1.094692399511   111.62808182   186.50999015
 H     45  30  27     1.094334563003   111.36906407    66.52084411
 H     45  30  27     1.095521090660   110.72050027   306.41001993
 H     44  40  30     1.102722891207   106.81658251    62.68793213
 C     44  40  30     1.527916383712   113.54026361   303.53476286
 C     44  40  30     1.511964495323   108.46558787   177.24556687
 C     51  44  40     1.334123649011   126.24541174   113.46105200
 H     51  44  40     1.089081833633   114.87836636   295.18645399
 H     52  51  44     1.089609591029   118.76443278     1.29879274
 C     52  51  44     1.506716722886   126.52171404   181.58651459
 C     55  52  51     1.528126036161   113.99155288     5.59743470
 C     55  52  51     1.555819639763   111.83847080   237.62192820
 H     55  52  51     1.103668301418   106.25375281   123.43510212
 H     57  55  52     1.100755636497   105.75984587   181.49939083
 C     57  55  52     1.529926445682   112.73362434    63.61841022
 C     57  55  52     1.531271516182   112.14005912   298.36460442
 H     56  55  52     1.095000936751   112.07811326   299.70756299
 H     56  55  52     1.095416338928   110.16727618   179.62801221
 H     56  55  52     1.095393684454   110.96026804    59.94612199
 H     60  57  55     1.094543226164   112.03510623    58.23781755
 H     60  57  55     1.096669583289   110.55774041   297.79215753
 H     60  57  55     1.095701032941   110.43353747   178.34330920
 H     61  57  55     1.096377994347   111.46249511   310.11388797
 H     61  57  55     1.095638956399   110.40020795   190.08611283
 H     61  57  55     1.096122506109   111.45377559    70.93763705
 H     50  44  40     1.091735398180   111.19149252    68.08086251
 H     50  44  40     1.096428298176   111.42853636   307.66679694
 H     50  44  40     1.095513838227   110.55002543   187.51538129

---------------------------
INTERNAL COORDINATES (A.U.)
---------------------------
 C      0   0   0     0.000000000000     0.00000000     0.00000000
 C      1   0   0     2.854505790048     0.00000000     0.00000000
 C      2   1   0     2.898417390364   110.48882851     0.00000000
 H      2   1   3     2.070964630717   110.71414430   237.84330391
 H      2   1   3     2.079065947209   109.83306285   118.74860256
 C      1   2   3     2.796346961805   114.00283215   306.28324330
 C      6   1   2     2.859055449921   114.51081757    49.41991385
 C      3   2   1     2.890116905759   110.14964842    56.83073064
 H      7   6   1     2.069597407468   110.21359270   189.04701887
 H      7   6   1     2.080067945629   108.25329495    72.40582654
 H      8   3   2     2.076026675366   108.26682858    64.38777813
 H      8   3   2     2.071481640011   109.51863055   181.34819485
 O      3   2   1     2.715874604680   110.72954836   292.75324477
 H      3   2   1     2.073090503951   109.45910792   177.22413843
 C      1   2   3     2.559445850077   121.10613751   123.18916802
 C      6   1   2     2.527780126204   123.07890524   231.32936705
 H     16   6   1     2.053745575151   121.36191886   359.04821348
 H     16   6   1     2.055141814957   120.96735809   178.45264539
 C     15   1   2     2.730707067462   126.24236352   185.24366307
 H     15   1   2     2.058563745054   116.21396442     3.07981268
 C     19  15   1     2.551623840720   126.34092299   185.78482387
 H     19  15   1     2.055353479514   115.79643613     6.62518466
 C     21  19  15     2.848410148565   125.62736851     2.39535882
 C     23  21  19     2.911524519220   111.45280914   124.83700558
 H     23  21  19     2.065884009926   112.35847553     1.28619126
 H     23  21  19     2.081791215649   107.91665104   243.42814561
 C     24  23  21     2.899635663565   112.66441377    51.31626853
 H     24  23  21     2.073722464839   109.02057834   289.17489056
 H     24  23  21     2.072882699046   109.13303339   173.21082066
 C     27  24  23     2.900951091714   111.88951042   306.11716586
 H     27  24  23     2.068750005834   108.87229354   182.56611998
 H     27  24  23     2.079713880550   109.16830490    66.10783316
 C     21  19  15     2.830756488239   122.91964224   180.61670418
 H     33  21  19     2.089216828843   106.31373760   126.87869047
 C     33  21  19     2.881850146753   121.09337026     4.35749259
 H     13   3   2     1.828694737393   107.69387218    42.55745376
 C     35  33  21     2.926804780768   103.57535136   196.80832914
 H     35  33  21     2.069203797864   112.12481842    74.89941323
 H     35  33  21     2.070398640645   110.78330953   315.23146280
 C     30  27  24     2.936326452297   116.12726740   166.03221178
 H     37  35  33     2.068153946077   111.69122233   248.99408871
 H     37  35  33     2.072564966744   110.50708158   130.40016961
 H     40  30  27     2.082815288073   106.57697583   320.60715742
 C     40  30  27     2.926242151266   118.95942706    80.82908962
 C     30  27  24     2.901099910145   111.19055895   294.16220159
 H     45  30  27     2.068668835960   111.62808182   186.50999015
 H     45  30  27     2.067992622961   111.36906407    66.52084411
 H     45  30  27     2.070234835282   110.72050027   306.41001993
 H     44  40  30     2.083844265987   106.81658251    62.68793213
 C     44  40  30     2.887343520748   113.54026361   303.53476286
 C     44  40  30     2.857198820373   108.46558787   177.24556687
 C     51  44  40     2.521128325419   126.24541174   113.46105200
 H     51  44  40     2.058066402996   114.87836636   295.18645399
 H     52  51  44     2.059063719938   118.76443278     1.29879274
 C     52  51  44     2.847281967653   126.52171404   181.58651459
 C     55  52  51     2.887739706460   113.99155288     5.59743470
 C     55  52  51     2.940073032928   111.83847080   237.62192820
 H     55  52  51     2.085630832370   106.25375281   123.43510212
 H     57  55  52     2.080126693350   105.75984587   181.49939083
 C     57  55  52     2.891141987382   112.73362434    63.61841022
 C     57  55  52     2.893683802259   112.14005912   298.36460442
 H     56  55  52     2.069251886847   112.07811326   299.70756299
 H     56  55  52     2.070036883197   110.16727618   179.62801221
 H     56  55  52     2.069994072444   110.96026804    59.94612199
 H     60  57  55     2.068386939188   112.03510623    58.23781755
 H     60  57  55     2.072405171818   110.55774041   297.79215753
 H     60  57  55     2.070574876913   110.43353747   178.34330920
 H     61  57  55     2.071854148574   111.46249511   310.11388797
 H     61  57  55     2.070457569249   110.40020795   190.08611283
 H     61  57  55     2.071371345773   111.45377559    70.93763705
 H     50  44  40     2.063080913267   111.19149252    68.08086251
 H     50  44  40     2.071949209034   111.42853636   307.66679694
 H     50  44  40     2.070221130169   110.55002543   187.51538129

---------------------
BASIS SET INFORMATION
---------------------
There are 3 groups of distinct atoms

 Group   1 Type C   : 7s4p1d contracted to 3s2p1d pattern {511/31/1}
 Group   2 Type H   : 4s1p contracted to 2s1p pattern {31/1}
 Group   3 Type O   : 7s4p1d contracted to 3s2p1d pattern {511/31/1}

Atom   0C    basis set group =>   1
Atom   1C    basis set group =>   1
Atom   2C    basis set group =>   1
Atom   3H    basis set group =>   2
Atom   4H    basis set group =>   2
Atom   5C    basis set group =>   1
Atom   6C    basis set group =>   1
Atom   7C    basis set group =>   1
Atom   8H    basis set group =>   2
Atom   9H    basis set group =>   2
Atom  10H    basis set group =>   2
Atom  11H    basis set group =>   2
Atom  12O    basis set group =>   3
Atom  13H    basis set group =>   2
Atom  14C    basis set group =>   1
Atom  15C    basis set group =>   1
Atom  16H    basis set group =>   2
Atom  17H    basis set group =>   2
Atom  18C    basis set group =>   1
Atom  19H    basis set group =>   2
Atom  20C    basis set group =>   1
Atom  21H    basis set group =>   2
Atom  22C    basis set group =>   1
Atom  23C    basis set group =>   1
Atom  24H    basis set group =>   2
Atom  25H    basis set group =>   2
Atom  26C    basis set group =>   1
Atom  27H    basis set group =>   2
Atom  28H    basis set group =>   2
Atom  29C    basis set group =>   1
Atom  30H    basis set group =>   2
Atom  31H    basis set group =>   2
Atom  32C    basis set group =>   1
Atom  33H    basis set group =>   2
Atom  34C    basis set group =>   1
Atom  35H    basis set group =>   2
Atom  36C    basis set group =>   1
Atom  37H    basis set group =>   2
Atom  38H    basis set group =>   2
Atom  39C    basis set group =>   1
Atom  40H    basis set group =>   2
Atom  41H    basis set group =>   2
Atom  42H    basis set group =>   2
Atom  43C    basis set group =>   1
Atom  44C    basis set group =>   1
Atom  45H    basis set group =>   2
Atom  46H    basis set group =>   2
Atom  47H    basis set group =>   2
Atom  48H    basis set group =>   2
Atom  49C    basis set group =>   1
Atom  50C    basis set group =>   1
Atom  51C    basis set group =>   1
Atom  52H    basis set group =>   2
Atom  53H    basis set group =>   2
Atom  54C    basis set group =>   1
Atom  55C    basis set group =>   1
Atom  56C    basis set group =>   1
Atom  57H    basis set group =>   2
Atom  58H    basis set group =>   2
Atom  59C    basis set group =>   1
Atom  60C    basis set group =>   1
Atom  61H    basis set group =>   2
Atom  62H    basis set group =>   2
Atom  63H    basis set group =>   2
Atom  64H    basis set group =>   2
Atom  65H    basis set group =>   2
Atom  66H    basis set group =>   2
Atom  67H    basis set group =>   2
Atom  68H    basis set group =>   2
Atom  69H    basis set group =>   2
Atom  70H    basis set group =>   2
Atom  71H    basis set group =>   2
Atom  72H    basis set group =>   2

-------------------------
BASIS SET IN INPUT FORMAT
-------------------------

 # Basis set for element : H 
 NewGTO H 
 S 3 
   1      13.0107010000      0.0334854848
   2       1.9622572000      0.2347218709
   3       0.4445379600      0.8137702853
 S 1 
   1       0.1219496200      1.0000000000
 P 1 
   1       0.8000000000      1.0000000000
  end;

 # Basis set for element : C 
 NewGTO C 
 S 5 
   1    1238.4016938000      0.0055173650
   2     186.2900499200      0.0410888285
   3      42.2511763460      0.1822538213
   4      11.6765579320      0.4682845944
   5       3.5930506482      0.4457581734
 S 1 
   1       0.4024514736      1.0000000000
 S 1 
   1       0.1309018267      1.0000000000
 P 3 
   1       9.4680970621      0.0568883320
   2       2.0103545142      0.3129405934
   3       0.5477100471      0.7606501651
 P 1 
   1       0.1526861379      1.0000000000
 D 1 
   1       0.8000000000      1.0000000000
  end;

 # Basis set for element : O 
 NewGTO O 
 S 5 
   1    2266.1767785000     -0.0053893504
   2     340.8701019100     -0.0402347214
   3      77.3631351670     -0.1800818421
   4      21.4796449400     -0.4682885766
   5       6.6589433124     -0.4469261716
 S 1 
   1       0.8097597567      1.0000000000
 S 1 
   1       0.2553077223      1.0000000000
 P 3 
   1      17.7215043170      0.0626302488
   2       3.8635505440      0.3333113849
   3       1.0480920883      0.7414863830
 P 1 
   1       0.2764154441      1.0000000000
 D 1 
   1       1.2000000000      1.0000000000
  end;

---------------------------------
AUXILIARY/J BASIS SET INFORMATION
---------------------------------
There are 3 groups of distinct atoms

 Group   1 Type C   : 12s5p4d2f1g contracted to 6s4p3d1f1g pattern {711111/2111/211/2/1}
 Group   2 Type H   : 5s2p1d contracted to 3s1p1d pattern {311/2/1}
 Group   3 Type O   : 12s5p4d2f1g contracted to 6s4p3d1f1g pattern {711111/2111/211/2/1}

Atom   0C    basis set group =>   1
Atom   1C    basis set group =>   1
Atom   2C    basis set group =>   1
Atom   3H    basis set group =>   2
Atom   4H    basis set group =>   2
Atom   5C    basis set group =>   1
Atom   6C    basis set group =>   1
Atom   7C    basis set group =>   1
Atom   8H    basis set group =>   2
Atom   9H    basis set group =>   2
Atom  10H    basis set group =>   2
Atom  11H    basis set group =>   2
Atom  12O    basis set group =>   3
Atom  13H    basis set group =>   2
Atom  14C    basis set group =>   1
Atom  15C    basis set group =>   1
Atom  16H    basis set group =>   2
Atom  17H    basis set group =>   2
Atom  18C    basis set group =>   1
Atom  19H    basis set group =>   2
Atom  20C    basis set group =>   1
Atom  21H    basis set group =>   2
Atom  22C    basis set group =>   1
Atom  23C    basis set group =>   1
Atom  24H    basis set group =>   2
Atom  25H    basis set group =>   2
Atom  26C    basis set group =>   1
Atom  27H    basis set group =>   2
Atom  28H    basis set group =>   2
Atom  29C    basis set group =>   1
Atom  30H    basis set group =>   2
Atom  31H    basis set group =>   2
Atom  32C    basis set group =>   1
Atom  33H    basis set group =>   2
Atom  34C    basis set group =>   1
Atom  35H    basis set group =>   2
Atom  36C    basis set group =>   1
Atom  37H    basis set group =>   2
Atom  38H    basis set group =>   2
Atom  39C    basis set group =>   1
Atom  40H    basis set group =>   2
Atom  41H    basis set group =>   2
Atom  42H    basis set group =>   2
Atom  43C    basis set group =>   1
Atom  44C    basis set group =>   1
Atom  45H    basis set group =>   2
Atom  46H    basis set group =>   2
Atom  47H    basis set group =>   2
Atom  48H    basis set group =>   2
Atom  49C    basis set group =>   1
Atom  50C    basis set group =>   1
Atom  51C    basis set group =>   1
Atom  52H    basis set group =>   2
Atom  53H    basis set group =>   2
Atom  54C    basis set group =>   1
Atom  55C    basis set group =>   1
Atom  56C    basis set group =>   1
Atom  57H    basis set group =>   2
Atom  58H    basis set group =>   2
Atom  59C    basis set group =>   1
Atom  60C    basis set group =>   1
Atom  61H    basis set group =>   2
Atom  62H    basis set group =>   2
Atom  63H    basis set group =>   2
Atom  64H    basis set group =>   2
Atom  65H    basis set group =>   2
Atom  66H    basis set group =>   2
Atom  67H    basis set group =>   2
Atom  68H    basis set group =>   2
Atom  69H    basis set group =>   2
Atom  70H    basis set group =>   2
Atom  71H    basis set group =>   2
Atom  72H    basis set group =>   2

-------------------------------------
AUXILIARY/J BASIS SET IN INPUT FORMAT
-------------------------------------

 # Auxiliary/J basis set for element : H 
 NewAuxJGTO H 
 S 3 
   1      15.6752927000      0.1007184237
   2       3.6063578000      0.3404257499
   3       1.2080016000      0.6491996172
 S 1 
   1       0.4726794000      1.0000000000
 S 1 
   1       0.2018100000      1.0000000000
 P 2 
   1       2.0281365000      0.5596620919
   2       0.5358730000      0.5596620919
 D 1 
   1       2.2165124000      1.0000000000
  end;

 # Auxiliary/J basis set for element : C 
 NewAuxJGTO C 
 S 7 
   1    1861.0916331000      0.0134602335
   2     642.9939764000      0.0299160374
   3     235.1105725000      0.1008649584
   4      90.7028894000      0.2370970548
   5      36.7794552000      0.3924037254
   6      15.6046273000      0.3195862154
   7       6.8907294000      0.0530104441
 S 1 
   1       3.1478850000     -1.0000000000
 S 1 
   1       1.4777287000      1.0000000000
 S 1 
   1       0.7076466000      1.0000000000
 S 1 
   1       0.3430122000      1.0000000000
 S 1 
   1       0.1669453000      1.0000000000
 P 2 
   1      13.5472892000     -0.6769313712
   2       5.4669419000     -0.3779500978
 P 1 
   1       2.1751721000      1.0000000000
 P 1 
   1       0.8582194000      1.0000000000
 P 1 
   1       0.3376720000      1.0000000000
 D 2 
   1       5.9287253000     -0.3533329857
   2       1.9809209000     -0.7456525731
 D 1 
   1       0.8055417000     -1.0000000000
 D 1 
   1       0.3531244000     -1.0000000000
 F 2 
   1       1.6755626000      0.6311076882
   2       0.5997536000      0.4968166032
 G 1 
   1       1.0024600000     -1.0000000000
  end;

 # Auxiliary/J basis set for element : O 
 NewAuxJGTO O 
 S 7 
   1    2876.8216605000      0.0168151159
   2    1004.7443032000      0.0340137548
   3     369.7579954000      0.1194951309
   4     142.9442404000      0.2664627624
   5      57.8366425000      0.4202764046
   6      24.3864983000      0.2765077335
   7      10.6622662000      0.0057008815
 S 1 
   1       4.8070437000     -1.0000000000
 S 1 
   1       2.2210770000      1.0000000000
 S 1 
   1       1.0447795000      1.0000000000
 S 1 
   1       0.4968425000      1.0000000000
 S 1 
   1       0.2371384000      1.0000000000
 P 2 
   1      64.2613382000     -0.2731534179
   2      16.3006076000     -0.8168011598
 P 1 
   1       4.3550542000      1.0000000000
 P 1 
   1       1.2019554000      1.0000000000
 P 1 
   1       0.3354196000      1.0000000000
 D 2 
   1       9.2146611000     -0.4661230638
   2       2.8435251000     -0.6600908911
 D 1 
   1       0.9955759000     -1.0000000000
 D 1 
   1       0.3649441000     -1.0000000000
 F 2 
   1       2.6420115000      0.5931563945
   2       0.7345613000      0.5931563945
 G 1 
   1       1.3931000000     -1.0000000000
  end;


Checking for AutoStart:
The File: inpS.gbw exists
Trying to determine its content:
     ... Fine, the file contains calculation information
     ... Fine, the calculation information was read
     ... Fine, the file contains a basis set
     ... Fine, the basis set was read
     ... Fine, the file contains a geometry
     ... Fine, the geometry was read
     ... Fine, the file contains a set of orbitals
     ... Fine, the orbitals can be read
     => possible old guess file was deleted
     => GBW file was renamed to GES file
     => GES file is set as startup file
     => Guess is set to MORead
     ... now leaving AutoStart



           ************************************************************
           *        Program running with 4 parallel MPI-processes     *
           *              working on a common directory               *
           ************************************************************
------------------------------------------------------------------------------
                             ORCA STARTUP CALCULATIONS
                           -- RI-GTO INTEGRALS CHOSEN --
------------------------------------------------------------------------------
------------------------------------------------------------------------------
                   ___                                                        
                  /   \      - P O W E R E D   B Y -                         
                 /     \                                                     
                 |  |  |   _    _      __       _____    __    __             
                 |  |  |  | |  | |    /  \     |  _  \  |  |  /  |          
                  \  \/   | |  | |   /    \    | | | |  |  | /  /          
                 / \  \   | |__| |  /  /\  \   | |_| |  |  |/  /          
                |  |  |   |  __  | /  /__\  \  |    /   |      \           
                |  |  |   | |  | | |   __   |  |    \   |  |\   \          
                \     /   | |  | | |  |  |  |  | |\  \  |  | \   \       
                 \___/    |_|  |_| |__|  |__|  |_| \__\ |__|  \__/        
                                                                              
                      - O R C A' S   B I G   F R I E N D -                    
                                      &                                       
                       - I N T E G R A L  F E E D E R -                       
                                                                              
 v1 FN, 2020, v2 2021, v3 2022-2024                                           
------------------------------------------------------------------------------


----------------------
SHARK INTEGRAL PACKAGE
----------------------

Number of atoms                             ...     73
Number of basis functions                   ...    626
Number of shells                            ...    306
Maximum angular momentum                    ...      2
Integral batch strategy                     ... SHARK/LIBINT Hybrid
RI-J (if used) integral strategy            ... SPLIT-RIJ (Revised 2003 algorithm where possible)
Printlevel                                  ...      1
Contraction scheme used                     ... SEGMENTED contraction
Prescreening option                         ... SCHWARTZ
   Thresh                                   ... 3.000e-11
   Tcut                                     ... 1.000e-12
   Tpresel                                  ... 1.000e-12 
Coulomb Range Separation                    ... NOT USED
Exchange Range Separation                   ... Long Range
   Mu parameter                             ... 3.000e-01
   Scaling (regular/separated)              ... 1.670e-01 8.330e-01
Multipole approximations                    ... NOT USED
Finite Nucleus Model                        ... NOT USED
CABS basis                                  ... NOT available
Auxiliary Coulomb fitting basis             ... AVAILABLE
   # of basis functions in Aux-J            ...   1905
   # of shells in Aux-J                     ...    655
   Maximum angular momentum in Aux-J        ...      4
Auxiliary J/K fitting basis                 ... NOT available
Auxiliary Correlation fitting basis         ... NOT available
Auxiliary 'external' fitting basis          ... NOT available

Checking pre-screening integrals            ... done (  0.0 sec) Dimension = 306
Check shell pair data                       ... done (  0.0 sec)
Shell pair information
Shell pair cut-off parameter TPreSel        ...   1.0e-12
Total number of shell pairs                 ...     46971
Shell pairs after pre-screening             ...     27427
Total number of primitive shell pairs       ...    162105
Primitive shell pairs kept                  ...     60529
          la=0 lb=0:   9597 shell pairs
          la=1 lb=0:  10514 shell pairs
          la=1 lb=1:   2907 shell pairs
          la=2 lb=0:   2750 shell pairs
          la=2 lb=1:   1466 shell pairs
          la=2 lb=2:    193 shell pairs

Calculating one electron integrals          ... done (  0.1 sec)
Calculating RI/J V-Matrix + Cholesky decomp.... done (  0.2 sec)
Calculating Nuclear repulsion               ... done (  0.0 sec) ENN=   2776.524158385734 Eh

Diagonalization of the overlap matrix:
Smallest eigenvalue                        ... 4.414e-04
Time for diagonalization                   ...    0.052 sec
Threshold for overlap eigenvalues          ... 1.000e-07
Number of eigenvalues below threshold      ... 0
Time for construction of square roots      ...    0.031 sec
Total time needed                          ...    0.086 sec

-------------------
DFT GRID GENERATION
-------------------

General Integration Accuracy     IntAcc      ... 4.388
Radial Grid Type                 RadialGrid  ... OptM3 with GC (2021)
Angular Grid (max. ang.)         AngularGrid ... 4 (Lebedev-302)
Angular grid pruning method      GridPruning ... 4 (adaptive)
Weight generation scheme         WeightScheme... mBecke (2022)
Basis function cutoff            BFCut       ... 1.0000e-11
Integration weight cutoff        WCut        ... 1.0000e-14
Partially contracted basis set               ... off
Rotationally invariant grid construction     ... off
Angular grids for H and He will be reduced by one unit

Total number of grid points                  ...   309816
Total number of batches                      ...     4879
Average number of points per batch           ...       63
Average number of grid points per atom       ...     4244

--------------------
COSX GRID GENERATION
--------------------

GRIDX 1
-------
General Integration Accuracy     IntAcc      ... 3.816
Radial Grid Type                 RadialGrid  ... OptM3 with GC (2021)
Angular Grid (max. ang.)         AngularGrid ... 1 (Lebedev-50)
Angular grid pruning method      GridPruning ... 4 (adaptive)
Weight generation scheme         WeightScheme... mBecke (2022)
Basis function cutoff            BFCut       ... 1.0000e-11
Integration weight cutoff        WCut        ... 1.0000e-14
Partially contracted basis set               ... on
Rotationally invariant grid construction     ... off
Angular grids for H and He will be reduced by one unit

Total number of grid points                  ...    39395
Total number of batches                      ...      352
Average number of points per batch           ...      111
Average number of grid points per atom       ...      540
UseSFitting                                  ... on

GRIDX 2
-------
General Integration Accuracy     IntAcc      ... 4.020
Radial Grid Type                 RadialGrid  ... OptM3 with GC (2021)
Angular Grid (max. ang.)         AngularGrid ... 2 (Lebedev-110)
Angular grid pruning method      GridPruning ... 4 (adaptive)
Weight generation scheme         WeightScheme... mBecke (2022)
Basis function cutoff            BFCut       ... 1.0000e-11
Integration weight cutoff        WCut        ... 1.0000e-14
Partially contracted basis set               ... on
Rotationally invariant grid construction     ... off
Angular grids for H and He will be reduced by one unit

Total number of grid points                  ...    81399
Total number of batches                      ...      674
Average number of points per batch           ...      120
Average number of grid points per atom       ...     1115
UseSFitting                                  ... on

GRIDX 3
-------
General Integration Accuracy     IntAcc      ... 4.338
Radial Grid Type                 RadialGrid  ... OptM3 with GC (2021)
Angular Grid (max. ang.)         AngularGrid ... 3 (Lebedev-194)
Angular grid pruning method      GridPruning ... 4 (adaptive)
Weight generation scheme         WeightScheme... mBecke (2022)
Basis function cutoff            BFCut       ... 1.0000e-11
Integration weight cutoff        WCut        ... 1.0000e-14
Partially contracted basis set               ... on
Rotationally invariant grid construction     ... off
Angular grids for H and He will be reduced by one unit

Total number of grid points                  ...   176216
Total number of batches                      ...     1418
Average number of points per batch           ...      124
Average number of grid points per atom       ...     2414
UseSFitting                                  ... on
Initializing property integral containers    ... done (  0.0 sec)

SHARK setup successfully completed in   4.3 seconds

Maximum memory used throughout the entire STARTUP-calculation: 95.8 MB


           ************************************************************
           *        Program running with 4 parallel MPI-processes     *
           *              working on a common directory               *
           ************************************************************
-------------------------------------------------------------------------------
                                 ORCA GUESS
                   Start orbitals & Density for SCF / CASSCF
-------------------------------------------------------------------------------

------------
SCF SETTINGS
------------
Hamiltonian:
 Density Functional     Method          .... DFT(GTOs)
 Exchange Functional    Exchange        .... WB97X-V
 Correlation Functional Correlation     .... WB97X-V
 Gradients option       PostSCFGGA      .... off
 Hybrid DFT is turned on
   Fraction HF Exchange ScalHFX         ....  0.167000
   Scaling of DF-GGA-X  ScalDFX         ....  0.000000
   Scaling of DF-GGA-C  ScalDFC         ....  1.000000
   Scaling of DF-LDA-C  ScalLDAC        ....  1.000000
   Perturbative correction              ....  0.000000
 Long-range corrected/Screened/Range-Separated Hybrid DFT is turned on
   Amount of maximum screened exact exchange              ....  0.833000
   Range separation parameter mu (erf(mu*r12)/r12)        ....  0.300000
 RI-approximation to the Coulomb term is turned on
   Number of AuxJ basis functions       .... 1905
   RIJ-COSX (HFX calculated with COS-X)).... on


General Settings:
 Integral files         IntName         .... inpS
 Hartree-Fock type      HFTyp           .... RHF
 Total Charge           Charge          ....    0
 Multiplicity           Mult            ....    1
 Number of Electrons    NEL             ....  220
 Basis Dimension        Dim             ....  626
 Nuclear Repulsion      ENuc            ....   2776.5241583857 Eh

Convergence Acceleration:
 AO-DIIS                CNVDIIS         .... on
   Start iteration      DIISMaxIt       ....    12
   Startup error        DIISStart       ....  0.200000
   # of expansion vecs  DIISMaxEq       ....     5
   Bias factor          DIISBfac        ....   1.050
   Max. coefficient     DIISMaxC        ....  10.000
 MO-DIIS                CNVKDIIS        .... off
 Trust-Rad. Augm. Hess. CNVTRAH         .... auto
   Auto Start mean grad. ratio tolernc. ....  1.125000
   Auto Start start iteration           ....     1
   Auto Start num. interpolation iter.  ....    10
   Max. Number of Micro iterations      ....    24
   Max. Number of Macro iterations      .... Maxiter - #DIIS iter
   Number of Davidson start vectors     ....     2
   Converg. threshold    (grad. norm)   ....   1.000e-04
   Grad. Scal. Fac. for Micro threshold ....   0.100
   Minimum threshold for Micro iter.    ....   1.000e-02
   NR start threshold (gradient norm)   ....   1.000e-04
   Initial trust radius                 ....   0.400
   Minimum AH scaling param. (alpha)    ....   1.000
   Maximum AH scaling param. (alpha)    .... 1000.000
   Quad. conv. algorithm                .... NR
   White noise on init. David. guess    .... on
   Maximum white noise                  ....   0.010
   Pseudo random numbers                .... off
   Inactive MOs                         .... canonical
   Orbital update algorithm             .... Taylor
   Preconditioner                       .... Diag
   Full preconditioner red. dimension   ....   250
 SOSCF                  CNVSOSCF        .... off
 Level Shifting         CNVShift        .... on
   Level shift para.    LevelShift      ....    0.2500
   Turn off err/grad.   ShiftErr        ....    0.0010
 Zerner damping         CNVZerner       .... off
 Static damping         CNVDamp         .... on
   Fraction old density DampFac         ....    0.7000
   Max. Damping (<1)    DampMax         ....    0.9800
   Min. Damping (>=0)   DampMin         ....    0.0000
   Turn off err/grad.   DampErr         ....    0.1000

SCF Procedure:
 Maximum # iterations   MaxIter         ....   125
 SCF integral mode      SCFMode         .... Direct
   Integral package                     .... SHARK and LIBINT hybrid scheme
 Reset frequency        DirectResetFreq ....    20
 Integral Threshold     Thresh          ....  3.000e-11 Eh
 Primitive CutOff       TCut            ....  1.000e-12 Eh

Convergence Tolerance:
 Convergence Check Mode ConvCheckMode   .... Total+1el-Energy
 Convergence forced     ConvForced      .... 0
 Energy Change          TolE            ....  1.000e-07 Eh
 1-El. energy change                    ....  1.000e-04 Eh
 DIIS Error             TolErr          ....  1.000e-07

---------------------
INITIAL GUESS: MOREAD
---------------------
Guess MOs are being read from file: inpS.ges
Input Geometry matches current geometry (good)
Input basis set matches current basis set (good)
Occupation numbers will be reassigned to an Aufbau configuration
MOs were renormalized
MOs were reorthogonalized (Cholesky)
                      ------------------
                      INITIAL GUESS DONE (   0.2 sec)
                      ------------------
             **** ENERGY FILE WAS UPDATED (inpS.en.tmp) ****
Finished Guess after   0.3 sec
Maximum memory used throughout the entire GUESS-calculation: 52.3 MB


           ************************************************************
           *        Program running with 4 parallel MPI-processes     *
           *              working on a common directory               *
           ************************************************************

-------------------------------------------------------------------------------------------
                                      ORCA LEAN-SCF
                              memory conserving SCF solver
-------------------------------------------------------------------------------------------

--------------------
CPCM SOLVATION MODEL
--------------------
CPCM parameters:
  Epsilon                                         ...       4.8030
  Refrac                                          ...       1.4459
  Rsolv                                           ...       1.3000
  Surface type                                    ... GAUSSIAN VDW
  Discretization scheme                           ... Constant charge density
    Threshold for H atoms                         ...       5.0000 (charges/Ang^2)
    Threshold for non-H atoms                     ...       5.0000 (charges/Ang^2)
  Epsilon function type                           ...         CPCM
Solvent:                                          ... CHLOROFORM
Radii:
  Scheme                                          ... Element-dependent radii
  Radius for C  used is    3.8550 Bohr (=   2.0400 Ang.)
  Radius for H  used is    2.4944 Bohr (=   1.3200 Ang.)
  Radius for O  used is    3.4469 Bohr (=   1.8240 Ang.)
Calculating surface                               ...        done! (  0.0s)
Cavity surface points                             ...         5335
Cavity Volume                                     ...    3599.3614
Cavity Surface-area                               ...    1782.9121
Calculating surface distance matrix               ...        done! (  0.2s)
Performing Cholesky decomposition & store         ...        done! (  0.9s)
Overall time for CPCM initialization              ...                 1.1s

----------------------------------------D-I-I-S--------------------------------------------
Iteration    Energy (Eh)           Delta-E    RMSDP     MaxDP     DIISErr   Damp  Time(sec)
-------------------------------------------------------------------------------------------
               ***  Starting incremental Fock matrix formation  ***
    1    -1168.3615319527175416     0.00e+00  3.17e-08  2.08e-06  4.34e-06  0.700  23.4

  HOMO= 109 E= -7.960 eV LUMO=  8.063 eV gap=  16.022 eV
    2    -1168.3615319438890765     8.83e-09  2.73e-08  1.33e-06  2.51e-06  0.700   4.7
                 **** Energy Check signals convergence ****

  HOMO= 109 E= -7.959 eV LUMO=  8.063 eV gap=  16.022 eV

               *****************************************************
               *                     SUCCESS                       *
               *           SCF CONVERGED AFTER   2 CYCLES          *
               *****************************************************

Recomputing exchange energy using gridx3       ... done (   41.085 sec)
Old exchange energy                            :    -56.782977788 Eh
New exchange energy                            :    -56.782963498 Eh
Exchange energy change after final integration :      0.000014291 Eh
Total energy after final integration           :  -1168.361517653 Eh
             **** ENERGY FILE WAS UPDATED (inpS.en.tmp) ****

----------------
TOTAL SCF ENERGY
----------------

Total Energy       :      -1168.36151765333034 Eh          -31792.73321 eV

Components:
Nuclear Repulsion  :       2776.52415838573370 Eh           75553.06339 eV
Electronic Energy  :      -3944.87642223560852 Eh         -107345.54479 eV
One Electron Energy:      -7098.07301661771180 Eh         -193148.38626 eV
Two Electron Energy:       3153.19659438210329 Eh           85802.84147 eV
CPCM Dielectric    :         -0.00926809401429 Eh              -0.25220 eV

Virial components:
Potential Energy   :      -2321.65885308469387 Eh          -63175.54918 eV
Kinetic Energy     :       1153.29733543136376 Eh           31382.81597 eV
Virial Ratio       :          2.01306183735899

DFT components:
N(Alpha)           :      109.999995104095 electrons
N(Beta)            :      109.999995104095 electrons
N(Total)           :      219.999990208190 electrons
E(X)               :     -111.769959101028 Eh       
E(C)               :       -8.952750136123 Eh       
E(XC)              :     -120.722709237151 Eh       

CPCM Solvation Model Properties:
Surface-charge          :         -0.04189997025982
Corrected charge        :          0.00000000000000
Outlying charge corr.   :          0.00006144910594 Eh               0.00167 eV
Free-energy (cav+disp)  :  This term is not implemented in the current solvation scheme

---------------
SCF CONVERGENCE
---------------

  Last Energy change         ...   -8.8285e-09  Tolerance :   1.0000e-07
  Last MAX-Density change    ...    1.3312e-06  Tolerance :   1.0000e-05
  Last RMS-Density change    ...    2.7304e-08  Tolerance :   1.0000e-06
  Last DIIS Error            ...    2.5086e-06  Tolerance :   1.0000e-07


----------------
ORBITAL ENERGIES
----------------

  NO   OCC          E(Eh)            E(eV) 
   0   2.0000     -19.212380      -522.7954 
   1   2.0000     -10.330284      -281.1013 
   2   2.0000     -10.294353      -280.1236 
   3   2.0000     -10.292053      -280.0610 
   4   2.0000     -10.287736      -279.9435 
   5   2.0000     -10.286895      -279.9207 
   6   2.0000     -10.285414      -279.8803 
   7   2.0000     -10.284208      -279.8475 
   8   2.0000     -10.283261      -279.8218 
   9   2.0000     -10.282908      -279.8122 
  10   2.0000     -10.282299      -279.7956 
  11   2.0000     -10.281554      -279.7753 
  12   2.0000     -10.279236      -279.7122 
  13   2.0000     -10.278990      -279.7055 
  14   2.0000     -10.278087      -279.6810 
  15   2.0000     -10.277992      -279.6784 
  16   2.0000     -10.277384      -279.6618 
  17   2.0000     -10.277071      -279.6533 
  18   2.0000     -10.273306      -279.5509 
  19   2.0000     -10.272573      -279.5309 
  20   2.0000     -10.272119      -279.5186 
  21   2.0000     -10.272100      -279.5181 
  22   2.0000     -10.271730      -279.5080 
  23   2.0000     -10.271598      -279.5044 
  24   2.0000     -10.268760      -279.4272 
  25   2.0000     -10.268603      -279.4229 
  26   2.0000     -10.268349      -279.4160 
  27   2.0000     -10.267613      -279.3960 
  28   2.0000     -10.266679      -279.3705 
  29   2.0000      -1.130912       -30.7737 
  30   2.0000      -0.999036       -27.1852 
  31   2.0000      -0.977228       -26.5917 
  32   2.0000      -0.957550       -26.0563 
  33   2.0000      -0.943074       -25.6624 
  34   2.0000      -0.917701       -24.9719 
  35   2.0000      -0.911341       -24.7988 
  36   2.0000      -0.890099       -24.2208 
  37   2.0000      -0.888196       -24.1690 
  38   2.0000      -0.872254       -23.7352 
  39   2.0000      -0.853917       -23.2363 
  40   2.0000      -0.835234       -22.7279 
  41   2.0000      -0.825333       -22.4584 
  42   2.0000      -0.810278       -22.0488 
  43   2.0000      -0.801089       -21.7987 
  44   2.0000      -0.797268       -21.6948 
  45   2.0000      -0.792093       -21.5539 
  46   2.0000      -0.762708       -20.7543 
  47   2.0000      -0.758747       -20.6465 
  48   2.0000      -0.729260       -19.8442 
  49   2.0000      -0.713295       -19.4097 
  50   2.0000      -0.705861       -19.2074 
  51   2.0000      -0.699330       -19.0297 
  52   2.0000      -0.689952       -18.7745 
  53   2.0000      -0.672979       -18.3127 
  54   2.0000      -0.647263       -17.6129 
  55   2.0000      -0.631643       -17.1879 
  56   2.0000      -0.622863       -16.9490 
  57   2.0000      -0.619862       -16.8673 
  58   2.0000      -0.607419       -16.5287 
  59   2.0000      -0.602485       -16.3944 
  60   2.0000      -0.592628       -16.1262 
  61   2.0000      -0.585993       -15.9457 
  62   2.0000      -0.575535       -15.6611 
  63   2.0000      -0.569729       -15.5031 
  64   2.0000      -0.564047       -15.3485 
  65   2.0000      -0.557885       -15.1808 
  66   2.0000      -0.555670       -15.1205 
  67   2.0000      -0.552049       -15.0220 
  68   2.0000      -0.549741       -14.9592 
  69   2.0000      -0.543162       -14.7802 
  70   2.0000      -0.538908       -14.6644 
  71   2.0000      -0.534350       -14.5404 
  72   2.0000      -0.526917       -14.3381 
  73   2.0000      -0.522280       -14.2120 
  74   2.0000      -0.519097       -14.1254 
  75   2.0000      -0.516789       -14.0625 
  76   2.0000      -0.506795       -13.7906 
  77   2.0000      -0.503414       -13.6986 
  78   2.0000      -0.500751       -13.6261 
  79   2.0000      -0.492706       -13.4072 
  80   2.0000      -0.487750       -13.2724 
  81   2.0000      -0.487370       -13.2620 
  82   2.0000      -0.483459       -13.1556 
  83   2.0000      -0.478257       -13.0140 
  84   2.0000      -0.468223       -12.7410 
  85   2.0000      -0.463409       -12.6100 
  86   2.0000      -0.462310       -12.5801 
  87   2.0000      -0.457552       -12.4506 
  88   2.0000      -0.456902       -12.4329 
  89   2.0000      -0.452791       -12.3211 
  90   2.0000      -0.448297       -12.1988 
  91   2.0000      -0.446082       -12.1385 
  92   2.0000      -0.439582       -11.9616 
  93   2.0000      -0.434959       -11.8358 
  94   2.0000      -0.429147       -11.6777 
  95   2.0000      -0.425099       -11.5675 
  96   2.0000      -0.422772       -11.5042 
  97   2.0000      -0.422072       -11.4852 
  98   2.0000      -0.417292       -11.3551 
  99   2.0000      -0.414994       -11.2926 
 100   2.0000      -0.409025       -11.1301 
 101   2.0000      -0.407898       -11.0995 
 102   2.0000      -0.405097       -11.0232 
 103   2.0000      -0.404040       -10.9945 
 104   2.0000      -0.392717       -10.6864 
 105   2.0000      -0.382556       -10.4099 
 106   2.0000      -0.372764       -10.1434 
 107   2.0000      -0.355954        -9.6860 
 108   2.0000      -0.335437        -9.1277 
 109   2.0000      -0.292506        -7.9595 
 110   0.0000       0.046292         1.2597 
 111   0.0000       0.099444         2.7060 
 112   0.0000       0.109609         2.9826 
 113   0.0000       0.131849         3.5878 
 114   0.0000       0.143861         3.9147 
 115   0.0000       0.145078         3.9478 
 116   0.0000       0.150317         4.0903 
 117   0.0000       0.152466         4.1488 
 118   0.0000       0.160440         4.3658 
 119   0.0000       0.163948         4.4613 
 120   0.0000       0.166211         4.5228 
*Only the first 10 virtual orbitals were printed.

                    ********************************
                    * MULLIKEN POPULATION ANALYSIS *
                    ********************************

-----------------------
MULLIKEN ATOMIC CHARGES
-----------------------
   0 C :   -0.172678
   1 C :    0.141740
   2 C :    0.068605
   3 H :    0.017196
   4 H :    0.030720
   5 C :   -0.170337
   6 C :    0.095226
   7 C :    0.023721
   8 H :    0.013801
   9 H :    0.027482
  10 H :    0.019933
  11 H :    0.022474
  12 O :   -0.359270
  13 H :    0.018104
  14 C :   -0.009473
  15 C :   -0.047089
  16 H :    0.035523
  17 H :    0.029418
  18 C :   -0.061961
  19 H :   -0.002055
  20 C :   -0.114435
  21 H :    0.003582
  22 C :    0.114185
  23 C :   -0.002042
  24 H :    0.014551
  25 H :    0.016941
  26 C :    0.106645
  27 H :    0.013078
  28 H :    0.015729
  29 C :   -0.404989
  30 H :    0.008925
  31 H :   -0.001953
  32 C :   -0.045970
  33 H :    0.011925
  34 C :    0.126824
  35 H :    0.179216
  36 C :    0.042416
  37 H :    0.007814
  38 H :    0.015260
  39 C :   -0.051461
  40 H :    0.014248
  41 H :    0.011380
  42 H :   -0.009995
  43 C :   -0.004759
  44 C :    0.091447
  45 H :    0.019401
  46 H :    0.024594
  47 H :    0.018889
  48 H :    0.002012
  49 C :    0.059942
  50 C :   -0.084925
  51 C :   -0.084959
  52 H :    0.013618
  53 H :    0.009280
  54 C :   -0.057463
  55 C :    0.049711
  56 C :   -0.166024
  57 H :    0.014710
  58 H :    0.012045
  59 C :    0.021961
  60 C :    0.026295
  61 H :    0.026287
  62 H :    0.016117
  63 H :    0.021078
  64 H :    0.019039
  65 H :    0.016214
  66 H :    0.018061
  67 H :    0.016560
  68 H :    0.019491
  69 H :    0.020659
  70 H :    0.028509
  71 H :    0.019377
  72 H :    0.019878
Sum of atomic charges:   -0.0000000

--------------------------------
MULLIKEN REDUCED ORBITAL CHARGES
--------------------------------
  0 C s       :     3.101911  s :     3.101911
      pz      :     1.013947  p :     3.027761
      px      :     1.002702
      py      :     1.011112
      dz2     :     0.005509  d :     0.043006
      dxz     :     0.006235
      dyz     :     0.005966
      dx2y2   :     0.013761
      dxy     :     0.011534

  1 C s       :     2.939716  s :     2.939716
      pz      :     0.991529  p :     2.884143
      px      :     0.928695
      py      :     0.963919
      dz2     :     0.008560  d :     0.034401
      dxz     :     0.006272
      dyz     :     0.003396
      dx2y2   :     0.009788
      dxy     :     0.006385

  2 C s       :     3.084710  s :     3.084710
      pz      :     0.733585  p :     2.775992
      px      :     1.048016
      py      :     0.994391
      dz2     :     0.023085  d :     0.070693
      dxz     :     0.011790
      dyz     :     0.016991
      dx2y2   :     0.011011
      dxy     :     0.007817

  3 H s       :     0.960145  s :     0.960145
      pz      :     0.004887  p :     0.022659
      px      :     0.003580
      py      :     0.014192

  4 H s       :     0.945968  s :     0.945968
      pz      :     0.014636  p :     0.023312
      px      :     0.004277
      py      :     0.004400

  5 C s       :     3.109145  s :     3.109145
      pz      :     0.973534  p :     3.016415
      px      :     0.992703
      py      :     1.050177
      dz2     :     0.008701  d :     0.044777
      dxz     :     0.005741
      dyz     :     0.008034
      dx2y2   :     0.011794
      dxy     :     0.010507

  6 C s       :     2.955420  s :     2.955420
      pz      :     1.006564  p :     2.913923
      px      :     0.938945
      py      :     0.968414
      dz2     :     0.009521  d :     0.035431
      dxz     :     0.005859
      dyz     :     0.003671
      dx2y2   :     0.008853
      dxy     :     0.007527

  7 C s       :     3.002748  s :     3.002748
      pz      :     0.985480  p :     2.938745
      px      :     0.983702
      py      :     0.969562
      dz2     :     0.008306  d :     0.034786
      dxz     :     0.005787
      dyz     :     0.003982
      dx2y2   :     0.008387
      dxy     :     0.008324

  8 H s       :     0.963365  s :     0.963365
      pz      :     0.005535  p :     0.022835
      px      :     0.003664
      py      :     0.013636

  9 H s       :     0.949119  s :     0.949119
      pz      :     0.014720  p :     0.023399
      px      :     0.004225
      py      :     0.004454

 10 H s       :     0.957241  s :     0.957241
      pz      :     0.014377  p :     0.022826
      px      :     0.004353
      py      :     0.004096

 11 H s       :     0.954899  s :     0.954899
      pz      :     0.007527  p :     0.022628
      px      :     0.008354
      py      :     0.006747

 12 O s       :     3.713313  s :     3.713313
      pz      :     1.380175  p :     4.633825
      px      :     1.366722
      py      :     1.886928
      dz2     :     0.005109  d :     0.012132
      dxz     :     0.001565
      dyz     :     0.001630
      dx2y2   :     0.003220
      dxy     :     0.000607

 13 H s       :     0.961548  s :     0.961548
      pz      :     0.002199  p :     0.020348
      px      :     0.013476
      py      :     0.004673

 14 C s       :     3.194274  s :     3.194274
      pz      :     0.991752  p :     2.778851
      px      :     0.878501
      py      :     0.908599
      dz2     :     0.004646  d :     0.036347
      dxz     :     0.007422
      dyz     :     0.003267
      dx2y2   :     0.011125
      dxy     :     0.009887

 15 C s       :     3.124673  s :     3.124673
      pz      :     1.011344  p :     2.896162
      px      :     0.975086
      py      :     0.909733
      dz2     :     0.004755  d :     0.026254
      dxz     :     0.004164
      dyz     :     0.003822
      dx2y2   :     0.007145
      dxy     :     0.006368

 16 H s       :     0.939938  s :     0.939938
      pz      :     0.006523  p :     0.024539
      px      :     0.009506
      py      :     0.008510

 17 H s       :     0.945975  s :     0.945975
      pz      :     0.004785  p :     0.024607
      px      :     0.004209
      py      :     0.015613

 18 C s       :     3.199815  s :     3.199815
      pz      :     1.023853  p :     2.826979
      px      :     0.894946
      py      :     0.908179
      dz2     :     0.003901  d :     0.035167
      dxz     :     0.006699
      dyz     :     0.003265
      dx2y2   :     0.012060
      dxy     :     0.009242

 19 H s       :     0.977725  s :     0.977725
      pz      :     0.004484  p :     0.024330
      px      :     0.004580
      py      :     0.015267

 20 C s       :     3.100256  s :     3.100256
      pz      :     0.962632  p :     2.970071
      px      :     0.975069
      py      :     1.032370
      dz2     :     0.004748  d :     0.044108
      dxz     :     0.007040
      dyz     :     0.007047
      dx2y2   :     0.013881
      dxy     :     0.011392

 21 H s       :     0.971853  s :     0.971853
      pz      :     0.004498  p :     0.024566
      px      :     0.004122
      py      :     0.015946

 22 C s       :     2.926336  s :     2.926336
      pz      :     0.997789  p :     2.923945
      px      :     0.976951
      py      :     0.949206
      dz2     :     0.009237  d :     0.035534
      dxz     :     0.004698
      dyz     :     0.005488
      dx2y2   :     0.009550
      dxy     :     0.006560

 23 C s       :     3.001047  s :     3.001047
      pz      :     1.016027  p :     2.964501
      px      :     0.960421
      py      :     0.988053
      dz2     :     0.010418  d :     0.036494
      dxz     :     0.007266
      dyz     :     0.002530
      dx2y2   :     0.010405
      dxy     :     0.005874

 24 H s       :     0.962234  s :     0.962234
      pz      :     0.005507  p :     0.023215
      px      :     0.012664
      py      :     0.005044

 25 H s       :     0.959792  s :     0.959792
      pz      :     0.013837  p :     0.023267
      px      :     0.004514
      py      :     0.004917

 26 C s       :     2.969880  s :     2.969880
      pz      :     0.969197  p :     2.888167
      px      :     0.977127
      py      :     0.941842
      dz2     :     0.007519  d :     0.035308
      dxz     :     0.006471
      dyz     :     0.005235
      dx2y2   :     0.008487
      dxy     :     0.007596

 27 H s       :     0.964067  s :     0.964067
      pz      :     0.014100  p :     0.022855
      px      :     0.003904
      py      :     0.004852

 28 H s       :     0.961631  s :     0.961631
      pz      :     0.004571  p :     0.022641
      px      :     0.003695
      py      :     0.014375

 29 C s       :     3.253615  s :     3.253615
      pz      :     1.050581  p :     3.100448
      px      :     0.992870
      py      :     1.056997
      dz2     :     0.011369  d :     0.050925
      dxz     :     0.010958
      dyz     :     0.009324
      dx2y2   :     0.010726
      dxy     :     0.008549

 30 H s       :     0.968007  s :     0.968007
      pz      :     0.008300  p :     0.023069
      px      :     0.009031
      py      :     0.005737

 31 H s       :     0.979407  s :     0.979407
      pz      :     0.013532  p :     0.022546
      px      :     0.004505
      py      :     0.004509

 32 C s       :     3.034644  s :     3.034644
      pz      :     0.994300  p :     2.967577
      px      :     0.941619
      py      :     1.031658
      dz2     :     0.008582  d :     0.043750
      dxz     :     0.007271
      dyz     :     0.007908
      dx2y2   :     0.011170
      dxy     :     0.008819

 33 H s       :     0.966795  s :     0.966795
      pz      :     0.012649  p :     0.021280
      px      :     0.003847
      py      :     0.004783

 34 C s       :     2.891627  s :     2.891627
      pz      :     0.988477  p :     2.946719
      px      :     0.982315
      py      :     0.975926
      dz2     :     0.005461  d :     0.034830
      dxz     :     0.006247
      dyz     :     0.007785
      dx2y2   :     0.009259
      dxy     :     0.006078

 35 H s       :     0.751996  s :     0.751996
[...]
 Total          141.637          174.339          191.222  iso=     169.066

 Orientation: 
  X           0.1676203   -0.5245412    0.8347215
  Y          -0.1380152   -0.8508483   -0.5069606
  Z           0.9761430   -0.0302274   -0.2150141

 --------------
 Nucleus  39C :
 --------------

Diamagnetic contribution to the shielding tensor (ppm) : 
           265.042          4.517        -6.692
             4.360        259.098         5.717
            -5.144          4.805       262.059

Paramagnetic contribution to the shielding tensor (ppm): 
          -101.745          0.432        12.120
             4.232       -128.229        -0.093
            15.258         -2.886      -134.484

Total shielding tensor (ppm): 
           163.297          4.949         5.428
             8.592        130.869         5.623
            10.114          1.919       127.576


 Diagonalized sT*s matrix:
 
 sDSO           258.723          263.016          264.460  iso=     262.066
 sPSO          -133.906         -132.545          -98.006  iso=    -121.486
        ---------------  ---------------  ---------------
 Total          124.818          130.470          166.454  iso=     140.581

 Orientation: 
  X          -0.0979337   -0.2666109   -0.9588157
  Y          -0.4480802    0.8720798   -0.1967258
  Z           0.8886130    0.4103602   -0.2048691

 --------------
 Nucleus  43C :
 --------------

Diamagnetic contribution to the shielding tensor (ppm) : 
           259.501          0.819        -4.862
            -0.990        247.555         8.440
            -5.181          2.001       252.618

Paramagnetic contribution to the shielding tensor (ppm): 
           -93.601         -3.444        -3.249
             4.062        -91.398        -6.748
            -2.423          1.674       -92.780

Total shielding tensor (ppm): 
           165.900         -2.625        -8.111
             3.072        156.157         1.691
            -7.603          3.675       159.838


 Diagonalized sT*s matrix:
 
 sDSO           245.010          252.258          262.407  iso=     253.225
 sPSO           -92.230          -94.552          -90.998  iso=     -92.593
        ---------------  ---------------  ---------------
 Total          152.780          157.706          171.408  iso=     160.632

 Orientation: 
  X          -0.4218160    0.4006595   -0.8133531
  Y           0.5798004    0.8088724    0.0977598
  Z          -0.6970672    0.4303458    0.5734979

 --------------
 Nucleus  44C :
 --------------

Diamagnetic contribution to the shielding tensor (ppm) : 
           250.835          0.284        -0.642
             0.141        254.951        -1.570
            -1.196          0.835       272.792

Paramagnetic contribution to the shielding tensor (ppm): 
           -70.865         -4.268        -1.542
            -2.578        -74.935        -2.343
            -0.555         -5.178       -79.938

Total shielding tensor (ppm): 
           179.969         -3.984        -2.184
            -2.438        180.016        -3.913
            -1.751         -4.343       192.855


 Diagonalized sT*s matrix:
 
 sDSO           254.059          252.771          271.749  iso=     259.526
 sPSO           -78.376          -69.753          -77.609  iso=     -75.246
        ---------------  ---------------  ---------------
 Total          175.683          183.018          194.140  iso=     184.280

 Orientation: 
  X           0.6527170    0.7540169   -0.0736139
  Y           0.7161561   -0.6457874   -0.2647245
  Z           0.2471456   -0.1200711    0.9615102

 --------------
 Nucleus  49C :
 --------------

Diamagnetic contribution to the shielding tensor (ppm) : 
           247.672         -5.369        -3.289
           -13.993        254.876         6.851
            -8.733          4.277       251.644

Paramagnetic contribution to the shielding tensor (ppm): 
           -65.695          2.975        -2.050
            10.782        -72.883        -2.559
             1.886         -0.943       -77.208

Total shielding tensor (ppm): 
           181.976         -2.394        -5.339
            -3.211        181.994         4.292
            -6.846          3.334       174.436


 Diagonalized sT*s matrix:
 
 sDSO           246.206          242.977          265.009  iso=     251.397
 sPSO           -75.549          -63.606          -76.631  iso=     -71.929
        ---------------  ---------------  ---------------
 Total          170.657          179.371          188.377  iso=     179.469

 Orientation: 
  X           0.4264165   -0.5911428    0.6846307
  Y          -0.1921127   -0.7988138   -0.5700782
  Z           0.8838901    0.1115645   -0.4541934

 --------------
 Nucleus  50C :
 --------------

Diamagnetic contribution to the shielding tensor (ppm) : 
           269.299         -0.922        14.568
             5.355        267.561        -2.274
            16.799         -2.053       257.875

Paramagnetic contribution to the shielding tensor (ppm): 
          -170.853         -1.166       -67.870
             0.490       -302.380       -46.829
           -63.671        -48.095      -137.240

Total shielding tensor (ppm): 
            98.446         -2.088       -53.302
             5.845        -34.819       -49.103
           -46.872        -50.148       120.635


 Diagonalized sT*s matrix:
 
 sDSO           269.525          276.549          248.660  iso=     264.912
 sPSO          -313.022         -217.650          -79.800  iso=    -203.491
        ---------------  ---------------  ---------------
 Total          -43.497           58.899          168.860  iso=      61.421

 Orientation: 
  X          -0.2968995    0.7712357   -0.5630685
  Y          -0.8661325   -0.4657812   -0.1812795
  Z          -0.4020760    0.4338702    0.8062826

 --------------
 Nucleus  51C :
 --------------

Diamagnetic contribution to the shielding tensor (ppm) : 
           267.245         -2.795        15.725
           -14.421        274.395        11.118
            19.005          3.191       252.340

Paramagnetic contribution to the shielding tensor (ppm): 
          -172.123         -1.381       -69.952
            15.454       -290.746       -62.622
           -65.526        -56.823      -120.827

Total shielding tensor (ppm): 
            95.122         -4.176       -54.226
             1.033        -16.351       -51.503
           -46.521        -53.631       131.513


 Diagonalized sT*s matrix:
 
 sDSO           275.137          280.760          238.084  iso=     264.660
 sPSO          -309.516         -212.562          -61.618  iso=    -194.565
        ---------------  ---------------  ---------------
 Total          -34.379           68.197          176.466  iso=      70.095

 Orientation: 
  X          -0.2331114    0.8346674   -0.4989883
  Y          -0.8991208   -0.3804730   -0.2163840
  Z          -0.3704602    0.3982092    0.8391595

 --------------
 Nucleus  54C :
 --------------

Diamagnetic contribution to the shielding tensor (ppm) : 
           255.258          0.130         2.271
             2.730        253.934         7.125
            -0.274          8.747       240.703

Paramagnetic contribution to the shielding tensor (ppm): 
           -92.568          0.432       -12.674
             0.804       -101.085        -5.506
            -6.763         -6.900       -78.287

Total shielding tensor (ppm): 
           162.691          0.563       -10.403
             3.534        152.849         1.619
            -7.037          1.847       162.416


 Diagonalized sT*s matrix:
 
 sDSO           245.490          257.440          246.966  iso=     249.965
 sPSO           -94.868         -101.383          -75.689  iso=     -90.647
        ---------------  ---------------  ---------------
 Total          150.622          156.057          171.277  iso=     159.319

 Orientation: 
  X          -0.4536132   -0.5378579   -0.7105941
  Y           0.7707447   -0.6370686   -0.0098053
  Z          -0.4474233   -0.5521345    0.7035339

 --------------
 Nucleus  55C :
 --------------

Diamagnetic contribution to the shielding tensor (ppm) : 
           239.894         -3.190         0.866
            16.029        263.093         4.525
            12.363          7.450       242.554

Paramagnetic contribution to the shielding tensor (ppm): 
           -58.281          3.557        -2.531
           -18.955        -76.361         7.323
           -13.193          2.216       -71.523

Total shielding tensor (ppm): 
           181.614          0.367        -1.664
            -2.926        186.732        11.848
            -0.830          9.666       171.031


 Diagonalized sT*s matrix:
 
 sDSO           242.155          243.080          260.305  iso=     248.514
 sPSO           -76.608          -61.717          -67.839  iso=     -68.722
        ---------------  ---------------  ---------------
 Total          165.547          181.363          192.466  iso=     179.792

 Orientation: 
  X           0.0367889   -0.9865854    0.1590463
  Y          -0.4532632   -0.1583151   -0.8772051
  Z           0.8906173   -0.0398184   -0.4530071

 --------------
 Nucleus  56C :
 --------------

Diamagnetic contribution to the shielding tensor (ppm) : 
           249.404         -3.138        -4.664
            -6.866        243.635        -2.128
            -7.896         -2.553       239.050

Paramagnetic contribution to the shielding tensor (ppm): 
           -73.100         -0.299         4.209
             6.311        -80.551         4.716
             1.769          8.399       -82.589

Total shielding tensor (ppm): 
           176.304         -3.436        -0.455
            -0.555        163.084         2.588
            -6.127          5.846       156.462


 Diagonalized sT*s matrix:
 
 sDSO           240.949          238.377          252.763  iso=     244.030
 sPSO           -86.741          -74.083          -75.416  iso=     -78.746
        ---------------  ---------------  ---------------
 Total          154.208          164.294          177.348  iso=     165.283

 Orientation: 
  X           0.0887852    0.2522586   -0.9635781
  Y          -0.4044394    0.8931912    0.1965663
  Z           0.9102450    0.3722568    0.1813255

 --------------
 Nucleus  59C :
 --------------

Diamagnetic contribution to the shielding tensor (ppm) : 
           248.881          2.073        -0.852
             5.147        238.022        -7.657
           -20.479         -7.416       244.718

Paramagnetic contribution to the shielding tensor (ppm): 
           -73.547         -1.092         0.015
            -5.182        -56.076         0.285
            20.406         -4.718       -56.000

Total shielding tensor (ppm): 
           175.334          0.981        -0.837
            -0.035        181.946        -7.372
            -0.073        -12.134       188.718


 Diagonalized sT*s matrix:
 
 sDSO           236.912          244.485          250.224  iso=     243.874
 sPSO           -61.946          -69.129          -54.549  iso=     -61.874
        ---------------  ---------------  ---------------
 Total          174.966          175.356          195.675  iso=     181.999

 Orientation: 
  X          -0.3337748    0.9421726   -0.0300860
  Y           0.7703055    0.2542145   -0.5848115
  Z           0.5433450    0.2183708    0.8106111

 --------------
 Nucleus  60C :
 --------------

Diamagnetic contribution to the shielding tensor (ppm) : 
           245.534         -5.187         1.986
           -19.820        245.529        -1.393
             1.776          0.888       228.299

Paramagnetic contribution to the shielding tensor (ppm): 
           -78.976         -6.124        -4.031
             7.950        -55.093        -9.925
            -8.061         -6.325       -59.550

Total shielding tensor (ppm): 
           166.558        -11.311        -2.045
           -11.870        190.436       -11.318
            -6.285         -5.437       168.749


 Diagonalized sT*s matrix:
 
 sDSO           234.365          232.646          252.351  iso=     239.787
 sPSO           -77.167          -60.689          -55.764  iso=     -64.540
        ---------------  ---------------  ---------------
 Total          157.198          171.957          196.587  iso=     175.248

 Orientation: 
  X          -0.7314762   -0.6006707   -0.3227031
  Y          -0.4005423   -0.0044869    0.9162673
  Z          -0.5518229    0.7994839   -0.2373119



--------------------------------
CHEMICAL SHIELDING SUMMARY (ppm)
--------------------------------


  Nucleus  Element    Isotropic     Anisotropy
  -------  -------  ------------   ------------
      0       C           61.506        151.905 
      1       C          154.551         12.278 
      2       C          132.378         50.970 
      5       C           50.887        177.578 
      6       C          168.033         31.755 
      7       C          164.960         17.247 
     14       C           71.629        133.070 
     15       C           83.617        119.613 
     18       C           80.079        133.948 
     20       C           52.080        175.791 
     22       C          169.011          7.102 
     23       C          174.148         13.308 
     26       C          158.886         23.566 
     29       C          153.780         17.572 
     32       C          143.266         27.701 
     34       C          174.751         23.774 
     36       C          169.066         33.233 
     39       C          140.581         38.810 
     43       C          160.632         16.165 
     44       C          184.280         14.790 
     49       C          179.469         13.363 
     50       C           61.421        161.159 
     51       C           70.095        159.556 
     54       C          159.319         17.938 
     55       C          179.792         19.011 
     56       C          165.283         18.096 
     59       C          181.999         20.514 
     60       C          175.248         32.010 


NMR shielding tensor and spin rotation calculation done in   1.1 sec 

Maximum memory used throughout the entire PROP-calculation: 51.8 MB

--------------------------------
SUGGESTED CITATIONS FOR THIS RUN
--------------------------------

Below you find a list of papers that are relevant to this ORCA run
We neither can nor want to force you to cite these papers, but we appreciate if you do
You receive ORCA, which is the product of decades of hard work by many enthusiastic individuals, for free
The only thing we kindly ask in return is that you cite our papers,
We deeply appreciate it, if you show your appreciation for ORCA by not just citing the generic ORCA reference.

Please note that relegating all ORCA citations to the supporting information does *not* help us.
SI sections are not indexed - citations you put there will not count into any citation statistics
But we need these citations in order to attract the funding resources that allow us to do what we are doing

Therefore, if you are a happy ORCA user, please consider citing a few of the papers listed below in the main body of your paper

In addition to the list printed below, the program has created the file inpS.bibtex that contains the list in bibtex format
You can import this file easily into all common literature databanks and citation aid programs


List of essential papers. We consider these as the minimum necessary citations

  1. Neese,F.
     Software update: the ORCA program system, version 5.0
     WIRES Comput. Molec. Sci., 2022 12(1)e1606
     doi.org/10.1002/wcms.1606

List of papers to cite with high priority. The work reported in these papers was absolutely
necessary for this run to complete.
Our perspective: the developers of density functionals and basis sets usually get cited in chemistry papers
Good! But without the algorithms to do something with them, the functionals or basis sets would not do anything.
Hence, in our opinion, the algorithm design and method developments papers are equally worthy of getting cited

  1. Neese,F.
     An improvement of the resolution of the identity approximation for the formation of the Coulomb matrix
     J. Comp. Chem., 2003 24(14)1740-1747
     doi.org/10.1002/jcc.10318
  2. Neese,F.; Wennmohs,F.; Hansen,A.; Becker,U.
     Efficient, approximate and parallel Hartree-Fock and hybrid DFT calculations. A 'chain-of-spheres' algorithm for the Hartree-Fock exchange
     Chem. Phys., 2009 356(1-3)98-109
     doi.org/10.1016/j.chemphys.2008.10.036
  3. Stoychev,G.L.; Auer,A.A.; Izsak,R.; Neese,F.
     Self-Consistent Field Calculation of Nuclear Magnetic Resonance Chemical Shielding Constants Using Gauge-Including Atomic Orbitals and Approximate Two-Electron Integrals
     J. Chem. Theory Comput., 2018 14(2)619-637
     doi.org/10.1021/acs.jctc.7b01006
  4. Garcia-Rates,M.; Neese,F.
     Effect of the Solute Cavity on the Solvation Energy and its Derivatives within the Framework of the Gaussian Charge Scheme
     J. Comput. Chem., 2020 41 922-939
     doi.org/10.1002/jcc.26139
  5. Helmich-Paris,B.; de Souza,B.; Neese,F.; Izsák,R.
     An improved chain of spheres for exchange algorithm
     J. Chem. Phys., 2021 155 104109
     doi.org/doi: 10.1063/5.0058766.
  6. Neese,F.
     The SHARK Integral Generation and Digestion System
     J. Comp. Chem., 2022  1-16
     doi.org/10.1002/jcc.26942
  7. Caldeweyher,E.; Bannwarth,C.; Grimme,S.
     Extension of the D3 dispersion coefficient model
     J. Chem. Phys., 2017 147 034112-XXXX
     doi.org/10.1063/1.4993215
  8. Caldeweyher,E.; Ehlert,S.; Hansen,A.; Neugebauer,H.; Spicher,S.; Bannwarth,C.; Grimme,S.
     A generally applicable atomic-charge dependent London dispersion correction
     J. Chem. Phys., 2019 150 154122-XXXX
     doi.org/10.1063/1.5090222
  9. Caldeweyher,E.; Mewes,J.; Ehlert,S.; Grimme,S.
     Extension and evaluation of the D4 London-dispersion model for periodic systems
     Phys. Chem. Chem. Phys., 2020 22(16)8499-8512
     doi.org/10.1039/D0CP00502A

List of suggested additional citations. These are papers that are important in the 'surrounding' of 
of this run, or papers that preceded the highly important papers. If you like your results we are grateful for a citation.

  1. Izsak,R.; Neese,F.
     An overlap fitted chain of spheres exchange method
     J. Chem. Phys., 2011 135 144105
     doi.org/10.1063/1.3646921
  2. Izsak,R.; Hansen,A.; Neese,F.
     The resolution of identity and chain of spheres approximations for the LPNO-CCSD singles Fock term
     Molec. Phys., 2012 110 2413-2417
     doi.org/10.1080/00268976.2012.687466
  3. Neese,F.
     The ORCA program system
     WIRES Comput. Molec. Sci., 2012 2(1)73-78
     doi.org/10.1002/wcms.81
  4. Izsak,R.; Neese,F.; Klopper,W.
     Robust fitting techniques in the chain of spheres approximation to the Fock exchange: The role of the complementary space
     J. Chem. Phys., 2013 139 
     doi.org/10.1063/1.4819264
  5. Neese,F.
     Software update: the ORCA program system, version 4.0
     WIRES Comput. Molec. Sci., 2018 8(1)1-6
     doi.org/10.1002/wcms.1327
  6. Neese,F.; Wennmohs,F.; Becker,U.; Riplinger,C.
     The ORCA quantum chemistry program package
     J. Chem. Phys., 2020 152 Art. No. L224108
     doi.org/10.1063/5.0004608

Timings for individual modules:

Sum of individual times          ...      176.952 sec (=   2.949 min)
Startup calculation              ...        4.516 sec (=   0.075 min)   2.6 %
SCF iterations                   ...       71.790 sec (=   1.196 min)  40.6 %
Property integrals               ...       60.325 sec (=   1.005 min)  34.1 %
SCF Response                     ...       38.942 sec (=   0.649 min)  22.0 %
Property calculations            ...        1.379 sec (=   0.023 min)   0.8 %
                             ****ORCA TERMINATED NORMALLY****
TOTAL RUN TIME: 0 days 0 hours 2 minutes 57 seconds 243 msec
