
                                 *****************
                                 * O   R   C   A *
                                 *****************

                                            #,                                       
                                            ###                                      
                                            ####                                     
                                            #####                                    
                                            ######                                   
                                           ########,                                 
                                     ,,################,,,,,                         
                               ,,#################################,,                 
                          ,,##########################################,,             
                       ,#########################################, ''#####,          
                    ,#############################################,,   '####,        
                  ,##################################################,,,,####,       
                ,###########''''           ''''###############################       
              ,#####''   ,,,,##########,,,,          '''####'''          '####       
            ,##' ,,,,###########################,,,                        '##       
           ' ,,###''''                  '''############,,,                           
         ,,##''                                '''############,,,,        ,,,,,,###''
      ,#''                                            '''#######################'''  
     '                                                          ''''####''''         
             ,#######,   #######,   ,#######,      ##                                
            ,#'     '#,  ##    ##  ,#'     '#,    #''#        ######   ,####,        
            ##       ##  ##   ,#'  ##            #'  '#       #        #'  '#        
            ##       ##  #######   ##           ,######,      #####,   #    #        
            '#,     ,#'  ##    ##  '#,     ,#' ,#      #,         ##   #,  ,#        
             '#######'   ##     ##  '#######'  #'      '#     #####' # '####'        



                  #######################################################
                  #                        -***-                        #
                  #          Department of theory and spectroscopy      #
                  #    Directorship and core code : Frank Neese         #
                  #        Max Planck Institute fuer Kohlenforschung    #
                  #                Kaiser Wilhelm Platz 1               #
                  #                 D-45470 Muelheim/Ruhr               #
                  #                      Germany                        #
                  #                                                     #
                  #                  All rights reserved                #
                  #                        -***-                        #
                  #######################################################


                         Program Version 5.0.2 -  RELEASE  -


 With contributions from (in alphabetic order):
   Daniel Aravena         : Magnetic Suceptibility
   Michael Atanasov       : Ab Initio Ligand Field Theory (pilot matlab implementation)
   Alexander A. Auer      : GIAO ZORA, VPT2 properties, NMR spectrum
   Ute Becker             : Parallelization
   Giovanni Bistoni       : ED, misc. LED, open-shell LED, HFLD
   Martin Brehm           : Molecular dynamics
   Dmytro Bykov           : SCF Hessian
   Vijay G. Chilkuri      : MRCI spin determinant printing, contributions to CSF-ICE
   Dipayan Datta          : RHF DLPNO-CCSD density
   Achintya Kumar Dutta   : EOM-CC, STEOM-CC
   Dmitry Ganyushin       : Spin-Orbit,Spin-Spin,Magnetic field MRCI
   Miquel Garcia          : C-PCM and meta-GGA Hessian, CC/C-PCM, Gaussian charge scheme
   Yang Guo               : DLPNO-NEVPT2, F12-NEVPT2, CIM, IAO-localization
   Andreas Hansen         : Spin unrestricted coupled pair/coupled cluster methods
   Benjamin Helmich-Paris : MC-RPA, TRAH-SCF, COSX integrals
   Lee Huntington         : MR-EOM, pCC
   Robert Izsak           : Overlap fitted RIJCOSX, COSX-SCS-MP3, EOM
   Marcus Kettner         : VPT2
   Christian Kollmar      : KDIIS, OOCD, Brueckner-CCSD(T), CCSD density, CASPT2, CASPT2-K
   Simone Kossmann        : Meta GGA functionals, TD-DFT gradient, OOMP2, MP2 Hessian
   Martin Krupicka        : Initial AUTO-CI
   Lucas Lang             : DCDCAS
   Marvin Lechner         : AUTO-CI (C++ implementation), FIC-MRCC
   Dagmar Lenk            : GEPOL surface, SMD
   Dimitrios Liakos       : Extrapolation schemes; Compound Job, initial MDCI parallelization
   Dimitrios Manganas     : Further ROCIS development; embedding schemes
   Dimitrios Pantazis     : SARC Basis sets
   Anastasios Papadopoulos: AUTO-CI, single reference methods and gradients
   Taras Petrenko         : DFT Hessian,TD-DFT gradient, ASA, ECA, R-Raman, ABS, FL, XAS/XES, NRVS
   Peter Pinski           : DLPNO-MP2, DLPNO-MP2 Gradient
   Christoph Reimann      : Effective Core Potentials
   Marius Retegan         : Local ZFS, SOC
   Christoph Riplinger    : Optimizer, TS searches, QM/MM, DLPNO-CCSD(T), (RO)-DLPNO pert. Triples
   Tobias Risthaus        : Range-separated hybrids, TD-DFT gradient, RPA, STAB
   Michael Roemelt        : Original ROCIS implementation
   Masaaki Saitow         : Open-shell DLPNO-CCSD energy and density
   Barbara Sandhoefer     : DKH picture change effects
   Avijit Sen             : IP-ROCIS
   Kantharuban Sivalingam : CASSCF convergence, NEVPT2, FIC-MRCI
   Bernardo de Souza      : ESD, SOC TD-DFT
   Georgi Stoychev        : AutoAux, RI-MP2 NMR, DLPNO-MP2 response
   Willem Van den Heuvel  : Paramagnetic NMR
   Boris Wezisla          : Elementary symmetry handling
   Frank Wennmohs         : Technical directorship


 We gratefully acknowledge several colleagues who have allowed us to
 interface, adapt or use parts of their codes:
   Stefan Grimme, W. Hujo, H. Kruse, P. Pracht,  : VdW corrections, initial TS optimization,
                  C. Bannwarth, S. Ehlert          DFT functionals, gCP, sTDA/sTD-DF
   Ed Valeev, F. Pavosevic, A. Kumar             : LibInt (2-el integral package), F12 methods
   Garnet Chan, S. Sharma, J. Yang, R. Olivares  : DMRG
   Ulf Ekstrom                                   : XCFun DFT Library
   Mihaly Kallay                                 : mrcc  (arbitrary order and MRCC methods)
   Jiri Pittner, Ondrej Demel                    : Mk-CCSD
   Frank Weinhold                                : gennbo (NPA and NBO analysis)
   Christopher J. Cramer and Donald G. Truhlar   : smd solvation model
   Lars Goerigk                                  : TD-DFT with DH, B97 family of functionals
   V. Asgeirsson, H. Jonsson                     : NEB implementation
   FAccTs GmbH                                   : IRC, NEB, NEB-TS, DLPNO-Multilevel, CI-OPT
                                                   MM, QMMM, 2- and 3-layer-ONIOM, Crystal-QMMM,
                                                   LR-CPCM, SF, NACMEs, symmetry and pop. for TD-DFT,
                                                   nearIR, NL-DFT gradient (VV10), updates on ESD,
                                                   ML-optimized integration grids
   S Lehtola, MJT Oliveira, MAL Marques          : LibXC Library
   Liviu Ungur et al                             : ANISO software


 Your calculation uses the libint2 library for the computation of 2-el integrals
 For citations please refer to: http://libint.valeyev.net

 Your ORCA version has been built with support for libXC version: 5.1.0
 For citations please refer to: https://tddft.org/programs/libxc/

 This ORCA versions uses:
   CBLAS   interface :  Fast vector & matrix operations
   LAPACKE interface :  Fast linear algebra routines
   SCALAPACK package :  Parallel linear algebra routines
   Shared memory     :  Shared parallel matrices
   BLAS/LAPACK       :  OpenBLAS 0.3.15  USE64BITINT DYNAMIC_ARCH NO_AFFINITY Zen SINGLE_THREADED
        Core in use  :  Zen
   Copyright (c) 2011-2014, The OpenBLAS Project


Your calculation utilizes the atom-pairwise dispersion correction
based on tight binding partial charges (D4)
Cite in your paper:
E.Caldeweyher, C.Bannwarth, S.Grimme, J.Chem.Phys., (2017), 147, 034112.
E.Caldeweyher, S.Ehlert, A.Hansen, H.Neugebauer, S.Grimme, J.Chem.Phys., (2018), in progress.
   

================================================================================

----- Orbital basis set information -----
Your calculation utilizes the basis: pcJ-0
   F. Jensen, Theor. Chem. Acc. 126, 371 (2010).

----- AuxJ basis set information -----
Your calculation utilizes the auxiliary basis: def2/J
   F. Weigend, Phys. Chem. Chem. Phys. 8, 1057 (2006).

================================================================================
                                        WARNINGS
                       Please study these warnings very carefully!
================================================================================


INFO   : the flag for use of the SHARK integral package has been found!

================================================================================
                                       INPUT FILE
================================================================================
NAME = inpJ
|  1> ! pbe0
|  2> ! D4
|  3> ! pcJ-0
|  4> ! def2/J RIJCOSX
|  5> ! DEFGRID2
|  6> ! scfconv7
|  7> ! smallprint printgap noloewdin
|  8> ! NOSOSCF
|  9> %MaxCore 4000
| 10> %output
| 11>        print[P_BondOrder_M] 1
| 12>        print[P_Mayer] 1
| 13>        print[P_basis] 2
| 14> end
| 15> %pal
| 16>     nprocs 4
| 17> end
| 18> ! CPCM(chloroform)
| 19> *xyz 0 1
| 20> C   -4.9720859800   0.3360831800   0.3632985000
| 21> C   -6.3875711800  -0.1012868400   0.0684932200
| 22> C   -6.9704811900   0.6400410500  -1.1407378700
| 23> H   -7.0309752900   0.1303752600   0.9343757100
| 24> H   -6.4312311000  -1.1829161200  -0.0999298500
| 25> C   -4.7952029700   1.8013301500   0.4488006100
| 26> C   -5.4241289400   2.5762155000  -0.6870339300
| 27> C   -6.8771631800   2.1472464500  -0.9326810200
| 28> H   -4.8450373000   2.3814831500  -1.6025797900
| 29> H   -5.3674312500   3.6516022700  -0.4880998700
| 30> H   -7.2838038500   2.6674110300  -1.8079096200
| 31> H   -7.4948630400   2.4218659300  -0.0642513500
| 32> O   -8.3150507200   0.2203675300  -1.4075744500
| 33> H   -6.4035112300   0.3603618900  -2.0397687600
| 34> C   -3.9756215400  -0.5726401000   0.4853512500
| 35> C   -4.1723306700   2.4081692000   1.4656775200
| 36> H   -3.7485191400   1.8402972400   2.2891920300
| 37> H   -4.0830119800   3.4913667900   1.5005756000
| 38> C   -2.5708999900  -0.2878787700   0.6645448400
| 39> H   -4.2662840500  -1.6184588600   0.3958372800
| 40> C   -1.5893802800  -1.1929007300   0.8674906800
| 41> H   -2.2889048000   0.7615136600   0.6176472900
| 42> C   -1.7820590600  -2.6810620100   1.0133389400
| 43> C   -0.8725614600  -3.4739685300   0.0563737500
| 44> H   -2.8239081900  -2.9809866700   0.8710210300
| 45> H   -1.5133827400  -2.9546159300   2.0464124700
| 46> C    0.5962852000  -3.0360722200   0.1361315100
| 47> H   -1.2396016200  -3.3528507200  -0.9705744700
| 48> H   -0.9495655000  -4.5429995900   0.2899260000
| 49> C    0.7535878900  -1.5229688900  -0.0724741200
| 50> H    1.1749575400  -3.6035551300  -0.5997493800
| 51> H    0.9981604400  -3.2934587900   1.1277207800
| 52> C   -0.1459544600  -0.8111363300   0.9886664400
| 53> H    0.2014451100  -1.2139881500   1.9581709500
| 54> C    0.2880266300   0.6494509200   0.9270640700
| 55> H   -8.8515398200   0.4546416400  -0.6384589400
| 56> C    1.8104793900   0.5655685900   0.6557843900
| 57> H    0.0497870900   1.1907387400   1.8487095600
| 58> H   -0.2182556900   1.1702735300   0.1067459900
| 59> C    2.1340478700  -0.9203955300   0.3119233100
| 60> H    2.3951317700   0.8986587500   1.5191335400
| 61> H    2.0877811800   1.2174048700  -0.1814976500
| 62> H    2.4503582400  -1.4319269300   1.2352495300
| 63> C    3.3094068800  -1.0442941700  -0.6879027100
| 64> C    0.3510727200  -1.1167332800  -1.4961463700
| 65> H   -0.7188394800  -1.2708080000  -1.6663874300
| 66> H    0.8995071100  -1.7080374200  -2.2375707200
| 67> H    0.5633611300  -0.0606230900  -1.6904787700
| 68> H    3.0122382500  -0.4995586400  -1.5995764900
| 69> C    3.6252908700  -2.4873121700  -1.0781803900
| 70> C    4.5045222200  -0.3132423600  -0.1199732100
| 71> C    5.6450427300  -0.8680202800   0.2940461400
| 72> H    4.3810068400   0.7650998700  -0.0296582000
| 73> H    5.7617515200  -1.9475734500   0.2130742600
| 74> C    6.8343162000  -0.1397178600   0.8712647700
| 75> C    6.5163927400   1.3000162700   1.2791086300
| 76> C    8.0504922100  -0.2107341700  -0.0958750400
| 77> H    7.1354120500  -0.6926198300   1.7784441500
| 78> H    7.7701196600   0.3510305800  -1.0011883400
| 79> C    8.3773597800  -1.6504272000  -0.5062623100
| 80> C    9.2963363200   0.4400319800   0.5142648400
| 81> H    5.6092222800   1.3398089100   1.8911012200
| 82> H    6.3589622000   1.9350758200   0.3987956300
| 83> H    7.3310219600   1.7342481600   1.8638323800
| 84> H    9.2835726700  -1.6751207200  -1.1211057300
| 85> H    7.5709275700  -2.1101119600  -1.0847981300
| 86> H    8.5575498300  -2.2725014400   0.3803011000
| 87> H    9.5440647700  -0.0338724600   1.4731655500
| 88> H    9.1661865900   1.5116178500   0.6882086600
| 89> H    10.1568490300   0.3151971100  -0.1521174300
| 90> H    4.5421830900  -2.5329895500  -1.6759772400
| 91> H    2.8190009500  -2.9177660400  -1.6754413200
| 92> H    3.7646251000  -3.1205209200  -0.1940372300
| 93> *
| 94> %eprnmr
| 95>  Nuclei = all H { ssfc }
| 96>  SpinSpinRThresh 8.0
| 97> end
| 98> 
| 99>                          ****END OF INPUT****
================================================================================

                       ****************************
                       * Single Point Calculation *
                       ****************************

---------------------------------
CARTESIAN COORDINATES (ANGSTROEM)
---------------------------------
  C     -4.972086    0.336083    0.363299
  C     -6.387571   -0.101287    0.068493
  C     -6.970481    0.640041   -1.140738
  H     -7.030975    0.130375    0.934376
  H     -6.431231   -1.182916   -0.099930
  C     -4.795203    1.801330    0.448801
  C     -5.424129    2.576215   -0.687034
  C     -6.877163    2.147246   -0.932681
  H     -4.845037    2.381483   -1.602580
  H     -5.367431    3.651602   -0.488100
  H     -7.283804    2.667411   -1.807910
  H     -7.494863    2.421866   -0.064251
  O     -8.315051    0.220368   -1.407574
  H     -6.403511    0.360362   -2.039769
  C     -3.975622   -0.572640    0.485351
  C     -4.172331    2.408169    1.465678
  H     -3.748519    1.840297    2.289192
  H     -4.083012    3.491367    1.500576
  C     -2.570900   -0.287879    0.664545
  H     -4.266284   -1.618459    0.395837
  C     -1.589380   -1.192901    0.867491
  H     -2.288905    0.761514    0.617647
  C     -1.782059   -2.681062    1.013339
  C     -0.872561   -3.473969    0.056374
  H     -2.823908   -2.980987    0.871021
  H     -1.513383   -2.954616    2.046412
  C      0.596285   -3.036072    0.136132
  H     -1.239602   -3.352851   -0.970574
  H     -0.949565   -4.543000    0.289926
  C      0.753588   -1.522969   -0.072474
  H      1.174958   -3.603555   -0.599749
  H      0.998160   -3.293459    1.127721
  C     -0.145954   -0.811136    0.988666
  H      0.201445   -1.213988    1.958171
  C      0.288027    0.649451    0.927064
  H     -8.851540    0.454642   -0.638459
  C      1.810479    0.565569    0.655784
  H      0.049787    1.190739    1.848710
  H     -0.218256    1.170274    0.106746
  C      2.134048   -0.920396    0.311923
  H      2.395132    0.898659    1.519134
  H      2.087781    1.217405   -0.181498
  H      2.450358   -1.431927    1.235250
  C      3.309407   -1.044294   -0.687903
  C      0.351073   -1.116733   -1.496146
  H     -0.718839   -1.270808   -1.666387
  H      0.899507   -1.708037   -2.237571
  H      0.563361   -0.060623   -1.690479
  H      3.012238   -0.499559   -1.599576
  C      3.625291   -2.487312   -1.078180
  C      4.504522   -0.313242   -0.119973
  C      5.645043   -0.868020    0.294046
  H      4.381007    0.765100   -0.029658
  H      5.761752   -1.947573    0.213074
  C      6.834316   -0.139718    0.871265
  C      6.516393    1.300016    1.279109
  C      8.050492   -0.210734   -0.095875
  H      7.135412   -0.692620    1.778444
  H      7.770120    0.351031   -1.001188
  C      8.377360   -1.650427   -0.506262
  C      9.296336    0.440032    0.514265
  H      5.609222    1.339809    1.891101
  H      6.358962    1.935076    0.398796
  H      7.331022    1.734248    1.863832
  H      9.283573   -1.675121   -1.121106
  H      7.570928   -2.110112   -1.084798
  H      8.557550   -2.272501    0.380301
  H      9.544065   -0.033872    1.473166
  H      9.166187    1.511618    0.688209
  H     10.156849    0.315197   -0.152117
  H      4.542183   -2.532990   -1.675977
  H      2.819001   -2.917766   -1.675441
  H      3.764625   -3.120521   -0.194037

----------------------------
CARTESIAN COORDINATES (A.U.)
----------------------------
  NO LB      ZA    FRAG     MASS         X           Y           Z
   0 C     6.0000    0    12.011   -9.395881    0.635105    0.686535
   1 C     6.0000    0    12.011  -12.070760   -0.191404    0.129433
   2 C     6.0000    0    12.011  -13.172300    1.209502   -2.155682
   3 H     1.0000    0     1.008  -13.286618    0.246374    1.765714
   4 H     1.0000    0     1.008  -12.153265   -2.235388   -0.188840
   5 C     6.0000    0    12.011   -9.061620    3.404021    0.848110
   6 C     6.0000    0    12.011  -10.250118    4.868342   -1.298306
   7 C     6.0000    0    12.011  -12.995955    4.057708   -1.762512
   8 H     1.0000    0     1.008   -9.155794    4.500351   -3.028437
   9 H     1.0000    0     1.008  -10.142975    6.900528   -0.922375
  10 H     1.0000    0     1.008  -13.764394    5.040676   -3.416454
  11 H     1.0000    0     1.008  -14.163239    4.576663   -0.121417
  12 O     8.0000    0    15.999  -15.713169    0.416434   -2.659930
  13 H     1.0000    0     1.008  -12.100883    0.680985   -3.854604
  14 C     6.0000    0    12.011   -7.512836   -1.082133    0.917181
  15 C     6.0000    0    12.011   -7.884562    4.550780    2.769729
  16 H     1.0000    0     1.008   -7.083675    3.477658    4.325946
  17 H     1.0000    0     1.008   -7.715774    6.597727    2.835677
  18 C     6.0000    0    12.011   -4.858297   -0.544012    1.255808
  19 H     1.0000    0     1.008   -8.062108   -3.058444    0.748024
  20 C     6.0000    0    12.011   -3.003493   -2.254256    1.639320
  21 H     1.0000    0     1.008   -4.325403    1.439052    1.167184
  22 C     6.0000    0    12.011   -3.367604   -5.066473    1.914933
  23 C     6.0000    0    12.011   -1.648902   -6.564849    0.106531
  24 H     1.0000    0     1.008   -5.336413   -5.633248    1.645991
  25 H     1.0000    0     1.008   -2.859879   -5.583415    3.867159
  26 C     6.0000    0    12.011    1.126816   -5.737345    0.257251
  27 H     1.0000    0     1.008   -2.342508   -6.335970   -1.834120
  28 H     1.0000    0     1.008   -1.794419   -8.585025    0.547881
  29 C     6.0000    0    12.011    1.424075   -2.877994   -0.136956
  30 H     1.0000    0     1.008    2.220348   -6.809732   -1.133362
  31 H     1.0000    0     1.008    1.886250   -6.223735    2.131083
  32 C     6.0000    0    12.011   -0.275814   -1.532826    1.868309
  33 H     1.0000    0     1.008    0.380676   -2.294105    3.700407
  34 C     6.0000    0    12.011    0.544291    1.227284    1.751897
  35 H     1.0000    0     1.008  -16.726986    0.859148   -1.206513
  36 C     6.0000    0    12.011    3.421310    1.068770    1.239253
  37 H     1.0000    0     1.008    0.094084    2.250170    3.493555
  38 H     1.0000    0     1.008   -0.412443    2.211496    0.201721
  39 C     6.0000    0    12.011    4.032766   -1.739295    0.589450
  40 H     1.0000    0     1.008    4.526143    1.698219    2.870746
  41 H     1.0000    0     1.008    3.945335    2.300562   -0.342981
  42 H     1.0000    0     1.008    4.630506   -2.705950    2.334283
  43 C     6.0000    0    12.011    6.253873   -1.973430   -1.299948
  44 C     6.0000    0    12.011    0.663431   -2.110320   -2.827307
  45 H     1.0000    0     1.008   -1.358410   -2.401479   -3.149016
  46 H     1.0000    0     1.008    1.699822   -3.227723   -4.228396
  47 H     1.0000    0     1.008    1.064598   -0.114561   -3.194542
  48 H     1.0000    0     1.008    5.692305   -0.944029   -3.022761
  49 C     6.0000    0    12.011    6.850807   -4.700339   -2.037466
  50 C     6.0000    0    12.011    8.512313   -0.591942   -0.226717
  51 C     6.0000    0    12.011   10.667585   -1.640321    0.555667
  52 H     1.0000    0     1.008    8.278903    1.445829   -0.056046
  53 H     1.0000    0     1.008   10.888132   -3.680380    0.402652
  54 C     6.0000    0    12.011   12.914986   -0.264028    1.646452
  55 C     6.0000    0    12.011   12.314198    2.456675    2.417165
  56 C     6.0000    0    12.011   15.213226   -0.398230   -0.181178
  57 H     1.0000    0     1.008   13.483975   -1.308862    3.360772
  58 H     1.0000    0     1.008   14.683398    0.663352   -1.891972
  59 C     6.0000    0    12.011   15.830916   -3.118855   -0.956697
  60 C     6.0000    0    12.011   17.567530    0.831540    0.971820
  61 H     1.0000    0     1.008   10.599894    2.531872    3.573663
  62 H     1.0000    0     1.008   12.016697    3.656763    0.753615
  63 H     1.0000    0     1.008   13.853624    3.277254    3.522133
  64 H     1.0000    0     1.008   17.543410   -3.165519   -2.118583
  65 H     1.0000    0     1.008   14.306980   -3.987534   -2.049971
  66 H     1.0000    0     1.008   16.171426   -4.294405    0.718665
  67 H     1.0000    0     1.008   18.035669   -0.064010    2.783879
  68 H     1.0000    0     1.008   17.321582    2.856544    1.300526
  69 H     1.0000    0     1.008   19.193663    0.595636   -0.287460
  70 H     1.0000    0     1.008    8.583482   -4.786657   -3.167138
  71 H     1.0000    0     1.008    5.327140   -5.513779   -3.166125
  72 H     1.0000    0     1.008    7.114110   -5.896930   -0.366677

--------------------------------
INTERNAL COORDINATES (ANGSTROEM)
--------------------------------
 C      0   0   0     0.000000000000     0.00000000     0.00000000
 C      1   0   0     1.510563152910     0.00000000     0.00000000
 C      2   1   0     1.533489794316   111.72289464     0.00000000
 H      2   1   3     1.103353372148   109.41939973   241.45002926
 H      2   1   3     1.095533850904   110.68401921   122.86607887
 C      1   2   3     1.478359527698   114.22855408    50.40515544
 C      6   1   2     1.511990503820   114.50243147   312.27532197
 C      3   2   1     1.524356920676   110.30932326   304.92222782
 H      7   6   1     1.100677989885   108.38185351   289.71464724
 H      7   6   1     1.095100951223   110.19808279   172.55954309
 H      8   3   2     1.096336137798   109.72165079   179.23937878
 H      8   3   2     1.100517636195   108.66732466   296.71014641
 O      3   2   1     1.433595077007   111.20888274   180.21363932
 H      3   2   1     1.099059556737   109.02150964    65.03329165
 C      1   2   3     1.354110871968   120.85368625   232.50832514
 C      6   1   2     1.338006795500   123.31013212   130.06168039
 H     16   6   1     1.086402744886   121.37411768     0.67948040
 H     16   6   1     1.087434008735   120.95730460   181.36793916
 C     15   1   2     1.444452142092   126.47865764   175.01642281
 H     15   1   2     1.089143849229   116.14187581   357.80446059
 C     19  15   1     1.350419454530   126.39564603   175.66776098
 H     19  15   1     1.087632814658   115.91285667   354.91559737
 C     21  19  15     1.507654079190   125.67332794   356.83845697
 C     23  21  19     1.540022405271   111.87737617   127.95128974
 H     23  21  19     1.093461841522   112.32872407     3.77779568
 H     23  21  19     1.101934494633   107.73240409   246.63488586
 C     24  23  21     1.534804544294   112.70619778    50.65464951
 H     24  23  21     1.097274190671   109.09838049   288.52857326
 H     24  23  21     1.096951996626   109.14760374   172.57507972
 C     27  24  23     1.535494100414   111.84718179   306.23162858
 H     27  24  23     1.094723350665   108.84768712   182.67399096
 H     27  24  23     1.100454831113   109.24387344    66.22989714
 C     21  19  15     1.497967195823   122.80084066   177.45184958
 H     33  21  19     1.105854893295   106.30711463   124.08482089
 C     33  21  19     1.524942475417   121.00135857     1.78860587
 H     13   3   2     0.966562766072   107.54874791    62.64895454
 C     35  33  21     1.548706336430   103.58945181   196.64150720
 H     35  33  21     1.095071226787   112.18024835    74.65645831
 H     35  33  21     1.095673186222   110.73387744   315.01708499
 C     30  27  24     1.554517865691   116.06269790   166.22474299
 H     37  35  33     1.094595457205   111.74216332   248.93106015
 H     37  35  33     1.096735170024   110.49295755   130.37439654
 H     40  30  27     1.101929186425   106.38956766   320.58901500
 C     40  30  27     1.548054180464   118.91466333    80.79596596
 C     30  27  24     1.534238739027   111.10677987   294.40388905
 H     45  30  27     1.094272888069   111.32121027    66.34370176
 H     45  30  27     1.095504875794   110.71730371   306.25607097
 H     45  30  27     1.094623306956   111.67386665   186.28895020
 H     44  40  30     1.102812347337   106.84573530    62.07368742
 C     44  40  30     1.527874442148   113.42449093   303.03610338
 C     44  40  30     1.511714702508   108.59609426   176.64104698
 C     51  44  40     1.334158010291   126.25082664   112.56836762
 H     51  44  40     1.089144074551   114.85306833   294.22855034
 H     52  51  44     1.088858316711   118.73922052     1.04035505
 C     52  51  44     1.509296905265   126.27255885   180.51917877
 C     55  52  51     1.529786359478   113.10029964    14.36157250
 C     55  52  51     1.555469966175   110.87104985   247.88055362
 H     55  52  51     1.104234452829   106.70452932   132.95581489
 H     57  55  52     1.101717101752   106.77825782    65.45797193
 C     57  55  52     1.532310719249   112.09884091   307.06061845
 C     57  55  52     1.532284177812   111.63785594   183.91053966
 H     56  55  52     1.095023574134   110.81612992    49.27556096
 H     56  55  52     1.096829970843   111.14734301   289.20512401
 H     56  55  52     1.092739659839   111.20558937   169.04264025
 H     60  57  55     1.095383039420   110.36430775   184.49250069
 H     60  57  55     1.093776340448   112.28749849    64.35197799
 H     60  57  55     1.097925085851   110.55397293   303.58946869
 H     61  57  55     1.097927763940   110.35923094    56.95572694
 H     61  57  55     1.093385422218   112.50727419   296.10696167
 H     61  57  55     1.095504997072   110.36789275   175.94270170
 H     50  44  40     1.095508484682   110.59777942   187.60514289
 H     50  44  40     1.091840001006   111.06361521    68.14854645
 H     50  44  40     1.096392482691   111.45365820   307.80750619

---------------------------
INTERNAL COORDINATES (A.U.)
---------------------------
 C      0   0   0     0.000000000000     0.00000000     0.00000000
 C      1   0   0     2.854550666993     0.00000000     0.00000000
 C      2   1   0     2.897875740421   111.72289464     0.00000000
 H      2   1   3     2.085035702298   109.41939973   241.45002926
 H      2   1   3     2.070258948648   110.68401921   122.86607887
 C      1   2   3     2.793694634822   114.22855408    50.40515544
 C      6   1   2     2.857247969310   114.50243147   312.27532197
 C      3   2   1     2.880617110424   110.30932326   304.92222782
 H      7   6   1     2.079979962518   108.38185351   289.71464724
 H      7   6   1     2.069440886809   110.19808279   172.55954309
 H      8   3   2     2.071775051160   109.72165079   179.23937878
 H      8   3   2     2.079676937959   108.66732466   296.71014641
 O      3   2   1     2.709102082482   111.20888274   180.21363932
 H      3   2   1     2.076921567102   109.02150964    65.03329165
 C      1   2   3     2.558898702984   120.85368625   232.50832514
 C      6   1   2     2.528466408820   123.31013212   130.06168039
 H     16   6   1     2.053003658975   121.37411768     0.67948040
 H     16   6   1     2.054952465221   120.95730460   181.36793916
 C     15   1   2     2.729618962110   126.47865764   175.01642281
 H     15   1   2     2.058183595487   116.14187581   357.80446059
 C     19  15   1     2.551922934982   126.39564603   175.66776098
 H     19  15   1     2.055328153969   115.91285667   354.91559737
 C     21  19  15     2.849053314359   125.67332794   356.83845697
 C     23  21  19     2.910220586064   111.87737617   127.95128974
 H     23  21  19     2.066343418370   112.32872407     3.77779568
 H     23  21  19     2.082354412378   107.73240409   246.63488586
 C     24  23  21     2.900360257813   112.70619778    50.65464951
 H     24  23  21     2.073547714189   109.09838049   288.52857326
 H     24  23  21     2.072938855681   109.14760374   172.57507972
 C     27  24  23     2.901663330034   111.84718179   306.23162858
 H     27  24  23     2.068727325165   108.84768712   182.67399096
 H     27  24  23     2.079558253555   109.24387344    66.22989714
 C     21  19  15     2.830747757703   122.80084066   177.45184958
 H     33  21  19     2.089762892184   106.30711463   124.08482089
 C     33  21  19     2.881723648521   121.00135857     1.78860587
 H     13   3   2     1.826538919122   107.54874791    62.64895454
 C     35  33  21     2.926630837721   103.58945181   196.64150720
 H     35  33  21     2.069384715765   112.18024835    74.65645831
 H     35  33  21     2.070522254241   110.73387744   315.01708499
 C     30  27  24     2.937613036445   116.06269790   166.22474299
 H     37  35  33     2.068485641552   111.74216332   248.93106015
 H     37  35  33     2.072529112785   110.49295755   130.37439654
 H     40  30  27     2.082344381318   106.38956766   320.58901500
 C     40  30  27     2.925398441548   118.91466333    80.79596596
 C     30  27  24     2.899291040814   111.10677987   294.40388905
 H     45  30  27     2.067876074225   111.32121027    66.34370176
 H     45  30  27     2.070204193626   110.71730371   306.25607097
 H     45  30  27     2.068538269955   111.67386665   186.28895020
 H     44  40  30     2.084013313575   106.84573530    62.07368742
 C     44  40  30     2.887264262677   113.42449093   303.03610338
 C     44  40  30     2.856726780362   108.59609426   176.64104698
 C     51  44  40     2.521193258828   126.25082664   112.56836762
 H     51  44  40     2.058184021284   114.85306833   294.22855034
 H     52  51  44     2.057644017227   118.73922052     1.04035505
 C     52  51  44     2.852157805726   126.27255885   180.51917877
 C     55  52  51     2.890877262822   113.10029964    14.36157250
 C     55  52  51     2.939412245610   110.87104985   247.88055362
 H     55  52  51     2.086700703487   106.70452932   132.95581489
 H     57  55  52     2.081943599369   106.77825782    65.45797193
 C     57  55  52     2.895647611453   112.09884091   307.06061845
 C     57  55  52     2.895597455406   111.63785594   183.91053966
 H     56  55  52     2.069294665301   110.81612992    49.27556096
 H     56  55  52     2.072708260370   111.14734301   289.20512401
 H     56  55  52     2.064978692770   111.20558937   169.04264025
 H     60  57  55     2.069973956246   110.36430775   184.49250069
 H     60  57  55     2.066937735210   112.28749849    64.35197799
 H     60  57  55     2.074777727821   110.55397293   303.58946869
 H     61  57  55     2.074782788675   110.35923094    56.95572694
 H     61  57  55     2.066199006814   112.50727419   296.10696167
 H     61  57  55     2.070204422808   110.36789275   175.94270170
 H     50  44  40     2.070211013436   110.59777942   187.60514289
 H     50  44  40     2.063278583961   111.06361521    68.14854645
 H     50  44  40     2.071881527576   111.45365820   307.80750619

---------------------
BASIS SET INFORMATION
---------------------
There are 3 groups of distinct atoms

 Group   1 Type C   : 7s4p contracted to 4s3p pattern {4111/211}
 Group   2 Type H   : 5s contracted to 3s pattern {311}
 Group   3 Type O   : 7s4p contracted to 4s3p pattern {4111/211}

Atom   0C    basis set group =>   1
Atom   1C    basis set group =>   1
Atom   2C    basis set group =>   1
Atom   3H    basis set group =>   2
Atom   4H    basis set group =>   2
Atom   5C    basis set group =>   1
Atom   6C    basis set group =>   1
Atom   7C    basis set group =>   1
Atom   8H    basis set group =>   2
Atom   9H    basis set group =>   2
Atom  10H    basis set group =>   2
Atom  11H    basis set group =>   2
Atom  12O    basis set group =>   3
Atom  13H    basis set group =>   2
Atom  14C    basis set group =>   1
Atom  15C    basis set group =>   1
Atom  16H    basis set group =>   2
Atom  17H    basis set group =>   2
Atom  18C    basis set group =>   1
Atom  19H    basis set group =>   2
Atom  20C    basis set group =>   1
Atom  21H    basis set group =>   2
Atom  22C    basis set group =>   1
Atom  23C    basis set group =>   1
Atom  24H    basis set group =>   2
Atom  25H    basis set group =>   2
Atom  26C    basis set group =>   1
Atom  27H    basis set group =>   2
Atom  28H    basis set group =>   2
Atom  29C    basis set group =>   1
Atom  30H    basis set group =>   2
Atom  31H    basis set group =>   2
Atom  32C    basis set group =>   1
Atom  33H    basis set group =>   2
Atom  34C    basis set group =>   1
Atom  35H    basis set group =>   2
Atom  36C    basis set group =>   1
Atom  37H    basis set group =>   2
Atom  38H    basis set group =>   2
Atom  39C    basis set group =>   1
Atom  40H    basis set group =>   2
Atom  41H    basis set group =>   2
Atom  42H    basis set group =>   2
Atom  43C    basis set group =>   1
Atom  44C    basis set group =>   1
Atom  45H    basis set group =>   2
Atom  46H    basis set group =>   2
Atom  47H    basis set group =>   2
Atom  48H    basis set group =>   2
Atom  49C    basis set group =>   1
Atom  50C    basis set group =>   1
Atom  51C    basis set group =>   1
Atom  52H    basis set group =>   2
Atom  53H    basis set group =>   2
Atom  54C    basis set group =>   1
Atom  55C    basis set group =>   1
Atom  56C    basis set group =>   1
Atom  57H    basis set group =>   2
Atom  58H    basis set group =>   2
Atom  59C    basis set group =>   1
Atom  60C    basis set group =>   1
Atom  61H    basis set group =>   2
Atom  62H    basis set group =>   2
Atom  63H    basis set group =>   2
Atom  64H    basis set group =>   2
Atom  65H    basis set group =>   2
Atom  66H    basis set group =>   2
Atom  67H    basis set group =>   2
Atom  68H    basis set group =>   2
Atom  69H    basis set group =>   2
Atom  70H    basis set group =>   2
Atom  71H    basis set group =>   2
Atom  72H    basis set group =>   2

-------------------------
BASIS SET IN INPUT FORMAT
-------------------------

 # Basis set for element : H 
 NewGTO H 
 S 3 
   1    1357.7500000000      0.0012928364
   2      54.3100000000      0.0588280685
   3       4.3448000000      0.9761499708
 S 1 
   1       0.6604910000      1.0000000000
 S 1 
   1       0.1366870000      1.0000000000
  end;

 # Basis set for element : C 
 NewGTO C 
 S 4 
   1  139534.0000000000      0.0001655246
   2    5581.3600000000      0.0074486101
   3     446.5090000000      0.1285821065
   4      67.4620000000      0.9218029311
 S 1 
   1      15.0674000000      1.0000000000
 S 1 
   1       3.9387600000      1.0000000000
 S 1 
   1       0.2999150000      1.0000000000
 P 2 
   1      28.3900000000      0.0816325586
   2       4.3676900000      0.9660360576
 P 1 
   1       0.8698170000      1.0000000000
 P 1 
   1       0.1889340000      1.0000000000
  end;

 # Basis set for element : O 
 NewGTO O 
 S 4 
   1  253789.0000000000      0.0001641076
   2   10151.6000000000      0.0074010921
   3     812.1250000000      0.1277711901
   4     122.6930000000      0.9223372164
 S 1 
   1      27.5608000000      1.0000000000
 S 1 
   1       7.3172600000      1.0000000000
 S 1 
   1       0.5792400000      1.0000000000
 P 2 
   1      53.4157000000      0.0793786106
   2       8.2177900000      0.9670506337
 P 1 
   1       1.6754400000      1.0000000000
 P 1 
   1       0.3506720000      1.0000000000
  end;

---------------------------------
AUXILIARY/J BASIS SET INFORMATION
---------------------------------
There are 3 groups of distinct atoms

 Group   1 Type C   : 12s5p4d2f1g contracted to 6s4p3d1f1g pattern {711111/2111/211/2/1}
 Group   2 Type H   : 5s2p1d contracted to 3s1p1d pattern {311/2/1}
 Group   3 Type O   : 12s5p4d2f1g contracted to 6s4p3d1f1g pattern {711111/2111/211/2/1}

Atom   0C    basis set group =>   1
Atom   1C    basis set group =>   1
Atom   2C    basis set group =>   1
Atom   3H    basis set group =>   2
Atom   4H    basis set group =>   2
Atom   5C    basis set group =>   1
Atom   6C    basis set group =>   1
Atom   7C    basis set group =>   1
Atom   8H    basis set group =>   2
Atom   9H    basis set group =>   2
Atom  10H    basis set group =>   2
Atom  11H    basis set group =>   2
Atom  12O    basis set group =>   3
Atom  13H    basis set group =>   2
Atom  14C    basis set group =>   1
Atom  15C    basis set group =>   1
Atom  16H    basis set group =>   2
Atom  17H    basis set group =>   2
Atom  18C    basis set group =>   1
Atom  19H    basis set group =>   2
Atom  20C    basis set group =>   1
Atom  21H    basis set group =>   2
Atom  22C    basis set group =>   1
Atom  23C    basis set group =>   1
Atom  24H    basis set group =>   2
Atom  25H    basis set group =>   2
Atom  26C    basis set group =>   1
Atom  27H    basis set group =>   2
Atom  28H    basis set group =>   2
Atom  29C    basis set group =>   1
Atom  30H    basis set group =>   2
Atom  31H    basis set group =>   2
Atom  32C    basis set group =>   1
Atom  33H    basis set group =>   2
Atom  34C    basis set group =>   1
Atom  35H    basis set group =>   2
Atom  36C    basis set group =>   1
Atom  37H    basis set group =>   2
Atom  38H    basis set group =>   2
Atom  39C    basis set group =>   1
Atom  40H    basis set group =>   2
Atom  41H    basis set group =>   2
Atom  42H    basis set group =>   2
Atom  43C    basis set group =>   1
Atom  44C    basis set group =>   1
Atom  45H    basis set group =>   2
Atom  46H    basis set group =>   2
Atom  47H    basis set group =>   2
Atom  48H    basis set group =>   2
Atom  49C    basis set group =>   1
Atom  50C    basis set group =>   1
Atom  51C    basis set group =>   1
Atom  52H    basis set group =>   2
Atom  53H    basis set group =>   2
Atom  54C    basis set group =>   1
Atom  55C    basis set group =>   1
Atom  56C    basis set group =>   1
Atom  57H    basis set group =>   2
Atom  58H    basis set group =>   2
Atom  59C    basis set group =>   1
Atom  60C    basis set group =>   1
Atom  61H    basis set group =>   2
Atom  62H    basis set group =>   2
Atom  63H    basis set group =>   2
Atom  64H    basis set group =>   2
Atom  65H    basis set group =>   2
Atom  66H    basis set group =>   2
Atom  67H    basis set group =>   2
Atom  68H    basis set group =>   2
Atom  69H    basis set group =>   2
Atom  70H    basis set group =>   2
Atom  71H    basis set group =>   2
Atom  72H    basis set group =>   2

-------------------------------------
AUXILIARY/J BASIS SET IN INPUT FORMAT
-------------------------------------

 # Auxiliary/J basis set for element : H 
 NewAuxJGTO H 
 S 3 
   1      15.6752927000      0.1007184237
   2       3.6063578000      0.3404257499
   3       1.2080016000      0.6491996172
 S 1 
   1       0.4726794000      1.0000000000
 S 1 
   1       0.2018100000      1.0000000000
 P 2 
   1       2.0281365000      0.5596620919
   2       0.5358730000      0.5596620919
 D 1 
   1       2.2165124000      1.0000000000
  end;

 # Auxiliary/J basis set for element : C 
 NewAuxJGTO C 
 S 7 
   1    1861.0916331000      0.0134602335
   2     642.9939764000      0.0299160374
   3     235.1105725000      0.1008649584
   4      90.7028894000      0.2370970548
   5      36.7794552000      0.3924037254
   6      15.6046273000      0.3195862154
   7       6.8907294000      0.0530104441
 S 1 
   1       3.1478850000     -1.0000000000
 S 1 
   1       1.4777287000      1.0000000000
 S 1 
   1       0.7076466000      1.0000000000
 S 1 
   1       0.3430122000      1.0000000000
 S 1 
   1       0.1669453000      1.0000000000
 P 2 
   1      13.5472892000     -0.6769313712
   2       5.4669419000     -0.3779500978
 P 1 
   1       2.1751721000      1.0000000000
 P 1 
   1       0.8582194000      1.0000000000
 P 1 
   1       0.3376720000      1.0000000000
 D 2 
   1       5.9287253000     -0.3533329857
   2       1.9809209000     -0.7456525731
 D 1 
   1       0.8055417000     -1.0000000000
 D 1 
   1       0.3531244000     -1.0000000000
 F 2 
   1       1.6755626000      0.6311076882
   2       0.5997536000      0.4968166032
 G 1 
   1       1.0024600000     -1.0000000000
  end;

 # Auxiliary/J basis set for element : O 
 NewAuxJGTO O 
 S 7 
   1    2876.8216605000      0.0168151159
   2    1004.7443032000      0.0340137548
   3     369.7579954000      0.1194951309
   4     142.9442404000      0.2664627624
   5      57.8366425000      0.4202764046
   6      24.3864983000      0.2765077335
   7      10.6622662000      0.0057008815
 S 1 
   1       4.8070437000     -1.0000000000
 S 1 
   1       2.2210770000      1.0000000000
 S 1 
   1       1.0447795000      1.0000000000
 S 1 
   1       0.4968425000      1.0000000000
 S 1 
   1       0.2371384000      1.0000000000
 P 2 
   1      64.2613382000     -0.2731534179
   2      16.3006076000     -0.8168011598
 P 1 
   1       4.3550542000      1.0000000000
 P 1 
   1       1.2019554000      1.0000000000
 P 1 
   1       0.3354196000      1.0000000000
 D 2 
   1       9.2146611000     -0.4661230638
   2       2.8435251000     -0.6600908911
 D 1 
   1       0.9955759000     -1.0000000000
 D 1 
   1       0.3649441000     -1.0000000000
 F 2 
   1       2.6420115000      0.5931563945
   2       0.7345613000      0.5931563945
 G 1 
   1       1.3931000000     -1.0000000000
  end;



           ************************************************************
           *        Program running with 4 parallel MPI-processes     *
           *              working on a common directory               *
           ************************************************************
------------------------------------------------------------------------------
                           ORCA GTO INTEGRAL CALCULATION
                           -- RI-GTO INTEGRALS CHOSEN --
------------------------------------------------------------------------------
------------------------------------------------------------------------------
                   ___                                                        
                  /   \      - P O W E R E D   B Y -                         
                 /     \                                                     
                 |  |  |   _    _      __       _____    __    __             
                 |  |  |  | |  | |    /  \     |  _  \  |  |  /  |          
                  \  \/   | |  | |   /    \    | | | |  |  | /  /          
                 / \  \   | |__| |  /  /\  \   | |_| |  |  |/  /          
                |  |  |   |  __  | /  /__\  \  |    /   |      \           
                |  |  |   | |  | | |   __   |  |    \   |  |\   \          
                \     /   | |  | | |  |  |  |  | |\  \  |  | \   \       
                 \___/    |_|  |_| |__|  |__|  |_| \__\ |__|  \__/        
                                                                              
                      - O R C A' S   B I G   F R I E N D -                    
                                      &                                       
                       - I N T E G R A L  F E E D E R -                       
                                                                              
 v1 FN, 2020, v2 2021                                                         
------------------------------------------------------------------------------


Reading SHARK input file inpJ.SHARKINP.tmp ... ok
----------------------
SHARK INTEGRAL PACKAGE
----------------------

Number of atoms                             ...     73
Number of basis functions                   ...    509
Number of shells                            ...    335
Maximum angular momentum                    ...      1
Integral batch strategy                     ... SHARK/LIBINT Hybrid
RI-J (if used) integral strategy            ... SPLIT-RIJ (Revised 2003 algorithm where possible)
Printlevel                                  ...      1
Contraction scheme used                     ... SEGMENTED contraction
Coulomb Range Separation                    ... NOT USED
Exchange Range Separation                   ... NOT USED
Finite Nucleus Model                        ... NOT USED
Auxiliary Coulomb fitting basis             ... AVAILABLE
   # of basis functions in Aux-J            ...   1905
   # of shells in Aux-J                     ...    655
   Maximum angular momentum in Aux-J        ...      4
Auxiliary J/K fitting basis                 ... NOT available
Auxiliary Correlation fitting basis         ... NOT available
Auxiliary 'external' fitting basis          ... NOT available
Integral threshold                          ...     3.000000e-11
Primitive cut-off                           ...     1.000000e-12
Primitive pair pre-selection threshold      ...     1.000000e-12

Calculating pre-screening integrals         ... done (  0.0 sec) Dimension = 335
Organizing shell pair data                  ... done (  0.1 sec)
Shell pair information
Total number of shell pairs                 ...     56280
Shell pairs after pre-screening             ...     21419
Total number of primitive shell pairs       ...    145865
Primitive shell pairs kept                  ...     36882
          la=0 lb=0:  10783 shell pairs
          la=1 lb=0:   8802 shell pairs
          la=1 lb=1:   1834 shell pairs

Calculating one electron integrals          ... done (  0.0 sec)
Calculating RI/J V-Matrix + Cholesky decomp.... done (  0.2 sec)
Calculating Nuclear repulsion               ... done (  0.0 sec) ENN=   2745.542728537786 Eh

SHARK setup successfully completed in   0.4 seconds

Maximum memory used throughout the entire GTOINT-calculation: 46.0 MB


           ************************************************************
           *        Program running with 4 parallel MPI-processes     *
           *              working on a common directory               *
           ************************************************************
-------------------------------------------------------------------------------
                                 ORCA SCF
-------------------------------------------------------------------------------

------------
SCF SETTINGS
------------
Hamiltonian:
 Density Functional     Method          .... DFT(GTOs)
 Exchange Functional    Exchange        .... PBE
   PBE kappa parameter   XKappa         ....  0.804000
   PBE mue parameter    XMuePBE         ....  0.219520
 Correlation Functional Correlation     .... PBE
   PBE beta parameter  CBetaPBE         ....  0.066725
 LDA part of GGA corr.  LDAOpt          .... PW91-LDA
 Gradients option       PostSCFGGA      .... off
 Hybrid DFT is turned on
   Fraction HF Exchange ScalHFX         ....  0.250000
   Scaling of DF-GGA-X  ScalDFX         ....  0.750000
   Scaling of DF-GGA-C  ScalDFC         ....  1.000000
   Scaling of DF-LDA-C  ScalLDAC        ....  1.000000
   Perturbative correction              ....  0.000000
   Density functional embedding theory  .... OFF
   NL short-range parameter             ....  6.900000
 RI-approximation to the Coulomb term is turned on
   Number of AuxJ basis functions       .... 1905
   RIJ-COSX (HFX calculated with COS-X)).... on


General Settings:
 Integral files         IntName         .... inpJ
 Hartree-Fock type      HFTyp           .... RHF
 Total Charge           Charge          ....    0
 Multiplicity           Mult            ....    1
 Number of Electrons    NEL             ....  220
 Basis Dimension        Dim             ....  509
 Nuclear Repulsion      ENuc            ....   2745.5427285378 Eh

Convergence Acceleration:
 DIIS                   CNVDIIS         .... on
   Start iteration      DIISMaxIt       ....    12
   Startup error        DIISStart       ....  0.200000
   # of expansion vecs  DIISMaxEq       ....     5
   Bias factor          DIISBfac        ....   1.050
   Max. coefficient     DIISMaxC        ....  10.000
 Trust-Rad. Augm. Hess. CNVTRAH         .... auto
   Auto Start mean grad. ratio tolernc. ....  1.125000
   Auto Start start iteration           ....    20
   Auto Start num. interpolation iter.  ....    10
   Max. Number of Micro iterations      ....    16
   Max. Number of Macro iterations      .... Maxiter - #DIIS iter
   Number of Davidson start vectors     ....     2
   Converg. threshold I  (grad. norm)   ....   1.000e-04
   Converg. threshold II (energy diff.) ....   1.000e-07
   Grad. Scal. Fac. for Micro threshold ....   0.100
   Minimum threshold for Micro iter.    ....   0.010
   NR start threshold (gradient norm)   ....   0.001
   Initial trust radius                 ....   0.400
   Minimum AH scaling param. (alpha)    ....   1.000
   Maximum AH scaling param. (alpha)    .... 1000.000
   Orbital update algorithm             .... Taylor
   White noise on init. David. guess    .... on
   Maximum white noise                  ....   0.010
   Quad. conv. algorithm                .... NR
 SOSCF                  CNVSOSCF        .... off
 Level Shifting         CNVShift        .... on
   Level shift para.    LevelShift      ....    0.2500
   Turn off err/grad.   ShiftErr        ....    0.0010
 Zerner damping         CNVZerner       .... off
 Static damping         CNVDamp         .... on
   Fraction old density DampFac         ....    0.7000
   Max. Damping (<1)    DampMax         ....    0.9800
   Min. Damping (>=0)   DampMin         ....    0.0000
   Turn off err/grad.   DampErr         ....    0.1000
 Fernandez-Rico         CNVRico         .... off

SCF Procedure:
 Maximum # iterations   MaxIter         ....   125
 SCF integral mode      SCFMode         .... Direct
   Integral package                     .... SHARK and LIBINT hybrid scheme
 Reset frequency        DirectResetFreq ....    20
 Integral Threshold     Thresh          ....  3.000e-11 Eh
 Primitive CutOff       TCut            ....  1.000e-12 Eh

Convergence Tolerance:
 Convergence Check Mode ConvCheckMode   .... Total+1el-Energy
 Convergence forced     ConvForced      .... 0
 Energy Change          TolE            ....  1.000e-07 Eh
 1-El. energy change                    ....  1.000e-04 Eh
 DIIS Error             TolErr          ....  1.000e-07


Diagonalization of the overlap matrix:
Smallest eigenvalue                        ... 7.562e-03
Time for diagonalization                   ...    0.036 sec
Threshold for overlap eigenvalues          ... 1.000e-08
Number of eigenvalues below threshold      ... 0
Time for construction of square roots      ...    0.028 sec
Total time needed                          ...    0.066 sec

Time for model grid setup =    0.752 sec

------------------------------
INITIAL GUESS: MODEL POTENTIAL
------------------------------
Loading Hartree-Fock densities                     ... done
Calculating cut-offs                               ... done
Initializing the effective Hamiltonian             ... done
Setting up the integral package (SHARK)            ... done
Starting the Coulomb interaction                   ... done (   0.3 sec)
Reading the grid                                   ... done
Mapping shells                                     ... done
Starting the XC term evaluation                    ... done (   0.1 sec)
  promolecular density results
     # of electrons  =    219.975241093
     EX              =   -164.434368518
     EC              =     -7.327164842
     EX+EC           =   -171.761533360
Transforming the Hamiltonian                       ... done (   0.0 sec)
Diagonalizing the Hamiltonian                      ... done (   0.0 sec)
Back transforming the eigenvectors                 ... done (   0.0 sec)
Now organizing SCF variables                       ... done
                      ------------------
                      INITIAL GUESS DONE (   1.3 sec)
                      ------------------
-------------------
DFT GRID GENERATION
-------------------

General Integration Accuracy     IntAcc      ... 4.388
Radial Grid Type                 RadialGrid  ... OptM3 with GC (2021)
Angular Grid (max. ang.)         AngularGrid ... 4 (Lebedev-302)
Angular grid pruning method      GridPruning ... 4 (adaptive)
Weight generation scheme         WeightScheme... Becke
Basis function cutoff            BFCut       ... 1.0000e-11
Integration weight cutoff        WCut        ... 1.0000e-14
Angular grids for H and He will be reduced by one unit
Partially contracted basis set               ... off
Rotationally invariant grid construction     ... off

Total number of grid points                  ...   309922
Total number of batches                      ...     4881
Average number of points per batch           ...       63
Average number of grid points per atom       ...     4246
Time for grid setup =    2.866 sec

--------------------
COSX GRID GENERATION
--------------------

GRIDX 1
-------
General Integration Accuracy     IntAcc      ... 3.816
Radial Grid Type                 RadialGrid  ... OptM3 with GC (2021)
Angular Grid (max. ang.)         AngularGrid ... 1 (Lebedev-50)
Angular grid pruning method      GridPruning ... 4 (adaptive)
Weight generation scheme         WeightScheme... Becke
Basis function cutoff            BFCut       ... 1.0000e-11
Integration weight cutoff        WCut        ... 1.0000e-14
Angular grids for H and He will be reduced by one unit
Partially contracted basis set               ... on
Rotationally invariant grid construction     ... off

Total number of grid points                  ...    39438
Total number of batches                      ...      659
Average number of points per batch           ...       59
Average number of grid points per atom       ...      540
UseSFitting                                  ... on

GRIDX 2
-------
General Integration Accuracy     IntAcc      ... 4.020
Radial Grid Type                 RadialGrid  ... OptM3 with GC (2021)
Angular Grid (max. ang.)         AngularGrid ... 2 (Lebedev-110)
Angular grid pruning method      GridPruning ... 4 (adaptive)
Weight generation scheme         WeightScheme... Becke
Basis function cutoff            BFCut       ... 1.0000e-11
Integration weight cutoff        WCut        ... 1.0000e-14
Angular grids for H and He will be reduced by one unit
Partially contracted basis set               ... on
Rotationally invariant grid construction     ... off

Total number of grid points                  ...    81514
Total number of batches                      ...     1314
Average number of points per batch           ...       62
Average number of grid points per atom       ...     1117
UseSFitting                                  ... on

GRIDX 3
-------
General Integration Accuracy     IntAcc      ... 4.338
Radial Grid Type                 RadialGrid  ... OptM3 with GC (2021)
Angular Grid (max. ang.)         AngularGrid ... 3 (Lebedev-194)
Angular grid pruning method      GridPruning ... 4 (adaptive)
Weight generation scheme         WeightScheme... Becke
Basis function cutoff            BFCut       ... 1.0000e-11
Integration weight cutoff        WCut        ... 1.0000e-14
Angular grids for H and He will be reduced by one unit
Partially contracted basis set               ... on
Rotationally invariant grid construction     ... off

Total number of grid points                  ...   176560
Total number of batches                      ...     2793
Average number of points per batch           ...       63
Average number of grid points per atom       ...     2419
UseSFitting                                  ... on

Time for X-Grid setup             =    3.082 sec


--------------------
CPCM SOLVATION MODEL
--------------------
CPCM parameters:
  Epsilon                                         ...       4.9000
  Refrac                                          ...       1.4500
  Rsolv                                           ...       1.3000
  Surface type                                    ... GAUSSIAN VDW
  Epsilon function type                           ...         CPCM
Radii:
 Radius for C  used is    3.8550 Bohr (=   2.0400 Ang.)
 Radius for H  used is    2.4944 Bohr (=   1.3200 Ang.)
 Radius for O  used is    3.4469 Bohr (=   1.8240 Ang.)
Calculating surface                               ...        done! (  0.0s)
GEPOL surface points                              ...         3624
GEPOL Volume                                      ...    3584.5581
GEPOL Surface-area                                ...    1780.6205
Calculating surface distance matrix               ...        done! (  0.1s)
Performing Cholesky decomposition & store         ...        done! (  0.5s)
Overall time for CPCM initialization              ...                 0.6s
--------------
SCF ITERATIONS
--------------
ITER       Energy         Delta-E        Max-DP      RMS-DP      [F,P]     Damp
               ***  Starting incremental Fock matrix formation  ***

  HOMO= 109 E= -3.886 eV LUMO=  7.786 eV gap=  11.672 eV
  0  -1165.0079584002   0.000000000000 0.09753221  0.00106104  0.1936581 0.7000

  HOMO= 109 E= -4.736 eV LUMO=  7.089 eV gap=  11.824 eV
  1  -1165.2260631886  -0.218104788324 0.06545919  0.00078162  0.0942104 0.7000
                               ***Turning on DIIS***

  HOMO= 109 E= -5.336 eV LUMO=  6.530 eV gap=  11.866 eV
  2  -1165.3268938316  -0.100830643014 0.10352357  0.00138772  0.0376730 0.0000

  HOMO= 109 E= -5.903 eV LUMO=  5.987 eV gap=  11.890 eV
  3  -1165.4710277889  -0.144133957314 0.05153900  0.00056809  0.0453728 0.0000

  HOMO= 109 E= -5.983 eV LUMO=  5.908 eV gap=  11.890 eV
  4  -1165.5064811053  -0.035453316410 0.01164160  0.00013474  0.0062026 0.0000

  HOMO= 109 E= -5.930 eV LUMO=  5.968 eV gap=  11.898 eV
  5  -1165.5073537554  -0.000872650135 0.00286318  0.00003827  0.0044596 0.0000

  HOMO= 109 E= -5.916 eV LUMO=  5.982 eV gap=  11.898 eV
  6  -1165.5074306170  -0.000076861509 0.00116132  0.00001162  0.0010707 0.0000

  HOMO= 109 E= -5.918 eV LUMO= -0.822 eV gap=   5.095 eV
  7  -1165.5074351174  -0.000004500442 0.00051039  0.00000597  0.0002328 0.0000
               *** Restarting incremental Fock matrix formation ***
                                   *** Resetting DIIS ***

  HOMO= 109 E= -5.917 eV LUMO= -0.821 eV gap=   5.096 eV
  8  -1165.5076227392  -0.000187621781 0.00040425  0.00000276  0.0001132 0.0000

  HOMO= 109 E= -5.917 eV LUMO= -0.821 eV gap=   5.096 eV
  9  -1165.5076227824  -0.000000043223 0.00012904  0.00000125  0.0001428 0.0000

  HOMO= 109 E= -5.918 eV LUMO= -0.821 eV gap=   5.096 eV
 10  -1165.5076228832  -0.000000100840 0.00006395  0.00000040  0.0000406 0.0000

  HOMO= 109 E= -5.917 eV LUMO= -0.821 eV gap=   5.096 eV
 11  -1165.5076229127  -0.000000029497 0.00002433  0.00000017  0.0000216 0.0000

  HOMO= 109 E= -5.917 eV LUMO= -0.821 eV gap=   5.096 eV
 12  -1165.5076229000   0.000000012731 0.00000712  0.00000005  0.0000036 0.0000
                 **** Energy Check signals convergence ****

               *****************************************************
               *                     SUCCESS                       *
               *           SCF CONVERGED AFTER  13 CYCLES          *
               *****************************************************

Old exchange energy                            =    -42.067942944 Eh
New exchange energy                            =    -42.067994471 Eh
Exchange energy change after final integration =     -0.000051527 Eh
Total energy after final integration           =  -1165.507674431 Eh
Final COS-X integration done in                =    13.146 sec

----------------
TOTAL SCF ENERGY
----------------

Total Energy       :        -1165.50767443 Eh          -31715.07618 eV

Components:
Nuclear Repulsion  :         2745.54272854 Eh           74710.01583 eV
Electronic Energy  :        -3911.05040297 Eh         -106425.09201 eV
One Electron Energy:        -7033.09114629 Eh         -191380.13967 eV
Two Electron Energy:         3122.04074332 Eh           84955.04766 eV
Max COSX asymmetry :            0.00000291 Eh               0.00008 eV
CPCM Dielectric    :           -0.01539246 Eh              -0.41885 eV

Virial components:
Potential Energy   :        -2322.40973443 Eh          -63195.98170 eV
Kinetic Energy     :         1156.90206000 Eh           31480.90551 eV
Virial Ratio       :            2.00743850


DFT components:
N(Alpha)           :      110.000272150811 electrons
N(Beta)            :      110.000272150811 electrons
N(Total)           :      220.000544301622 electrons
E(X)               :     -125.746951083491 Eh       
E(C)               :       -7.327661055850 Eh       
E(XC)              :     -133.074612139340 Eh       
DFET-embed. en.    :        0.000000000000 Eh       
CPCM Solvation Model Properties:
Surface-charge          :           -0.03474113
Charge-correction       :           -0.00005649 Eh              -0.00154 eV
Free-energy (cav+disp)  :  This term is not implemented in the current solvation scheme

---------------
SCF CONVERGENCE
---------------

  Last Energy change         ...   -3.6209e-09  Tolerance :   1.0000e-07
  Last MAX-Density change    ...    0.0000e+00  Tolerance :   1.0000e-05
  Last RMS-Density change    ...    0.0000e+00  Tolerance :   1.0000e-06
  Last DIIS Error            ...    2.6102e-06  Tolerance :   1.0000e-07

             **** THE GBW FILE WAS UPDATED (inpJ.gbw) ****
             **** DENSITY inpJ.scfp WAS UPDATED ****
             **** ENERGY FILE WAS UPDATED (inpJ.en.tmp) ****
             **** THE GBW FILE WAS UPDATED (inpJ.gbw) ****
             **** DENSITY inpJ.scfp WAS UPDATED ****
----------------
ORBITAL ENERGIES
----------------

  NO   OCC          E(Eh)            E(eV) 
   0   2.0000     -19.215061      -522.8684 
   1   2.0000     -10.301343      -280.3138 
   2   2.0000     -10.269499      -279.4473 
   3   2.0000     -10.266709      -279.3714 
   4   2.0000     -10.261829      -279.2386 
   5   2.0000     -10.256432      -279.0917 
   6   2.0000     -10.253335      -279.0074 
   7   2.0000     -10.251573      -278.9595 
   8   2.0000     -10.251255      -278.9508 
   9   2.0000     -10.250047      -278.9180 
  10   2.0000     -10.249247      -278.8962 
  11   2.0000     -10.246195      -278.8131 
  12   2.0000     -10.246044      -278.8090 
  13   2.0000     -10.245575      -278.7963 
  14   2.0000     -10.243874      -278.7500 
  15   2.0000     -10.243129      -278.7297 
  16   2.0000     -10.241864      -278.6953 
  17   2.0000     -10.241719      -278.6913 
  18   2.0000     -10.241082      -278.6740 
  19   2.0000     -10.240756      -278.6651 
  20   2.0000     -10.239035      -278.6183 
  21   2.0000     -10.235168      -278.5131 
  22   2.0000     -10.234657      -278.4992 
  23   2.0000     -10.233465      -278.4667 
  24   2.0000     -10.224434      -278.2210 
  25   2.0000     -10.224361      -278.2190 
  26   2.0000     -10.224327      -278.2181 
  27   2.0000     -10.223922      -278.2071 
  28   2.0000     -10.220559      -278.1155 
  29   2.0000      -1.045822       -28.4583 
  30   2.0000      -0.900958       -24.5163 
  31   2.0000      -0.883648       -24.0453 
  32   2.0000      -0.859611       -23.3912 
  33   2.0000      -0.845787       -23.0150 
  34   2.0000      -0.822150       -22.3719 
  35   2.0000      -0.814178       -22.1549 
  36   2.0000      -0.795099       -21.6357 
  37   2.0000      -0.794798       -21.6276 
  38   2.0000      -0.776697       -21.1350 
  39   2.0000      -0.757877       -20.6229 
  40   2.0000      -0.740414       -20.1477 
  41   2.0000      -0.730523       -19.8786 
  42   2.0000      -0.714031       -19.4298 
  43   2.0000      -0.702100       -19.1051 
  44   2.0000      -0.699213       -19.0265 
  45   2.0000      -0.693923       -18.8826 
  46   2.0000      -0.669353       -18.2140 
  47   2.0000      -0.664698       -18.0874 
  48   2.0000      -0.634659       -17.2699 
  49   2.0000      -0.622018       -16.9260 
  50   2.0000      -0.619451       -16.8561 
  51   2.0000      -0.608585       -16.5604 
  52   2.0000      -0.597592       -16.2613 
  53   2.0000      -0.584010       -15.8917 
  54   2.0000      -0.559329       -15.2201 
  55   2.0000      -0.541311       -14.7298 
  56   2.0000      -0.532542       -14.4912 
  57   2.0000      -0.529326       -14.4037 
  58   2.0000      -0.515091       -14.0163 
  59   2.0000      -0.511070       -13.9069 
  60   2.0000      -0.505243       -13.7484 
  61   2.0000      -0.492513       -13.4020 
  62   2.0000      -0.480174       -13.0662 
  63   2.0000      -0.475990       -12.9523 
  64   2.0000      -0.473771       -12.8920 
  65   2.0000      -0.469066       -12.7639 
  66   2.0000      -0.464393       -12.6368 
  67   2.0000      -0.459011       -12.4903 
  68   2.0000      -0.457478       -12.4486 
  69   2.0000      -0.456137       -12.4121 
  70   2.0000      -0.448355       -12.2004 
  71   2.0000      -0.443931       -12.0800 
  72   2.0000      -0.435901       -11.8615 
  73   2.0000      -0.432332       -11.7644 
  74   2.0000      -0.430355       -11.7106 
  75   2.0000      -0.421824       -11.4784 
  76   2.0000      -0.416499       -11.3335 
  77   2.0000      -0.413573       -11.2539 
  78   2.0000      -0.408791       -11.1238 
  79   2.0000      -0.403889       -10.9904 
  80   2.0000      -0.401420       -10.9232 
  81   2.0000      -0.397133       -10.8065 
  82   2.0000      -0.396390       -10.7863 
  83   2.0000      -0.388189       -10.5632 
  84   2.0000      -0.386197       -10.5090 
  85   2.0000      -0.379555       -10.3282 
  86   2.0000      -0.376455       -10.2439 
  87   2.0000      -0.370349       -10.0777 
  88   2.0000      -0.367397        -9.9974 
  89   2.0000      -0.366232        -9.9657 
  90   2.0000      -0.361894        -9.8476 
  91   2.0000      -0.361056        -9.8248 
  92   2.0000      -0.350890        -9.5482 
  93   2.0000      -0.344793        -9.3823 
  94   2.0000      -0.341897        -9.3035 
  95   2.0000      -0.340400        -9.2627 
  96   2.0000      -0.335298        -9.1239 
  97   2.0000      -0.333806        -9.0833 
  98   2.0000      -0.329550        -8.9675 
  99   2.0000      -0.327195        -8.9034 
 100   2.0000      -0.326692        -8.8897 
 101   2.0000      -0.326366        -8.8809 
 102   2.0000      -0.319445        -8.6925 
 103   2.0000      -0.316069        -8.6007 
 104   2.0000      -0.311719        -8.4823 
 105   2.0000      -0.300589        -8.1794 
 106   2.0000      -0.280080        -7.6214 
 107   2.0000      -0.274748        -7.4763 
 108   2.0000      -0.254760        -6.9324 
 109   2.0000      -0.217462        -5.9174 
 110   0.0000      -0.030182        -0.8213 
 111   0.0000       0.021331         0.5804 
 112   0.0000       0.030261         0.8234 
 113   0.0000       0.082534         2.2459 
 114   0.0000       0.094121         2.5612 
 115   0.0000       0.101487         2.7616 
 116   0.0000       0.102206         2.7812 
 117   0.0000       0.107187         2.9167 
 118   0.0000       0.109996         2.9932 
 119   0.0000       0.113630         3.0920 
 120   0.0000       0.118652         3.2287 
 121   0.0000       0.119874         3.2619 
 122   0.0000       0.125827         3.4239 
 123   0.0000       0.127878         3.4797 
 124   0.0000       0.131834         3.5874 
 125   0.0000       0.138066         3.7570 
 126   0.0000       0.140454         3.8219 
 127   0.0000       0.141204         3.8424 
 128   0.0000       0.143905         3.9159 
 129   0.0000       0.150771         4.1027 
 130   0.0000       0.156389         4.2556 
 131   0.0000       0.159341         4.3359 
 132   0.0000       0.163698         4.4544 
 133   0.0000       0.164840         4.4855 
 134   0.0000       0.165848         4.5130 
 135   0.0000       0.168213         4.5773 
 136   0.0000       0.171699         4.6722 
 137   0.0000       0.174668         4.7529 
 138   0.0000       0.176228         4.7954 
 139   0.0000       0.179044         4.8720 
 140   0.0000       0.182584         4.9684 
 141   0.0000       0.184372         5.0170 
 142   0.0000       0.185414         5.0454 
 143   0.0000       0.188988         5.1426 
 144   0.0000       0.192211         5.2303 
 145   0.0000       0.195212         5.3120 
 146   0.0000       0.198641         5.4053 
 147   0.0000       0.201814         5.4917 
 148   0.0000       0.203081         5.5261 
 149   0.0000       0.206515         5.6196 
 150   0.0000       0.211833         5.7643 
 151   0.0000       0.219567         5.9747 
 152   0.0000       0.222639         6.0583 
 153   0.0000       0.225843         6.1455 
 154   0.0000       0.231759         6.3065 
 155   0.0000       0.237534         6.4636 
 156   0.0000       0.244651         6.6573 
 157   0.0000       0.246613         6.7107 
 158   0.0000       0.250036         6.8038 
 159   0.0000       0.253526         6.8988 
 160   0.0000       0.256252         6.9730 
 161   0.0000       0.258560         7.0358 
 162   0.0000       0.266530         7.2526 
 163   0.0000       0.268168         7.2972 
 164   0.0000       0.270209         7.3528 
 165   0.0000       0.272487         7.4147 
 166   0.0000       0.277589         7.5536 
 167   0.0000       0.280567         7.6346 
 168   0.0000       0.285976         7.7818 
 169   0.0000       0.294233         8.0065 
 170   0.0000       0.295595         8.0436 
 171   0.0000       0.299562         8.1515 
 172   0.0000       0.303053         8.2465 
 173   0.0000       0.306381         8.3371 
 174   0.0000       0.309102         8.4111 
 175   0.0000       0.319752         8.7009 
 176   0.0000       0.327305         8.9064 
 177   0.0000       0.336834         9.1657 
 178   0.0000       0.352999         9.6056 
 179   0.0000       0.356890         9.7115 
 180   0.0000       0.367172         9.9913 
 181   0.0000       0.379334        10.3222 
 182   0.0000       0.381095        10.3701 
 183   0.0000       0.408905        11.1269 
 184   0.0000       0.419776        11.4227 
 185   0.0000       0.463441        12.6109 
 186   0.0000       0.482377        13.1261 
 187   0.0000       0.492975        13.4145 
 188   0.0000       0.503473        13.7002 
 189   0.0000       0.521154        14.1813 
 190   0.0000       0.524476        14.2717 
 191   0.0000       0.528974        14.3941 
 192   0.0000       0.543140        14.7796 
 193   0.0000       0.553630        15.0650 
 194   0.0000       0.563264        15.3272 
 195   0.0000       0.565932        15.3998 
 196   0.0000       0.576518        15.6879 
 197   0.0000       0.583449        15.8764 
 198   0.0000       0.585971        15.9451 
 199   0.0000       0.607110        16.5203 
 200   0.0000       0.614009        16.7080 
 201   0.0000       0.625511        17.0210 
 202   0.0000       0.626785        17.0557 
 203   0.0000       0.640685        17.4339 
 204   0.0000       0.642479        17.4827 
 205   0.0000       0.648864        17.6565 
 206   0.0000       0.652124        17.7452 
 207   0.0000       0.659000        17.9323 
 208   0.0000       0.665311        18.1040 
 209   0.0000       0.667437        18.1619 
 210   0.0000       0.675271        18.3751 
 211   0.0000       0.691852        18.8263 
 212   0.0000       0.694218        18.8906 
 213   0.0000       0.699579        19.0365 
 214   0.0000       0.705557        19.1992 
 215   0.0000       0.711376        19.3575 
 216   0.0000       0.716123        19.4867 
 217   0.0000       0.725226        19.7344 
 218   0.0000       0.726899        19.7799 
 219   0.0000       0.729109        19.8401 
 220   0.0000       0.732616        19.9355 
 221   0.0000       0.738753        20.1025 
 222   0.0000       0.742235        20.1973 
 223   0.0000       0.743467        20.2308 
 224   0.0000       0.747646        20.3445 
 225   0.0000       0.749771        20.4023 
 226   0.0000       0.755427        20.5562 
 227   0.0000       0.760792        20.7022 
 228   0.0000       0.762240        20.7416 
 229   0.0000       0.766009        20.8442 
 230   0.0000       0.773293        21.0424 
 231   0.0000       0.775673        21.1071 
 232   0.0000       0.778178        21.1753 
 233   0.0000       0.779257        21.2047 
 234   0.0000       0.788736        21.4626 
 235   0.0000       0.797728        21.7073 
 236   0.0000       0.799471        21.7547 
 237   0.0000       0.805988        21.9321 
 238   0.0000       0.812827        22.1181 
 239   0.0000       0.821676        22.3590 
 240   0.0000       0.824421        22.4336 
 241   0.0000       0.826362        22.4864 
 242   0.0000       0.837362        22.7858 
 243   0.0000       0.841275        22.8923 
 244   0.0000       0.852183        23.1891 
 245   0.0000       0.855950        23.2916 
 246   0.0000       0.860311        23.4103 
 247   0.0000       0.862489        23.4695 
 248   0.0000       0.864518        23.5247 
 249   0.0000       0.871111        23.7041 
 250   0.0000       0.872114        23.7314 
 251   0.0000       0.873827        23.7780 
 252   0.0000       0.876451        23.8495 
 253   0.0000       0.877822        23.8868 
 254   0.0000       0.879469        23.9316 
 255   0.0000       0.880807        23.9680 
 256   0.0000       0.887299        24.1446 
 257   0.0000       0.887536        24.1511 
 258   0.0000       0.889561        24.2062 
 259   0.0000       0.897132        24.4122 
 260   0.0000       0.900032        24.4911 
 261   0.0000       0.902848        24.5677 
 262   0.0000       0.909158        24.7395 
 263   0.0000       0.916668        24.9438 
 264   0.0000       0.917988        24.9797 
 265   0.0000       0.925890        25.1948 
 266   0.0000       0.928101        25.2549 
 267   0.0000       0.930778        25.3278 
 268   0.0000       0.932344        25.3704 
 269   0.0000       0.935790        25.4641 
 270   0.0000       0.939894        25.5758 
 271   0.0000       0.942944        25.6588 
 272   0.0000       0.946076        25.7440 
 273   0.0000       0.949092        25.8261 
 274   0.0000       0.955618        26.0037 
 275   0.0000       0.960442        26.1349 
 276   0.0000       0.964299        26.2399 
 277   0.0000       0.969700        26.3869 
 278   0.0000       0.976609        26.5749 
 279   0.0000       0.980382        26.6775 
 280   0.0000       0.991316        26.9751 
 281   0.0000       0.999031        27.1850 
 282   0.0000       1.002504        27.2795 
 283   0.0000       1.006257        27.3817 
 284   0.0000       1.018239        27.7077 
 285   0.0000       1.026531        27.9333 
 286   0.0000       1.027519        27.9602 
 287   0.0000       1.032772        28.1032 
 288   0.0000       1.040397        28.3106 
 289   0.0000       1.062646        28.9161 
 290   0.0000       1.064106        28.9558 
 291   0.0000       1.069469        29.1017 
 292   0.0000       1.085082        29.5266 
 293   0.0000       1.092864        29.7383 
 294   0.0000       1.096253        29.8306 
 295   0.0000       1.107916        30.1479 
 296   0.0000       1.118679        30.4408 
 297   0.0000       1.133190        30.8357 
 298   0.0000       1.142371        31.0855 
 299   0.0000       1.143120        31.1059 
 300   0.0000       1.168678        31.8013 
 301   0.0000       1.176700        32.0196 
 302   0.0000       1.205385        32.8002 
 303   0.0000       1.218995        33.1705 
 304   0.0000       1.240511        33.7560 
 305   0.0000       1.246604        33.9218 
 306   0.0000       1.252739        34.0888 
 307   0.0000       1.263964        34.3942 
 308   0.0000       1.295996        35.2659 
 309   0.0000       1.313217        35.7345 
 310   0.0000       1.329965        36.1902 
 311   0.0000       1.342913        36.5425 
 312   0.0000       1.365635        37.1608 
 313   0.0000       1.375072        37.4176 
 314   0.0000       1.406006        38.2594 
 315   0.0000       1.525509        41.5112 
 316   0.0000       1.526776        41.5457 
 317   0.0000       1.565271        42.5932 
 318   0.0000       1.605935        43.6997 
 319   0.0000       1.657350        45.0988 
 320   0.0000       6.207898       168.9255 
 321   0.0000       6.240013       169.7994 
 322   0.0000       6.244465       169.9205 
 323   0.0000       6.275466       170.7641 
 324   0.0000       6.287040       171.0790 
 325   0.0000       6.294975       171.2950 
 326   0.0000       6.302246       171.4928 
 327   0.0000       6.314206       171.8183 
 328   0.0000       6.322453       172.0427 
 329   0.0000       6.327321       172.1752 
 330   0.0000       6.341139       172.5512 
 331   0.0000       6.352270       172.8540 
 332   0.0000       6.361050       173.0930 
 333   0.0000       6.378763       173.5750 
 334   0.0000       6.385156       173.7489 
 335   0.0000       6.393513       173.9763 
 336   0.0000       6.394576       174.0053 
 337   0.0000       6.404561       174.2770 
 338   0.0000       6.416661       174.6062 
 339   0.0000       6.420921       174.7221 
 340   0.0000       6.428346       174.9242 
 341   0.0000       6.434707       175.0973 
 342   0.0000       6.447138       175.4355 
 343   0.0000       6.456739       175.6968 
 344   0.0000       6.467562       175.9913 
 345   0.0000       6.471777       176.1060 
 346   0.0000       6.480924       176.3549 
 347   0.0000       6.493446       176.6957 
 348   0.0000       6.506179       177.0421 
 349   0.0000       6.513950       177.2536 
 350   0.0000       6.524284       177.5348 
 351   0.0000       6.531261       177.7246 
 352   0.0000       6.540209       177.9681 
 353   0.0000       6.543640       178.0615 
 354   0.0000       6.547250       178.1597 
 355   0.0000       6.553808       178.3382 
 356   0.0000       6.556998       178.4250 
 357   0.0000       6.562415       178.5724 
 358   0.0000       6.565635       178.6600 
 359   0.0000       6.577184       178.9743 
 360   0.0000       6.580576       179.0666 
 361   0.0000       6.584101       179.1625 
 362   0.0000       6.597152       179.5176 
 363   0.0000       6.602532       179.6640 
 364   0.0000       6.606902       179.7829 
 365   0.0000       6.608992       179.8398 
 366   0.0000       6.614392       179.9867 
 367   0.0000       6.617147       180.0617 
 368   0.0000       6.618875       180.1087 
 369   0.0000       6.621136       180.1703 
 370   0.0000       6.624946       180.2739 
 371   0.0000       6.629179       180.3891 
 372   0.0000       6.630952       180.4374 
 373   0.0000       6.641078       180.7129 
 374   0.0000       6.642976       180.7646 
[...]
     69 H        0.000      0.000      0.000      0.000      0.000      0.000
     70 H        0.000      0.000      0.000      0.000      0.003      0.035
     71 H        0.000      0.000      0.000     -0.000      0.001      0.019
     72 H        0.000      0.000      0.000      0.000      0.001      0.012
                 25 H       27 H       28 H       30 H       31 H       33 H  
      3 H        2.505     -0.106      0.065      0.000      0.000      2.410
      4 H        0.114     -0.004      0.004      0.008      0.000      0.100
      8 H       -0.347      0.012      0.000      0.000      0.000     -0.315
      9 H        0.000      0.000      0.000      0.000      0.000      0.133
     10 H        0.000      0.000      0.000      0.000      0.000      0.000
     11 H        0.000      0.000      0.000      0.000      0.000      0.000
     13 H       -0.102      0.004     -0.004      0.000      0.000     -0.105
     16 H       -0.377      0.012     -0.006     -0.022     -0.001     -0.346
     17 H       -0.372      0.011      0.000      0.000      0.000     -0.324
     19 H        0.951     -0.049      0.020      0.087      0.007      1.167
     21 H       -2.842      0.197      0.639     -0.216     -0.026     -2.613
     24 H      -14.151      4.382      2.260      0.714     -0.512     -0.127
     25 H        0.000     13.029      5.303     -0.636     -0.356     -2.372
     27 H       13.029      0.000    -13.627      4.013     13.007      0.070
     28 H        5.303    -13.627      0.000      2.647      4.133      0.282
     30 H       -0.636      4.013      2.647      0.000    -12.980      0.016
     31 H       -0.356     13.007      4.133    -12.980      0.000     -0.326
     33 H       -2.372      0.070      0.282      0.016     -0.326      0.000
     35 H        0.000      0.000      0.000      0.000      0.000      0.000
     37 H        0.272      0.005     -0.036      0.518     -0.037      6.539
     38 H        0.191      0.001     -0.030     -0.014      0.126     12.200
     40 H       -0.013      0.018      0.149     -0.004     -0.033     -0.237
     41 H        0.013      0.022     -0.025      0.013      0.077     -0.424
     42 H       -0.018      0.015     -0.014     -0.256     -0.368     -0.210
     45 H       -0.018     -0.227      0.017     -0.206     -0.469     -0.183
     46 H        0.013      0.046      0.070     -0.333      0.026      0.934
     47 H       -0.057     -0.123     -0.141     -0.156      1.844     -0.460
     48 H       -0.017      0.028      0.024      0.039      0.007     -0.023
     52 H        0.001      0.000      0.003     -0.014     -0.001      0.004
     53 H       -0.001     -0.000     -0.000     -0.002     -0.003     -0.007
     57 H        0.000      0.000      0.000      0.003      0.004      0.007
     58 H        0.000      0.000      0.000     -0.000     -0.000      0.000
     61 H        0.000      0.000      0.000     -0.000     -0.000     -0.000
     62 H        0.000      0.000      0.000     -0.000     -0.000     -0.000
     63 H        0.000      0.000      0.000      0.000      0.000      0.000
     64 H        0.000      0.000      0.000      0.000      0.000      0.000
     65 H        0.000      0.000      0.000     -0.000      0.000      0.000
     66 H        0.000      0.000      0.000     -0.000      0.000      0.000
     67 H        0.000      0.000      0.000      0.000      0.000      0.000
     68 H        0.000      0.000      0.000      0.000      0.000      0.000
     69 H        0.000      0.000      0.000      0.000      0.000      0.000
     70 H        0.001     -0.009     -0.011      0.070     -0.046      0.005
     71 H        0.003     -0.007     -0.008     -0.475     -0.093      0.004
     72 H        0.000     -0.004     -0.005      0.055      0.007     -0.000
                 35 H       37 H       38 H       40 H       41 H       42 H  
      3 H       -0.076     -0.044     -0.039      0.000      0.000      0.000
      4 H       -0.167     -0.002     -0.002      0.000      0.000      0.000
      8 H        0.021      0.006      0.004      0.000      0.001      0.000
      9 H       -0.092     -0.002     -0.001      0.000     -0.000      0.000
     10 H       -0.181      0.000     -0.001      0.000      0.000      0.000
     11 H       -0.101     -0.000     -0.000      0.000      0.000      0.000
     13 H       13.751      0.002      0.001      0.000      0.000      0.000
     16 H        0.005      0.007      0.002     -0.001      0.001     -0.001
     17 H        0.007      0.005      0.005      0.000      0.002      0.000
     19 H       -0.004     -0.013      0.115      0.004     -0.009      0.006
     21 H       -0.004      0.043     -0.538     -0.009      0.059     -0.024
     24 H       -0.001     -0.053     -0.079     -0.020      0.065     -0.025
     25 H        0.000      0.272      0.191     -0.013      0.013     -0.018
     27 H        0.000      0.005      0.001      0.018      0.022      0.015
     28 H        0.000     -0.036     -0.030      0.149     -0.025     -0.014
     30 H        0.000      0.518     -0.014     -0.004      0.013     -0.256
     31 H        0.000     -0.037      0.126     -0.033      0.077     -0.368
     33 H        0.000      6.539     12.200     -0.237     -0.424     -0.210
     35 H        0.000      0.000      0.000      0.000      0.000      0.000
     37 H        0.000      0.000    -12.205      9.535      2.629     -0.260
     38 H        0.000    -12.205      0.000      6.592     11.571     -0.486
     40 H        0.000      9.535      6.592      0.000    -13.297      9.227
     41 H        0.000      2.629     11.571    -13.297      0.000      8.830
     42 H        0.000     -0.260     -0.486      9.227      8.830      0.000
     45 H        0.000      0.063      0.037     -0.083      0.005      1.119
     46 H        0.000     -0.170      0.009      0.052      0.040     -0.419
     47 H        0.000      0.064     -0.069     -0.114     -0.065     -0.101
     48 H        0.000      0.113     -0.006     -0.197     -0.425     10.560
     52 H        0.000     -0.016     -0.014      0.214     -0.184     -0.172
     53 H        0.000     -0.004     -0.006     -0.018      0.100      0.123
     57 H        0.000     -0.002      0.001      0.047      0.002     -0.112
     58 H        0.000      0.000      0.000     -0.003      0.000      0.005
     61 H        0.000      0.000     -0.000     -0.014     -0.003      0.002
     62 H        0.000     -0.000     -0.000     -0.002     -0.001      0.000
     63 H        0.000     -0.000     -0.000     -0.002     -0.001     -0.001
     64 H        0.000      0.000      0.000     -0.000      0.001      0.001
     65 H        0.000      0.000      0.000     -0.000      0.000      0.000
     66 H        0.000      0.000      0.000      0.001     -0.000     -0.001
     67 H        0.000      0.000      0.000     -0.000     -0.000      0.001
     68 H        0.000      0.000      0.000      0.000      0.000     -0.001
     69 H        0.000      0.000      0.000      0.003      0.000      0.000
     70 H        0.000      0.065      0.015     -0.050      0.004     -0.451
     71 H        0.000     -0.006      0.000      0.085      0.030     -0.202
     72 H        0.000     -0.021      0.037      0.020     -0.046     -0.358
                 45 H       46 H       47 H       48 H       52 H       53 H  
      3 H       -0.021      0.000      0.000      0.000      0.000      0.000
      4 H       -0.001     -0.001      0.001      0.000      0.000      0.000
      8 H        0.002      0.002     -0.003      0.000      0.000      0.000
      9 H       -0.001      0.000      0.001      0.000      0.000      0.000
     10 H       -0.001      0.000      0.000      0.000      0.000      0.000
     11 H       -0.000      0.000      0.000      0.000      0.000      0.000
     13 H        0.001      0.001     -0.001      0.000      0.000      0.000
     16 H        0.002      0.002     -0.004      0.000      0.000      0.000
     17 H        0.003      0.000     -0.004      0.000      0.000      0.000
     19 H       -0.010     -0.007      0.011      0.007      0.000      0.000
     21 H        0.033      0.015     -0.015     -0.018      0.001      0.000
     24 H       -0.023     -0.017     -0.023      0.006      0.000      0.000
     25 H       -0.018      0.013     -0.057     -0.017      0.001     -0.001
     27 H       -0.227      0.046     -0.123      0.028      0.000     -0.000
     28 H        0.017      0.070     -0.141      0.024      0.003     -0.000
     30 H       -0.206     -0.333     -0.156      0.039     -0.014     -0.002
     31 H       -0.469      0.026      1.844      0.007     -0.001     -0.003
     33 H       -0.183      0.934     -0.460     -0.023      0.004     -0.007
     35 H        0.000      0.000      0.000      0.000      0.000      0.000
     37 H        0.063     -0.170      0.064      0.113     -0.016     -0.004
     38 H        0.037      0.009     -0.069     -0.006     -0.014     -0.006
     40 H       -0.083      0.052     -0.114     -0.197      0.214     -0.018
     41 H        0.005      0.040     -0.065     -0.425     -0.184      0.100
     42 H        1.119     -0.419     -0.101     10.560     -0.172      0.123
     45 H        0.000    -12.918    -13.605     -0.180      0.020     -0.035
     46 H      -12.918      0.000    -12.946     -0.106      0.005     -0.009
     47 H      -13.605    -12.946      0.000     -0.207      0.006     -0.015
     48 H       -0.180     -0.106     -0.207      0.000      5.058     -2.301
     52 H        0.020      0.005      0.006      5.058      0.000     17.375
     53 H       -0.035     -0.009     -0.015     -2.301     17.375      0.000
     57 H        0.000      0.010      0.011      1.465     -2.254      5.200
     58 H        0.000     -0.001     -0.001     -0.143      0.154     -0.186
     61 H       -0.001     -0.000     -0.000     -0.042     -0.196     -0.403
     62 H        0.000     -0.000     -0.000     -0.038     -0.226     -0.545
     63 H        0.000      0.000     -0.000     -0.064     -0.225      0.691
     64 H        0.000      0.000      0.000     -0.018      0.139      0.101
     65 H        0.000     -0.000     -0.000     -0.003      0.050     -0.131
     66 H        0.000      0.000      0.000      0.025      0.016     -0.029
     67 H        0.000      0.000      0.000     -0.019      0.015      0.006
     68 H        0.000      0.000      0.000      0.000     -0.012      0.037
     69 H        0.000      0.000      0.000      0.184     -0.070      0.028
     70 H       -0.030     -0.021     -0.010      1.931     -0.385     -0.229
     71 H       -0.061     -0.242     -0.019      5.226      0.686     -0.221
     72 H       -0.031     -0.042      0.030     12.550     -0.522     -0.225
                 57 H       58 H       61 H       62 H       63 H       64 H  
      3 H        0.000      0.000      0.000      0.000      0.000      0.000
      4 H        0.000      0.000      0.000      0.000      0.000      0.000
      8 H        0.000      0.000      0.000      0.000      0.000      0.000
      9 H        0.000      0.000      0.000      0.000      0.000      0.000
     10 H        0.000      0.000      0.000      0.000      0.000      0.000
     11 H        0.000      0.000      0.000      0.000      0.000      0.000
     13 H        0.000      0.000      0.000      0.000      0.000      0.000
     16 H        0.000      0.000      0.000      0.000      0.000      0.000
     17 H        0.000      0.000      0.000      0.000      0.000      0.000
     19 H        0.000      0.000      0.000      0.000      0.000      0.000
     21 H        0.000      0.000      0.000      0.000      0.000      0.000
     24 H        0.000      0.000      0.000      0.000      0.000      0.000
     25 H        0.000      0.000      0.000      0.000      0.000      0.000
     27 H        0.000      0.000      0.000      0.000      0.000      0.000
     28 H        0.000      0.000      0.000      0.000      0.000      0.000
     30 H        0.003     -0.000     -0.000     -0.000      0.000      0.000
     31 H        0.004     -0.000     -0.000     -0.000      0.000      0.000
     33 H        0.007      0.000     -0.000     -0.000      0.000      0.000
     35 H        0.000      0.000      0.000      0.000      0.000      0.000
     37 H       -0.002      0.000      0.000     -0.000     -0.000      0.000
     38 H        0.001      0.000     -0.000     -0.000     -0.000      0.000
     40 H        0.047     -0.003     -0.014     -0.002     -0.002     -0.000
     41 H        0.002      0.000     -0.003     -0.001     -0.001      0.001
     42 H       -0.112      0.005      0.002      0.000     -0.001      0.001
     45 H        0.000      0.000     -0.001      0.000      0.000      0.000
     46 H        0.010     -0.001     -0.000     -0.000      0.000      0.000
     47 H        0.011     -0.001     -0.000     -0.000     -0.000      0.000
     48 H        1.465     -0.143     -0.042     -0.038     -0.064     -0.018
     52 H       -2.254      0.154     -0.196     -0.226     -0.225      0.139
     53 H        5.200     -0.186     -0.403     -0.545      0.691      0.101
     57 H        0.000      9.798      2.126     12.647      4.904     -0.425
     58 H        9.798      0.000     -0.427     -0.358     -0.208      2.439
     61 H        2.126     -0.427      0.000    -12.413    -13.517      0.718
     62 H       12.647     -0.358    -12.413      0.000    -12.749     -0.025
     63 H        4.904     -0.208    -13.517    -12.749      0.000      0.013
     64 H       -0.425      2.439      0.718     -0.025      0.013      0.000
     65 H       -0.202      4.237      0.005      0.060      0.029    -13.114
     66 H       -0.391     12.621     -0.059      0.031      0.042    -12.774
     67 H       -0.361     12.737      0.014      0.081     -0.017     -0.226
     68 H       -0.241      4.239      0.017     -0.020     -0.248      0.192
     69 H       -0.452      2.352     -0.066      0.014     -0.013     -0.288
     70 H       -0.025      0.002      0.010     -0.006      0.025     -0.004
     71 H       -0.063     -0.000      0.023      0.008      0.135     -0.001
     72 H       -0.035      0.001     -0.006     -0.009      0.007     -0.001
                 65 H       66 H       67 H       68 H       69 H       70 H  
      3 H        0.000      0.000      0.000      0.000      0.000      0.000
      4 H        0.000      0.000      0.000      0.000      0.000      0.000
      8 H        0.000      0.000      0.000      0.000      0.000      0.000
      9 H        0.000      0.000      0.000      0.000      0.000      0.000
     10 H        0.000      0.000      0.000      0.000      0.000      0.000
     11 H        0.000      0.000      0.000      0.000      0.000      0.000
     13 H        0.000      0.000      0.000      0.000      0.000      0.000
     16 H        0.000      0.000      0.000      0.000      0.000      0.000
     17 H        0.000      0.000      0.000      0.000      0.000      0.000
     19 H        0.000      0.000      0.000      0.000      0.000      0.000
     21 H        0.000      0.000      0.000      0.000      0.000      0.003
     24 H        0.000      0.000      0.000      0.000      0.000      0.035
     25 H        0.000      0.000      0.000      0.000      0.000      0.001
     27 H        0.000      0.000      0.000      0.000      0.000     -0.009
     28 H        0.000      0.000      0.000      0.000      0.000     -0.011
     30 H       -0.000     -0.000      0.000      0.000      0.000      0.070
     31 H        0.000      0.000      0.000      0.000      0.000     -0.046
     33 H        0.000      0.000      0.000      0.000      0.000      0.005
     35 H        0.000      0.000      0.000      0.000      0.000      0.000
     37 H        0.000      0.000      0.000      0.000      0.000      0.065
     38 H        0.000      0.000      0.000      0.000      0.000      0.015
     40 H       -0.000      0.001     -0.000      0.000      0.003     -0.050
     41 H        0.000     -0.000     -0.000      0.000      0.000      0.004
     42 H        0.000     -0.001      0.001     -0.001      0.000     -0.451
     45 H        0.000      0.000      0.000      0.000      0.000     -0.030
     46 H       -0.000      0.000      0.000      0.000      0.000     -0.021
     47 H       -0.000      0.000      0.000      0.000      0.000     -0.010
     48 H       -0.003      0.025     -0.019      0.000      0.184      1.931
     52 H        0.050      0.016      0.015     -0.012     -0.070     -0.385
     53 H       -0.131     -0.029      0.006      0.037      0.028     -0.229
     57 H       -0.202     -0.391     -0.361     -0.241     -0.452     -0.025
     58 H        4.237     12.621     12.737      4.239      2.352      0.002
     61 H        0.005     -0.059      0.014      0.017     -0.066      0.010
     62 H        0.060      0.031      0.081     -0.020      0.014     -0.006
     63 H        0.029      0.042     -0.017     -0.248     -0.013      0.025
     64 H      -13.114    -12.774     -0.226      0.192     -0.288     -0.004
     65 H        0.000    -12.156     -0.368      2.895      0.147     -0.019
     66 H      -12.156      0.000     -0.269     -0.378     -0.228     -0.005
     67 H       -0.368     -0.269      0.000    -12.039    -12.732      0.001
     68 H        2.895     -0.378    -12.039      0.000    -13.098     -0.000
     69 H        0.147     -0.228    -12.732    -13.098      0.000     -0.002
     70 H       -0.019     -0.005      0.001     -0.000     -0.002      0.000
     71 H       -0.001     -0.000      0.002      0.000      0.000    -13.693
     72 H       -0.003     -0.000      0.001     -0.000     -0.002    -12.361
                 71 H       72 H  
      3 H        0.000      0.000
      4 H        0.000      0.000
      8 H        0.000      0.000
      9 H        0.000      0.000
     10 H        0.000      0.000
     11 H        0.000      0.000
     13 H        0.000      0.000
     16 H        0.000      0.000
     17 H        0.000      0.000
     19 H       -0.000      0.000
     21 H        0.001      0.001
     24 H        0.019      0.012
     25 H        0.003      0.000
     27 H       -0.007     -0.004
     28 H       -0.008     -0.005
     30 H       -0.475      0.055
     31 H       -0.093      0.007
     33 H        0.004     -0.000
     35 H        0.000      0.000
     37 H       -0.006     -0.021
     38 H        0.000      0.037
     40 H        0.085      0.020
     41 H        0.030     -0.046
     42 H       -0.202     -0.358
     45 H       -0.061     -0.031
     46 H       -0.242     -0.042
     47 H       -0.019      0.030
     48 H        5.226     12.550
     52 H        0.686     -0.522
     53 H       -0.221     -0.225
     57 H       -0.063     -0.035
     58 H       -0.000      0.001
     61 H        0.023     -0.006
     62 H        0.008     -0.009
     63 H        0.135      0.007
     64 H       -0.001     -0.001
     65 H       -0.001     -0.003
     66 H       -0.000     -0.000
     67 H        0.002      0.001
     68 H        0.000     -0.000
     69 H        0.000     -0.002
     70 H      -13.693    -12.361
     71 H        0.000    -12.742
     72 H      -12.742      0.000

Maximum memory used throughout the entire EPRNMR-calculation: 971.6 MB

Timings for individual modules:

Sum of individual times         ...      397.149 sec (=   6.619 min)
GTO integral calculation        ...        0.570 sec (=   0.009 min)   0.1 %
SCF iterations                  ...      101.204 sec (=   1.687 min)  25.5 %
EPR/NMR calculation             ...      295.375 sec (=   4.923 min)  74.4 %
                             ****ORCA TERMINATED NORMALLY****
TOTAL RUN TIME: 0 days 0 hours 6 minutes 37 seconds 545 msec
