          73
 Energy =    -1168.36168282 a.u.  Frame:     1 Step:     1 Geom:     1
C          -4.99709556      0.21513374     -0.49949286
C          -6.44484925     -0.18380039     -0.66195553
C          -7.35404140      0.76033463      0.13507591
H          -6.60086984     -1.21848164     -0.33612508
H          -6.73426482     -0.11476453     -1.72107949
C          -4.72389735      1.63094141     -0.83173934
C          -5.65474392      2.62020120     -0.16579499
C          -7.12686987      2.20746890     -0.30511459
H          -5.49594954      3.62376279     -0.57466245
H          -5.40142045      2.66604485      0.90432534
H          -7.43740418      2.30181604     -1.35462549
H          -7.76253196      2.87480511      0.28832889
O          -7.14303833      0.59538100      1.54728247
H          -8.40311093      0.48690885     -0.03272425
C          -4.07725162     -0.65837617     -0.02506808
C          -3.76277504      2.01063513     -1.68082347
H          -3.11531035      1.28352360     -2.16367674
H          -3.61008637      3.06067955     -1.91897567
C          -2.69369610     -0.36289253      0.26779477
H          -4.43189959     -1.66785371      0.17977569
C          -1.74328065     -1.24953702      0.63245006
H          -2.40633491      0.68324391      0.18916541
C          -1.93317422     -2.73915761      0.76425988
C          -0.92592020     -3.51663905     -0.10577670
H          -2.95119661     -3.05275028      0.51772219
H          -1.75733604     -3.01124079      1.81713778
C           0.52311744     -3.06250835      0.11733007
H          -1.19575231     -3.39215083     -1.16212510
H          -1.01315782     -4.58780699      0.11379680
C           0.68137001     -1.54616812     -0.05988185
H           1.17716464     -3.61415057     -0.56609445
H           0.83201316     -3.32674640      1.13997054
C          -0.32634671     -0.85339606      0.91338778
H          -0.07681469     -1.26592029      1.90805310
C           0.10105936      0.61148886      0.91228662
H          -6.18922732      0.52095155      1.69359878
C           1.64372180      0.54024931      0.80000055
H          -0.23763114      1.13954914      1.80981537
H          -0.32014196      1.13926262      0.04935894
C           2.01222157     -0.93505197      0.45927893
H           2.13654104      0.85474084      1.72528477
H           2.01062733      1.20950111      0.01299058
H           2.25293072     -1.46256597      1.39686375
C           3.26480474     -1.01103355     -0.43727977
C           0.41808369     -1.12852379     -1.51284863
H           0.63597150     -0.06766086     -1.67228083
H          -0.62648024     -1.29303704     -1.79487449
H           1.04757028     -1.70372568     -2.20065103
H           3.05450730     -0.46713688     -1.36996586
C           3.68228843     -2.44753415     -0.78673481
C           4.41381465     -0.32225425      0.24990792
C           5.08351230      0.72488400     -0.22714876
H           4.71382587     -0.75028073      1.21178550
H           4.78212487      1.15120382     -1.18949857
C           6.22687274      1.41854394      0.45913774
C           5.79889496      2.84896485      0.82597602
C           7.50031518      1.39603364     -0.42195975
H           6.45592004      0.87226262      1.38825499
H           7.25131018      1.90688583     -1.36632972
C           7.91602841     -0.04138479     -0.74624829
C           8.66757987      2.13898141      0.23405207
H           5.65158742      3.45067561     -0.07977823
H           6.54461060      3.35002333      1.45016382
H           4.85315686      2.83310941      1.37756842
H           7.12163105     -0.58429845     -1.26724995
H           8.14459296     -0.58893246      0.17754504
H           8.81248976     -0.05483010     -1.37583430
H           8.46848990      3.20790884      0.35155752
H           9.57474682      2.03496839     -0.37128840
H           8.87836117      1.72035624      1.22678294
H           2.95052767     -2.93917671     -1.43276589
H           3.79514644     -3.05155120      0.12201230
H           4.64406052     -2.44391826     -1.31104457