          73
 Energy =    -1168.36168282 a.u.  Frame:     1 Step:     1 Geom:     1
C          -4.99709556      0.21513374     -0.49949286
C          -6.44484925     -0.18380039     -0.66195553
C          -7.35404140      0.76033463      0.13507591
H          -6.60086984     -1.21848164     -0.33612508
H          -6.73426482     -0.11476453     -1.72107949
C          -4.72389735      1.63094141     -0.83173934
C          -5.65474392      2.62020120     -0.16579499
C          -7.12686987      2.20746890     -0.30511459
H          -5.49594954      3.62376279     -0.57466245
H          -5.40142045      2.66604485      0.90432534
H          -7.43740418      2.30181604     -1.35462549
H          -7.76253196      2.87480511      0.28832889
O          -7.14303833      0.59538100      1.54728247
H          -8.40311093      0.48690885     -0.03272425
C          -4.07725162     -0.65837617     -0.02506808
C          -3.76277504      2.01063513     -1.68082347
H          -3.11531035      1.28352360     -2.16367674
H          -3.61008637      3.06067955     -1.91897567
C          -2.69369610     -0.36289253      0.26779477
H          -4.43189959     -1.66785371      0.17977569
C          -1.74328065     -1.24953702      0.63245006
H          -2.40633491      0.68324391      0.18916541
C          -1.93317422     -2.73915761      0.76425988
C          -0.92592020     -3.51663905     -0.10577670
H          -2.95119661     -3.05275028      0.51772219
H          -1.75733604     -3.01124079      1.81713778
C           0.52311744     -3.06250835      0.11733007
H          -1.19575231     -3.39215083     -1.16212510
H          -1.01315782     -4.58780699      0.11379680
C           0.68137001     -1.54616812     -0.05988185
H           1.17716464     -3.61415057     -0.56609445
H           0.83201316     -3.32674640      1.13997054
C          -0.32634671     -0.85339606      0.91338778
H          -0.07681469     -1.26592029      1.90805310
C           0.10105936      0.61148886      0.91228662
H          -6.18922732      0.52095155      1.69359878
C           1.64372180      0.54024931      0.80000055
H          -0.23763114      1.13954914      1.80981537
H          -0.32014196      1.13926262      0.04935894
C           2.01222157     -0.93505197      0.45927893
H           2.13654104      0.85474084      1.72528477
H           2.01062733      1.20950111      0.01299058
H           2.25293072     -1.46256597      1.39686375
C           3.26480474     -1.01103355     -0.43727977
C           0.41808369     -1.12852379     -1.51284863
H           0.63597150     -0.06766086     -1.67228083
H          -0.62648024     -1.29303704     -1.79487449
H           1.04757028     -1.70372568     -2.20065103
H           3.05450730     -0.46713688     -1.36996586
C           3.68228843     -2.44753415     -0.78673481
C           4.41381465     -0.32225425      0.24990792
C           5.08351230      0.72488400     -0.22714876
H           4.71382587     -0.75028073      1.21178550
H           4.78212487      1.15120382     -1.18949857
C           6.22687274      1.41854394      0.45913774
C           5.79889496      2.84896485      0.82597602
C           7.50031518      1.39603364     -0.42195975
H           6.45592004      0.87226262      1.38825499
H           7.25131018      1.90688583     -1.36632972
C           7.91602841     -0.04138479     -0.74624829
C           8.66757987      2.13898141      0.23405207
H           5.65158742      3.45067561     -0.07977823
H           6.54461060      3.35002333      1.45016382
H           4.85315686      2.83310941      1.37756842
H           7.12163105     -0.58429845     -1.26724995
H           8.14459296     -0.58893246      0.17754504
H           8.81248976     -0.05483010     -1.37583430
H           8.46848990      3.20790884      0.35155752
H           9.57474682      2.03496839     -0.37128840
H           8.87836117      1.72035624      1.22678294
H           2.95052767     -2.93917671     -1.43276589
H           3.79514644     -3.05155120      0.12201230
H           4.64406052     -2.44391826     -1.31104457
          73
 Energy =    -1168.35933892 a.u.  Frame:     2 Step:     2 Geom:     2
C          -5.14136358      0.12670267     -0.60924335
C          -6.57465653     -0.32789032     -0.74977387
C          -7.51390407      0.62480349      0.00131615
H          -6.69744786     -1.34990939     -0.37364138
H          -6.86620107     -0.31965074     -1.81051273
C          -4.91641409      1.53147895     -1.01731738
C          -5.87729274      2.52236106     -0.39844342
C          -7.33527333      2.05484105     -0.51105308
H          -5.75257172      3.50860313     -0.85803683
H          -5.62383253      2.63032345      0.66720326
H          -7.65109617      2.08610991     -1.56271507
H          -7.99142207      2.72974811      0.05073922
O          -7.29700309      0.53660614      1.41960682
H          -8.55349197      0.30925606     -0.15096332
C          -4.19359248     -0.68602862     -0.08440400
C          -3.97266279      1.89709646     -1.89157545
H          -3.30323238      1.16731914     -2.33921270
H          -3.85592438      2.93747879     -2.18602480
C          -2.82247271     -0.32391013      0.19163247
H          -4.51303751     -1.69376800      0.17866134
C          -1.84557672     -1.14619684      0.63014420
H          -2.56995120      0.72265719      0.03668548
C          -1.98725127     -2.62537546      0.88506957
C          -0.92470321     -3.44004184      0.12175094
H          -2.98530036     -2.99540833      0.63492864
H          -1.84070565     -2.79764502      1.96335723
C           0.49893761     -2.91232127      0.34605304
H          -1.16189045     -3.42299824     -0.94953275
H          -0.98176473     -4.48911848      0.43690004
C           0.60977049     -1.41500432      0.02666193
H           1.19633994     -3.50176644     -0.25821610
H           0.78006559     -3.06369344      1.39922665
C          -0.45084864     -0.67158519      0.89893150
H          -0.21382477     -0.96950483      1.93734450
C          -0.07776165      0.79928684      0.75351016
H          -6.34133789      0.49828882      1.56799986
C           1.46965772      0.77395181      0.73425002
H          -0.48110112      1.41241220      1.56635954
H          -0.46932063      1.20835175     -0.18468656
C           1.90595821     -0.71024668      0.52166588
H           1.87982245      1.17060604      1.66701774
H           1.86831374      1.40341531     -0.07032351
H           2.13615724     -1.15690019      1.50170428
C           3.16272194     -0.81666033     -0.35336127
C           0.36675046     -1.14962778     -1.46586012
H           0.57256930     -0.10776638     -1.73153012
H          -0.67141576     -1.35663959     -1.74393600
H           1.01232757     -1.78247796     -2.08409467
H           2.93578409     -0.32869999     -1.31455724
C           3.59656126     -2.26126046     -0.66298655
C           4.36118574     -0.09796083      0.22611453
C           4.57727922      0.23257367      1.49825487
H           5.15690817      0.10632106     -0.49594775
H           3.81382860      0.03077506      2.25341279
C           5.83485385      0.86611240      2.02550652
C           6.51797720     -0.10866797      2.99866006
C           5.52794992      2.23348925      2.68411029
H           6.51387214      1.04923892      1.17730645
H           4.79957106      2.04892097      3.49077748
C           4.89786947      3.19739935      1.67533482
C           6.77584765      2.87048162      3.30235865
H           5.90794211     -0.24147039      3.90113192
H           7.50617264      0.24672050      3.30485978
H           6.64306190     -1.08970082      2.52892299
H           3.97607348      2.79032612      1.24860179
H           5.59371468      3.38840208      0.84787524
H           4.66422438      4.15785317      2.14771780
H           7.17419269      2.28288175      4.13426609
H           6.54465842      3.87113414      3.68399947
H           7.56755458      2.97507019      2.54894439
H           2.88115468     -2.77665502     -1.30885371
H           3.70381184     -2.83437366      0.26559015
H           4.56687748     -2.26546037     -1.17221132
          73
 Energy =    -1168.36015858 a.u.  Frame:     3 Step:     3 Geom:     3
C          -4.94034256      0.23886720     -0.40501745
C          -6.39891128     -0.13548804     -0.52428726
C          -7.26369876      0.79160074      0.33938590
H          -6.55649050     -1.17886231     -0.22846834
H          -6.72776572     -0.02540540     -1.56831732
C          -4.65966523      1.66205041     -0.69709385
C          -5.54999972      2.63851815      0.03934685
C          -7.03222445      2.25036857     -0.05840117
H          -5.39218217      3.65420250     -0.33882469
H          -5.25576956      2.64166568      1.09995654
H          -7.38008366      2.38585756     -1.09157073
H          -7.63541284      2.90452117      0.58174665
O          -7.00349760      0.57390748      1.73598568
H          -8.32210324      0.53836632      0.20134987
C          -4.01577316     -0.66256121      0.00353260
C          -3.72622640      2.05956264     -1.56865681
H          -3.10829463      1.34202696     -2.10193575
H          -3.56707857      3.11537434     -1.77503058
C          -2.61813787     -0.39547283      0.25506063
H          -4.37668870     -1.67381876      0.18732177
C          -1.66996395     -1.30654273      0.56047888
H          -2.31895427      0.64881685      0.19947304
C          -1.87905554     -2.79646208      0.65292574
C          -0.90738081     -3.55997671     -0.26772674
H          -2.90796315     -3.08768487      0.42524055
H          -1.67833088     -3.10276737      1.69186761
C           0.55394223     -3.13623076     -0.06722197
H          -1.20201216     -3.39607563     -1.31203289
H          -1.00608342     -4.63636578     -0.08112476
C           0.73378162     -1.61800744     -0.20447718
H           1.18105889     -3.67874041     -0.78190638
H           0.88250776     -3.43525657      0.93957888
C          -0.23969400     -0.93920293      0.81249680
H           0.02839838     -1.38232341      1.78906069
C           0.20669822      0.51924064      0.84073469
H          -6.04593367      0.48728963      1.84601339
C           1.74447983      0.43313536      0.67975511
H          -0.09726299      1.02449026      1.76334123
H          -0.23307089      1.07756841      0.00691843
C           2.08504694     -1.04082171      0.30266298
H           2.26621064      0.72676622      1.59621866
H           2.08581583      1.11487379     -0.10843441
H           2.33457526     -1.58806091      1.22629508
C           3.32854071     -1.13536423     -0.61520960
C           0.44306012     -1.15250900     -1.63765358
H           0.67613903     -0.09141579     -1.77199265
H          -0.61108040     -1.28969477     -1.89794924
H           1.04396839     -1.71821673     -2.35810243
H           3.09679981     -0.56462545     -1.52950846
C           3.67531151     -2.56762405     -1.01967228
C           4.47818153     -0.42707455      0.06197613
C           5.57049272     -0.99000768      0.57786677
H           4.36916678      0.65435692      0.16301938
H           5.71708619     -2.07038973      0.50519707
C           6.67353447     -0.24616276      1.27846109
C           7.99390302     -0.47027500      0.52476909
C           6.76629549     -0.67284101      2.76538590
H           6.43523887      0.82944115      1.25816883
H           6.93630491     -1.76183549      2.78175483
C           5.45701625     -0.37803981      3.50288235
C           7.93274971      0.00600036      3.48919280
H           8.30956553     -1.51823801      0.60521007
H           8.79892751      0.15882893      0.91544776
H           7.86987142     -0.23669810     -0.53774382
H           4.60741825     -0.88805590      3.03876179
H           5.24761839      0.69980543      3.49029094
H           5.52038933     -0.69543824      4.54951332
H           8.90471755     -0.29629526      3.08932612
H           7.91909698     -0.24756066      4.55496475
H           7.85389987      1.09775579      3.40445061
H           2.91740189     -2.98281211     -1.68699916
H           3.74927294     -3.22387728     -0.14443393
H           4.63517927     -2.59652601     -1.54656896
          73
 Energy =    -1168.36151766 a.u.  Frame:     4 Step:     4 Geom:     4
C          -5.04866471      0.19342726     -0.46139642
C          -6.49267906     -0.22529131     -0.60550161
C          -7.39832204      0.67210277      0.24759845
H          -6.62333716     -1.27406533     -0.31556236
H          -6.80848749     -0.12174092     -1.65418923
C          -4.80757093      1.62508480     -0.74720372
C          -5.73935104      2.57250421     -0.02405900
C          -7.20704355      2.13831250     -0.14397130
H          -5.60780170      3.59291537     -0.39950821
H          -5.46128222      2.58378825      1.04081770
H          -7.54446509      2.26533832     -1.18165369
H          -7.83955832      2.77165729      0.48875184
O          -7.15049629      0.45951344      1.64738887
H          -8.44627589      0.38600944      0.09444174
C          -4.10393512     -0.67953652     -0.03724599
C          -3.87261075      2.05282334     -1.60265389
H          -3.22400313      1.35548823     -2.12616127
H          -3.74304515      3.11346044     -1.80485456
C          -2.72032675     -0.36963258      0.23952571
H          -4.43678924     -1.70171315      0.13926683
C          -1.75072156     -1.24982018      0.56760811
H          -2.45096924      0.68276355      0.18541512
C          -1.91550581     -2.74492928      0.66708133
C          -0.90174534     -3.48673355     -0.22588336
H          -2.93005826     -3.06927374      0.42023445
H          -1.72825431     -3.03705258      1.71262207
C           0.54146316     -3.01579288      0.00031769
H          -1.17933957     -3.34184146     -1.27758456
H          -0.97157508     -4.56387083     -0.03072438
C           0.67578151     -1.49412472     -0.14591422
H           1.20012218     -3.54266305     -0.69802672
H           0.85895604     -3.29734168      1.01569414
C          -0.33788154     -0.83631570      0.84478207
H          -0.07564721     -1.26261749      1.83041195
C           0.06511374      0.63547654      0.86836177
H          -6.19256687      0.39342420      1.76857624
C           1.60785324      0.59262232      0.74207513
H          -0.27473950      1.14046528      1.77862023
H          -0.37223532      1.17230923      0.01915242
C           1.99819425     -0.87193503      0.38087100
H           2.10396974      0.90549967      1.66615707
H           1.95568661      1.27668124     -0.04092412
H           2.24615077     -1.40856099      1.31144003
C           3.25227006     -0.91750096     -0.51523605
C           0.40157452     -1.05149670     -1.58958027
H           0.60627849      0.01469730     -1.72950279
H          -0.64192453     -1.22307685     -1.87138561
H           1.03548450     -1.60591553     -2.29042891
H           3.03348863     -0.37229464     -1.44521595
C           3.69849561     -2.34354949     -0.87311672
C           4.38537681     -0.20992269      0.17865001
C           5.05171431      0.83807007     -0.30339538
H           4.67495914     -0.62153698      1.15094010
H           4.75230416      1.24687118     -1.27220468
C           6.18607956      1.53811469      0.39098895
C           5.87382030      3.03470674      0.53456749
C           7.55489056      1.29827330     -0.30292146
H           6.27436074      1.11237304      1.40185983
H           8.28595676      1.90607030      0.25242309
C           7.58394000      1.74732956     -1.76609931
C           7.97627016     -0.16746016     -0.18919644
H           5.68908755      3.49965693     -0.44007750
H           6.70668614      3.56409586      1.01180772
H           4.97693553      3.18246163      1.14557673
H           7.28639765      2.79427844     -1.88400899
H           6.91451802      1.13188786     -2.37836764
H           8.59491438      1.64097062     -2.17466792
H           7.98969675     -0.49744349      0.85606397
H           8.97740812     -0.32002122     -0.60783482
H           7.27848318     -0.81315556     -0.73546848
H           2.97869090     -2.84358062     -1.52618080
H           3.81845375     -2.95205675      0.03166728
H           4.66214645     -2.31765861     -1.39316889
          73
 Energy =    -1168.35942736 a.u.  Frame:     5 Step:     5 Geom:     5
C          -5.19234456      0.08707981     -0.56826931
C          -6.62299408     -0.38889383     -0.65991903
C          -7.56203894      0.59467771      0.05018889
H          -6.72802253     -1.38888989     -0.22415170
H          -6.93078629     -0.44473711     -1.71466313
C          -4.98715791      1.47139779     -1.04907916
C          -5.95318988      2.48365896     -0.47434502
C          -7.40642349      1.99514144     -0.54538997
H          -5.84446610      3.44468306     -0.98819376
H          -5.69003281      2.65212224      0.58106254
H          -7.73325281      1.96236159     -1.59359238
H          -8.06473536      2.69363577     -0.01581799
O          -7.32346894      0.59006430      1.46771718
H          -8.60010255      0.26016712     -0.06778626
C          -4.22627794     -0.69168436     -0.02539671
C          -4.05299817      1.80157155     -1.94773253
H          -3.37960821      1.05621125     -2.36245729
H          -3.94889910      2.82674159     -2.29544174
C          -2.85449656     -0.30439903      0.21096374
H          -4.52954872     -1.68948854      0.28946998
C          -1.85719599     -1.10389409      0.64525277
H          -2.61981197      0.74145852      0.02572699
C          -1.97136956     -2.58110060      0.92444022
C          -0.92208842     -3.38951592      0.13601486
H          -2.97148235     -2.96698132      0.70891390
H          -1.78805148     -2.73869753      1.99919642
C           0.50058181     -2.84192554      0.31332011
H          -1.19144773     -3.38426315     -0.92771720
H          -0.95616148     -4.43643008      0.46151281
C           0.58237416     -1.34637736     -0.02360942
H           1.18754681     -3.42812675     -0.30601251
H           0.81367462     -2.98037548      1.35919252
C          -0.46250604     -0.60801649      0.87213525
H          -0.19299969     -0.89387884      1.90590305
C          -0.11267939      0.86653166      0.70440993
H          -6.36524866      0.57759492      1.60304064
C           1.43325651      0.86168107      0.63163502
H          -0.49646971      1.47953804      1.52677638
H          -0.54058858      1.26519015     -0.22233229
C           1.88265886     -0.61911012      0.42511044
H           1.87360888      1.27786034      1.54188606
H           1.79336327      1.48365490     -0.19673204
H           2.14676271     -1.04976274      1.40374596
C           3.11430402     -0.71871179     -0.48597910
C           0.29226227     -1.09917825     -1.51100318
H           0.47588252     -0.05712531     -1.79191412
H          -0.75047520     -1.32307453     -1.75638429
H           0.92870114     -1.72918951     -2.14158554
H           2.84763959     -0.25831566     -1.45028609
C           3.57104935     -2.16048555     -0.77556003
C           4.31135234      0.04312723      0.03884340
C           4.57397146      0.37853084      1.30160282
H           5.06328205      0.28101587     -0.71914002
H           3.85671081      0.13360879      2.08678325
C           5.82727417      1.07384090      1.75503189
C           6.59633067      0.19078341      2.74858887
C           5.54806249      2.48719479      2.33358958
H           6.46556659      1.22223342      0.87099907
H           6.52733902      2.88763309      2.63868739
C           4.64159490      2.47618516      3.56731171
C           4.97242470      3.41366042      1.26134067
H           5.97331115     -0.08632542      3.60608535
H           7.48406881      0.71099052      3.12753501
H           6.92078461     -0.73600682      2.26395081
H           5.03320705      1.83547204      4.36376855
H           3.63402010      2.12696074      3.31247399
H           4.54451593      3.48928816      3.97308884
H           5.62141215      3.45346668      0.37864267
H           4.85846152      4.43300561      1.64696828
H           3.98610253      3.06155068      0.93600747
H           2.85076052     -2.70429961     -1.39227393
H           3.71248377     -2.71063392      0.16220851
H           4.52848962     -2.15602080     -1.30857805
          73
 Energy =    -1168.36022501 a.u.  Frame:     6 Step:     6 Geom:     6
C          -4.99977426      0.20506719     -0.38496693
C          -6.45141938     -0.19677488     -0.49698593
C          -7.32397118      0.69020873      0.40035778
H          -6.58429195     -1.25031807     -0.22617632
H          -6.79525768     -0.06688151     -1.53385654
C          -4.75222527      1.64038303     -0.64583206
C          -5.65414738      2.58059963      0.12297002
C          -7.12885110      2.16279042      0.03518207
H          -5.52313315      3.60751585     -0.23451634
H          -5.34628801      2.56719519      1.17964333
H          -7.49380317      2.31562610     -0.98961536
H          -7.73706253      2.78808124      0.69900150
O          -7.04060217      0.44428710      1.78769759
H          -8.37859251      0.41770046      0.27011147
C          -4.05218789     -0.68600704     -0.00742086
C          -3.83624546      2.07771118     -1.51689430
H          -3.20966721      1.38542338     -2.07284737
H          -3.70085458      3.14115427     -1.69960336
C          -2.65829004     -0.39554665      0.23761744
H          -4.39022232     -1.70863558      0.15604227
C          -1.68965060     -1.29255303      0.51946249
H          -2.38037771      0.65538545      0.20072198
C          -1.86773448     -2.78770800      0.58794101
C          -0.88168854     -3.51662840     -0.34513700
H          -2.89082361     -3.09601463      0.35650668
H          -1.65976866     -3.10627762      1.62176648
C           0.57096212     -3.06675327     -0.13821277
H          -1.18015520     -3.34182271     -1.38656637
H          -0.95867010     -4.59765453     -0.17599609
C           0.71991733     -1.54351238     -0.25386362
H           1.20862559     -3.58636402     -0.86050872
H           0.90526142     -3.37373003      0.86428631
C          -0.26644473     -0.89913184      0.77284135
H           0.01252439     -1.34879421      1.74338804
C           0.14920201      0.56788979      0.81923678
H          -6.08002168      0.37535425      1.88329294
C           1.68816903      0.51600557      0.65629940
H          -0.16442730      1.05529751      1.74818239
H          -0.30292173      1.12703555     -0.00743031
C           2.05917271     -0.94602314      0.26159370
H           2.20412200      0.81039640      1.57571364
H           2.01434599      1.21365663     -0.12442291
H           2.31852802     -1.49953141      1.17876868
C           3.30488912     -1.00443791     -0.65668981
C           0.41933657     -1.06387856     -1.68036287
H           0.63499532      0.00244910     -1.80156698
H          -0.63284659     -1.21470643     -1.94103904
H           1.02790356     -1.61042866     -2.40911126
H           3.06273562     -0.42499804     -1.56291389
C           3.67978325     -2.42359361     -1.08094242
C           4.43940343     -0.28495390      0.03259036
C           5.55488246     -0.82981859      0.51981374
H           4.29979600      0.78919531      0.16875147
H           5.73301578     -1.89977807      0.40245988
C           6.62382481     -0.06517846      1.24998246
C           7.99922005     -0.33182286      0.62365640
C           6.61779066     -0.35585791      2.77657257
H           6.40357190      1.00743718      1.14181702
H           7.47199449      0.19998770      3.19346613
C           6.80792266     -1.83647972      3.11558332
C           5.34334726      0.17886623      3.43229762
H           8.23657732     -1.40136723      0.61993923
H           8.78896386      0.18911301      1.17738616
H           8.02209812      0.01433876     -0.41505677
H           7.71783540     -2.25051529      2.66934872
H           5.95549731     -2.43062287      2.76549091
H           6.87924946     -1.97011766      4.20066744
H           5.20209196      1.24445153      3.21710306
H           5.38229245      0.05244736      4.52008850
H           4.46197425     -0.35735604      3.06049517
H           2.93086847     -2.84416389     -1.75496147
H           3.76601113     -3.08989539     -0.21443107
H           4.64013025     -2.42672775     -1.60765234
          73
 Energy =    -1168.36025927 a.u.  Frame:     7 Step:     7 Geom:     7
C          -5.04207121      0.17777329     -0.47804626
C          -6.48502922     -0.24409451     -0.62308895
C          -7.39674258      0.67168158      0.20370957
H          -6.61803096     -1.28626640     -0.31117793
H          -6.79325710     -0.16367081     -1.67607220
C          -4.79934540      1.60274660     -0.79464616
C          -5.73476289      2.56542468     -0.09691873
C          -7.20187161      2.12923117     -0.21709262
H          -5.60048931      3.57780103     -0.49261900
H          -5.46328366      2.59879986      0.96919392
H          -7.53221081      2.23455462     -1.25948102
H          -7.83831514      2.77603972      0.39782222
O          -7.15996733      0.48807473      1.60950981
H          -8.44364271      0.38286145      0.04850592
C          -4.10014490     -0.68484281     -0.02746697
C          -3.86103901      2.01155901     -1.65558131
H          -3.21003071      1.30309804     -2.16090599
H          -3.73099298      3.06747771     -1.88088536
C          -2.71815858     -0.36772332      0.24907975
H          -4.43384737     -1.70278948      0.17062916
C          -1.74944807     -1.23854079      0.60382161
H          -2.44856658      0.68292408      0.16863525
C          -1.91406550     -2.73048547      0.74353187
C          -0.89655162     -3.49736894     -0.12379406
H          -2.92757943     -3.06188048      0.50166917
H          -1.73171081     -2.99354145      1.79766212
C           0.54554536     -3.01747324      0.09132203
H          -1.17138320     -3.38549894     -1.18024215
H          -0.96518184     -4.56815286      0.10406451
C           0.67774775     -1.50027582     -0.09856326
H           1.20658021     -3.56353552     -0.58983356
H           0.86183271     -3.26829388      1.11508538
C          -0.33761547     -0.81671578      0.87295703
H          -0.07644662     -1.21627008      1.87003125
C           0.06435660      0.65517473      0.85733557
H          -6.20290217      0.42678317      1.73976323
C           1.60751599      0.60952076      0.73841690
H          -0.27925099      1.18533326      1.75175158
H          -0.36987933      1.16779490     -0.00831751
C           1.99953715     -0.86288361      0.41187369
H           2.09940778      0.94262912      1.65766208
H           1.95905251      1.27630900     -0.05766412
H           2.24909880     -1.37732251      1.35434844
C           3.25275827     -0.92807286     -0.48489650
C           0.40351656     -1.09908239     -1.55391204
H           0.60601542     -0.03674691     -1.72353879
H          -0.63953373     -1.28066441     -1.83116484
H           1.03897434     -1.67145824     -2.23861988
H           3.03372413     -0.39844821     -1.42374454
C           3.69417234     -2.36121694     -0.81818133
C           4.38752007     -0.21086979      0.19680371
C           5.03956950      0.84407243     -0.28985919
H           4.68715886     -0.61878988      1.16766686
H           4.72776877      1.25269536     -1.25466566
C           6.17701460      1.54607451      0.39960489
C           5.83388411      3.03119187      0.58953586
C           7.52334067      1.31395819     -0.34037246
H           6.28991117      1.09148989      1.39537415
H           7.60299548      0.22504245     -0.47833809
C           8.71695370      1.76021567      0.50871838
C           7.58009627      1.96777754     -1.72312924
H           5.62777585      3.51566846     -0.37133676
H           6.64627227      3.57789910      1.07931438
H           4.93683931      3.13305947      1.20939933
H           8.68812372      1.30657111      1.50605204
H           8.73609972      2.84919642      0.63124041
H           9.65848923      1.46799685      0.03025671
H           6.74175492      1.66270373     -2.35800415
H           8.50670913      1.68769879     -2.23626225
H           7.56630150      3.06078950     -1.64281770
H           2.97160105     -2.87064055     -1.46080374
H           3.81396524     -2.95419095      0.09689834
H           4.65678809     -2.34769208     -1.34054696
          73
 Energy =    -1168.35793596 a.u.  Frame:     8 Step:     8 Geom:     8
C          -5.19930979      0.07143805     -0.58140503
C          -6.62412272     -0.41539190     -0.69910947
C          -7.57397982      0.52105143      0.05892076
H          -6.71873672     -1.43762919     -0.31568506
H          -6.93037491     -0.41965806     -1.75573170
C          -5.01094752      1.47900182     -0.99835043
C          -5.98477045      2.45124692     -0.37061674
C          -7.43339319      1.95159436     -0.46348367
H          -5.88672561      3.43844053     -0.83450123
H          -5.72110273      2.56758623      0.69168104
H          -7.76183036      1.96953429     -1.51159086
H          -8.09760716      2.61524219      0.10215293
O          -7.33654394      0.44636672      1.47482252
H          -8.60824263      0.18200962     -0.07846290
C          -4.22653386     -0.71767654     -0.06656757
C          -4.08790517      1.86098454     -1.88754674
H          -3.40884707      1.14423491     -2.34169682
H          -3.99765888      2.90224175     -2.18814081
C          -2.85958036     -0.32460063      0.18840675
H          -4.51960169     -1.73067824      0.20632109
C          -1.85996544     -1.12533591      0.61599159
H          -2.63238537      0.72680770      0.02769622