          73
 Energy =    -1168.36168282 a.u.  Frame:     1 Step:     1 Geom:     1
C          -4.99709556      0.21513374     -0.49949286
C          -6.44484925     -0.18380039     -0.66195553
C          -7.35404140      0.76033463      0.13507591
H          -6.60086984     -1.21848164     -0.33612508
H          -6.73426482     -0.11476453     -1.72107949
C          -4.72389735      1.63094141     -0.83173934
C          -5.65474392      2.62020120     -0.16579499
C          -7.12686987      2.20746890     -0.30511459
H          -5.49594954      3.62376279     -0.57466245
H          -5.40142045      2.66604485      0.90432534
H          -7.43740418      2.30181604     -1.35462549
H          -7.76253196      2.87480511      0.28832889
O          -7.14303833      0.59538100      1.54728247
H          -8.40311093      0.48690885     -0.03272425
C          -4.07725162     -0.65837617     -0.02506808
C          -3.76277504      2.01063513     -1.68082347
H          -3.11531035      1.28352360     -2.16367674
H          -3.61008637      3.06067955     -1.91897567
C          -2.69369610     -0.36289253      0.26779477
H          -4.43189959     -1.66785371      0.17977569
C          -1.74328065     -1.24953702      0.63245006
H          -2.40633491      0.68324391      0.18916541
C          -1.93317422     -2.73915761      0.76425988
C          -0.92592020     -3.51663905     -0.10577670
H          -2.95119661     -3.05275028      0.51772219
H          -1.75733604     -3.01124079      1.81713778
C           0.52311744     -3.06250835      0.11733007
H          -1.19575231     -3.39215083     -1.16212510
H          -1.01315782     -4.58780699      0.11379680
C           0.68137001     -1.54616812     -0.05988185
H           1.17716464     -3.61415057     -0.56609445
H           0.83201316     -3.32674640      1.13997054
C          -0.32634671     -0.85339606      0.91338778
H          -0.07681469     -1.26592029      1.90805310
C           0.10105936      0.61148886      0.91228662
H          -6.18922732      0.52095155      1.69359878
C           1.64372180      0.54024931      0.80000055
H          -0.23763114      1.13954914      1.80981537
H          -0.32014196      1.13926262      0.04935894
C           2.01222157     -0.93505197      0.45927893
H           2.13654104      0.85474084      1.72528477
H           2.01062733      1.20950111      0.01299058
H           2.25293072     -1.46256597      1.39686375
C           3.26480474     -1.01103355     -0.43727977
C           0.41808369     -1.12852379     -1.51284863
H           0.63597150     -0.06766086     -1.67228083
H          -0.62648024     -1.29303704     -1.79487449
H           1.04757028     -1.70372568     -2.20065103
H           3.05450730     -0.46713688     -1.36996586
C           3.68228843     -2.44753415     -0.78673481
C           4.41381465     -0.32225425      0.24990792
C           5.08351230      0.72488400     -0.22714876
H           4.71382587     -0.75028073      1.21178550
H           4.78212487      1.15120382     -1.18949857
C           6.22687274      1.41854394      0.45913774
C           5.79889496      2.84896485      0.82597602
C           7.50031518      1.39603364     -0.42195975
H           6.45592004      0.87226262      1.38825499
H           7.25131018      1.90688583     -1.36632972
C           7.91602841     -0.04138479     -0.74624829
C           8.66757987      2.13898141      0.23405207
H           5.65158742      3.45067561     -0.07977823
H           6.54461060      3.35002333      1.45016382
H           4.85315686      2.83310941      1.37756842
H           7.12163105     -0.58429845     -1.26724995
H           8.14459296     -0.58893246      0.17754504
H           8.81248976     -0.05483010     -1.37583430
H           8.46848990      3.20790884      0.35155752
H           9.57474682      2.03496839     -0.37128840
H           8.87836117      1.72035624      1.22678294
H           2.95052767     -2.93917671     -1.43276589
H           3.79514644     -3.05155120      0.12201230
H           4.64406052     -2.44391826     -1.31104457
          73
 Energy =    -1168.35933892 a.u.  Frame:     2 Step:     2 Geom:     2
C          -5.14136358      0.12670267     -0.60924335
C          -6.57465653     -0.32789032     -0.74977387
C          -7.51390407      0.62480349      0.00131615
H          -6.69744786     -1.34990939     -0.37364138
H          -6.86620107     -0.31965074     -1.81051273
C          -4.91641409      1.53147895     -1.01731738
C          -5.87729274      2.52236106     -0.39844342
C          -7.33527333      2.05484105     -0.51105308
H          -5.75257172      3.50860313     -0.85803683
H          -5.62383253      2.63032345      0.66720326
H          -7.65109617      2.08610991     -1.56271507
H          -7.99142207      2.72974811      0.05073922
O          -7.29700309      0.53660614      1.41960682
H          -8.55349197      0.30925606     -0.15096332
C          -4.19359248     -0.68602862     -0.08440400
C          -3.97266279      1.89709646     -1.89157545
H          -3.30323238      1.16731914     -2.33921270
H          -3.85592438      2.93747879     -2.18602480
C          -2.82247271     -0.32391013      0.19163247
H          -4.51303751     -1.69376800      0.17866134
C          -1.84557672     -1.14619684      0.63014420
H          -2.56995120      0.72265719      0.03668548
C          -1.98725127     -2.62537546      0.88506957
C          -0.92470321     -3.44004184      0.12175094
H          -2.98530036     -2.99540833      0.63492864
H          -1.84070565     -2.79764502      1.96335723
C           0.49893761     -2.91232127      0.34605304
H          -1.16189045     -3.42299824     -0.94953275
H          -0.98176473     -4.48911848      0.43690004
C           0.60977049     -1.41500432      0.02666193
H           1.19633994     -3.50176644     -0.25821610
H           0.78006559     -3.06369344      1.39922665
C          -0.45084864     -0.67158519      0.89893150
H          -0.21382477     -0.96950483      1.93734450
C          -0.07776165      0.79928684      0.75351016
H          -6.34133789      0.49828882      1.56799986
C           1.46965772      0.77395181      0.73425002
H          -0.48110112      1.41241220      1.56635954
H          -0.46932063      1.20835175     -0.18468656
C           1.90595821     -0.71024668      0.52166588
H           1.87982245      1.17060604      1.66701774
H           1.86831374      1.40341531     -0.07032351
H           2.13615724     -1.15690019      1.50170428
C           3.16272194     -0.81666033     -0.35336127
C           0.36675046     -1.14962778     -1.46586012
H           0.57256930     -0.10776638     -1.73153012
H          -0.67141576     -1.35663959     -1.74393600
H           1.01232757     -1.78247796     -2.08409467
H           2.93578409     -0.32869999     -1.31455724
C           3.59656126     -2.26126046     -0.66298655
C           4.36118574     -0.09796083      0.22611453
C           4.57727922      0.23257367      1.49825487
H           5.15690817      0.10632106     -0.49594775
H           3.81382860      0.03077506      2.25341279
C           5.83485385      0.86611240      2.02550652
C           6.51797720     -0.10866797      2.99866006
C           5.52794992      2.23348925      2.68411029
H           6.51387214      1.04923892      1.17730645
H           4.79957106      2.04892097      3.49077748
C           4.89786947      3.19739935      1.67533482
C           6.77584765      2.87048162      3.30235865
H           5.90794211     -0.24147039      3.90113192
H           7.50617264      0.24672050      3.30485978
H           6.64306190     -1.08970082      2.52892299
H           3.97607348      2.79032612      1.24860179
H           5.59371468      3.38840208      0.84787524
H           4.66422438      4.15785317      2.14771780
H           7.17419269      2.28288175      4.13426609
H           6.54465842      3.87113414      3.68399947
H           7.56755458      2.97507019      2.54894439
H           2.88115468     -2.77665502     -1.30885371
H           3.70381184     -2.83437366      0.26559015
H           4.56687748     -2.26546037     -1.17221132