
                                 *****************
                                 * O   R   C   A *
                                 *****************

                                            #,                                       
                                            ###                                      
                                            ####                                     
                                            #####                                    
                                            ######                                   
                                           ########,                                 
                                     ,,################,,,,,                         
                               ,,#################################,,                 
                          ,,##########################################,,             
                       ,#########################################, ''#####,          
                    ,#############################################,,   '####,        
                  ,##################################################,,,,####,       
                ,###########''''           ''''###############################       
              ,#####''   ,,,,##########,,,,          '''####'''          '####       
            ,##' ,,,,###########################,,,                        '##       
           ' ,,###''''                  '''############,,,                           
         ,,##''                                '''############,,,,        ,,,,,,###''
      ,#''                                            '''#######################'''  
     '                                                          ''''####''''         
             ,#######,   #######,   ,#######,      ##                                
            ,#'     '#,  ##    ##  ,#'     '#,    #''#        ,####,   ,####,        
            ##       ##  ##   ,#'  ##            #'  '#       #'       #'  '#        
            ##       ##  #######   ##           ,######,      #####,   #    #        
            '#,     ,#'  ##    ##  '#,     ,#' ,#      #,     #,   #   #,  ,#        
             '#######'   ##     ##  '#######'  #'      '#     '####' # '####'        



                #########################################################
                #                        -***-                          #
                #          Department of theory and spectroscopy        #
                #                                                       #
                #                      Frank Neese                      #
                #                                                       #
                #     Directorship, Architecture, Infrastructure        #
                #                    SHARK, DRIVERS                     #
                #        Core code/Algorithms in most modules           #
                #                                                       #
                #        Max Planck Institute fuer Kohlenforschung      #
                #                Kaiser Wilhelm Platz 1                 #
                #                 D-45470 Muelheim/Ruhr                 #
                #                      Germany                          #
                #                                                       #
                #                  All rights reserved                  #
                #                        -***-                          #
                #########################################################


                         Program Version 6.0.0  -   RELEASE  -


 With contributions from (in alphabetic order):
   Daniel Aravena         : Magnetic Suceptibility
   Michael Atanasov       : Ab Initio Ligand Field Theory (pilot matlab implementation)
   Alexander A. Auer      : GIAO ZORA, VPT2 properties, NMR spectrum
   Ute Becker             : All parallelization in ORCA, NUMFREQ, NUMCALC
   Giovanni Bistoni       : ED, misc. LED, open-shell LED, HFLD
   Martin Brehm           : Molecular dynamics
   Dmytro Bykov           : pre 5.0 version of the SCF Hessian
   Marcos Casanova-Páez   : Triplet and SCS-CIS(D). UHF-(DLPNO)-IP/EA/STEOM-CCSD. UHF-CVS-IP/STEOM-CCSD
   Vijay G. Chilkuri      : MRCI spin determinant printing, contributions to CSF-ICE
   Pauline Colinet        : FMM embedding
   Dipayan Datta          : RHF DLPNO-CCSD density
   Achintya Kumar Dutta   : EOM-CC, STEOM-CC
   Nicolas Foglia         : Exact transition moments, OPA infrastructure, MCD improvements
   Dmitry Ganyushin       : Spin-Orbit,Spin-Spin,Magnetic field MRCI
   Miquel Garcia          : C-PCM and meta-GGA Hessian, CCSD/C-PCM, Gaussian charge scheme
   Tiago L. C. Gouveia    : GS-ROHF, GS-ROCIS
   Yang Guo               : DLPNO-NEVPT2, F12-NEVPT2, CIM, IAO-localization
   Andreas Hansen         : Spin unrestricted coupled pair/coupled cluster methods
   Ingolf Harden          : AUTO-CI MPn and infrastructure 
   Benjamin Helmich-Paris : MC-RPA, TRAH-(SCF,CASSCF), AVAS, COSX integrals, SCF dyn. polar.
   Lee Huntington         : MR-EOM, pCC
   Robert Izsak           : Overlap fitted RIJCOSX, COSX-SCS-MP3, EOM
   Riya Kayal             : Wick's Theorem for AUTO-CI, AUTO-CI UHF-CCSDT
   Emily Kempfer          : AUTO-CI, RHF CISDT and CCSDT
   Christian Kollmar      : KDIIS, OOCD, Brueckner-CCSD(T), CCSD density, CASPT2, CASPT2-K, improved NEVPT2
   Axel Koslowski         : Symmetry handling
   Simone Kossmann        : Meta GGA functionals, TD-DFT gradient, OOMP2, (MP2 Hessian; deprecated post 5.0)
   Lucas Lang             : DCDCAS
   Marvin Lechner         : AUTO-CI (C++ implementation), FIC-MRCC
   Spencer Leger          : CASSCF response
   Dagmar Lenk            : GEPOL surface, SMD, ORCA-2-JSON
   Dimitrios Liakos       : Extrapolation schemes; Compound Job, initial MDCI parallelization
   Dimitrios Manganas     : Further ROCIS development; embedding schemes. LFT, Crystal Embedding
   Dimitrios Pantazis     : SARC Basis sets
   Anastasios Papadopoulos: AUTO-CI, single reference methods and gradients
   Taras Petrenko         : pre 6.0 DFT Hessian and TD-DFT gradient, (ASA, deprecated), ECA, 1-Electron XAS/XES, NRVS
   Peter Pinski           : DLPNO-MP2, DLPNO-MP2 Gradient
   Christoph Reimann      : Effective Core Potentials
   Marius Retegan         : Local ZFS, SOC
   Christoph Riplinger    : Optimizer, TS searches, QM/MM, DLPNO-CCSD(T), (RO)-DLPNO pert. Triples
   Michael Roemelt        : Original ROCIS implementation
   Masaaki Saitow         : Open-shell DLPNO-CCSD energy and density
   Barbara Sandhoefer     : DKH picture change effects
   Kantharuban Sivalingam : CASSCF convergence/infrastructure, NEVPT2 and variants, FIC-MRCI
   Bernardo de Souza      : ESD, SOC TD-DFT
   Georgi Stoychev        : AutoAux, RI-MP2 NMR, DLPNO-MP2 response, X2C
   Van Anh Tran           : RI-MP2 g-tensors
   Willem Van den Heuvel  : Paramagnetic NMR
   Zikuan Wang            : NOTCH, Electric field optimization 
   Frank Wennmohs         : Technical directorship and infrastructure
   Hang Xu                : AUTO-CI-Response properties 


 We gratefully acknowledge several colleagues who have allowed us to
 interface, adapt or use parts of their codes:
   Stefan Grimme, W. Hujo, H. Kruse, P. Pracht,  : VdW corrections, initial TS optimization,
                  C. Bannwarth, S. Ehlert,         DFT functionals, gCP, sTDA/sTD-DF
                  L. Wittmann, M. Mueller
   Ed Valeev, F. Pavosevic, A. Kumar             : LibInt (2-el integral package), F12 methods
   Garnet Chan, S. Sharma, J. Yang, R. Olivares  : DMRG
   Ulf Ekstrom                                   : XCFun DFT Library
   Mihaly Kallay                                 : mrcc  (arbitrary order and MRCC methods)
   Frank Weinhold                                : gennbo (NPA and NBO analysis)
   Simon Mueller                                 : openCOSMO-RS
   Christopher J. Cramer and Donald G. Truhlar   : smd solvation model
   Lars Goerigk                                  : TD-DFT with DH, B97 family of functionals
   V. Asgeirsson, H. Jonsson                     : NEB implementation
   FAccTs GmbH                                   : IRC, NEB, NEB-TS, DLPNO-Multilevel, CI-OPT
                                                   MM, QMMM, 2- and 3-layer-ONIOM, Crystal-QMMM,
                                                   LR-CPCM, SF, NACMEs, symmetry and pop. for TD-DFT,
                                                   nearIR, NL-DFT gradient (VV10), updates on ESD,
                                                   ML-optimized integration grids, MBIS, APM,
                                                   GOAT, DOCKER, SOLVATOR, interface openCOSMO-RS
   S Lehtola, MJT Oliveira, MAL Marques          : LibXC Library
   Liviu Ungur et al                             : ANISO software


 Your calculation uses the libint2 library for the computation of 2-el integrals
 For citations please refer to: http://libint.valeyev.net

 Your ORCA version has been built with support for libXC version: 6.2.2
 For citations please refer to: https://libxc.gitlab.io

 This ORCA versions uses:
   CBLAS   interface :  Fast vector & matrix operations
   LAPACKE interface :  Fast linear algebra routines
   SCALAPACK package :  Parallel linear algebra routines
   Shared memory     :  Shared parallel matrices
   BLAS/LAPACK       :  OpenBLAS 0.3.27  USE64BITINT DYNAMIC_ARCH NO_AFFINITY Zen SINGLE_THREADED
        Core in use  :  Zen
   Copyright (c) 2011-2014, The OpenBLAS Project


NOTE: MaxCore=8000 MB was set to SCF,MP2,MDCI,CIPSI,MRCI and CIS
      => If you want to overwrite this, your respective input block should be placed after the MaxCore statement
Your calculation utilizes the atom-pairwise dispersion correction
based on EEQ partial charges (D4)


================================================================================

----- Orbital basis set information -----
Your calculation utilizes the basis: pcJ-0
   F. Jensen, Theor. Chem. Acc. 126, 371 (2010).

----- AuxJ basis set information -----
Your calculation utilizes the auxiliary basis: def2/J
   F. Weigend, Phys. Chem. Chem. Phys. 8, 1057 (2006).

================================================================================
                                        WARNINGS
                       Please study these warnings very carefully!
================================================================================


================================================================================
                                       INPUT FILE
================================================================================
NAME = inpJ
|  1> ! pbe0
|  2> ! D4
|  3> ! pcJ-0
|  4> ! def2/J RIJCOSX
|  5> ! DEFGRID2
|  6> ! scfconv7
|  7> ! smallprint printgap noloewdin
|  8> ! NOSOSCF
|  9> %MaxCore 8000
| 10> %output
| 11>        print[P_BondOrder_M] 1
| 12>        print[P_Mayer] 1
| 13>        print[P_basis] 2
| 14> end
| 15> %pal
| 16>     nprocs 4
| 17> end
| 18> ! CPCM(chloroform)
| 19> *xyz 0 1
| 20> C   -5.1081181600   0.2110846100  -0.6241322000
| 21> C   -6.5499186900  -0.2014836700  -0.8029376400
| 22> C   -7.4783272600   0.7536818000  -0.0416588000
| 23> H   -6.7051531300  -1.2298639300  -0.4573882600
| 24> H   -6.8216288600  -0.1568978600  -1.8680334800
| 25> C   -4.8391060300   1.6204286000  -0.9866842100
| 26> C   -5.7859175400   2.6181592700  -0.3569923800
| 27> C   -7.2532051600   2.1925983800  -0.5090548400
| 28> H   -5.6273862400   3.6134379600  -0.7857312000
| 29> H   -5.5489916000   2.6896902400   0.7155223300
| 30> H   -7.5486957000   2.2627028200  -1.5647873500
| 31> H   -7.9019193600   2.8681673400   0.0605273100
| 32> O   -7.2901436900   0.6198266600   1.3769593200
| 33> H   -8.5227013500   0.4697788700  -0.2209136900
| 34> C   -4.1919473900  -0.6420943900  -0.1075332800
| 35> C   -3.8688681200   1.9863615900  -1.8312713000
| 36> H   -3.2098726200   1.2522937300  -2.2872489100
| 37> H   -3.7195529500   3.0314371900  -2.0923902700
| 38> C   -2.8169373700  -0.3270592000   0.2038915500
| 39> H   -4.5436398800  -1.6479471200   0.1191962200
| 40> C   -1.8714804300  -1.1903548700   0.6321352200
| 41> H   -2.5324641600   0.7162510100   0.0865438000
| 42> C   -2.0583154200  -2.6723374800   0.8354186200
| 43> C   -1.0101429900  -3.4908973200   0.0564178100
| 44> H   -3.0631137000  -3.0058950000   0.5620729800
| 45> H   -1.9293968000  -2.8848164600   1.9087561200
| 46> C    0.4253504300  -3.0122179500   0.3129950300
| 47> H   -1.2350338700  -3.4322741600  -1.0160727100
| 48> H   -1.1003687900  -4.5478362000   0.3356577800
| 49> C    0.5824581300  -1.5079106000   0.0497896500
| 50> H    1.1121812800  -3.5996469500  -0.3053520600
| 51> H    0.6913721900  -3.2089823200   1.3625320400
| 52> C   -0.4677314100  -0.7667833400   0.9373838300
| 53> H   -0.2534084800  -1.1103299500   1.9663521700
| 54> C   -0.0504324900   0.6970562000   0.8539800300
| 55> H   -6.3382271300   0.5594736800   1.5411819600
| 56> C    1.4956137100   0.6273348100   0.8503971200
| 57> H   -0.4461462200   1.2891953700   1.6859124200
| 58> H   -0.4193791800   1.1532249300  -0.0715078000
| 59> C    1.8915209000  -0.8600413500   0.5869941600
| 60> H    1.9085184800   0.9765899800   1.8007084100
| 61> H    1.9208634900   1.2733758900   0.0731321600
| 62> H    2.0942205800  -1.3504038800   1.5521260400
| 63> C    3.1563089000  -0.9689586200  -0.2757760200
| 64> C    0.3662324700  -1.1810610500  -1.4342741000
| 65> H    0.5945256200  -0.1336119300  -1.6555166600
| 66> H   -0.6714025300  -1.3584768400  -1.7339023600
| 67> H    1.0091036000  -1.8015045100  -2.0676222300
| 68> H    2.9539738300  -0.4384127600  -1.2196936300
| 69> C    3.5538466700  -2.4120257300  -0.6361770300
| 70> C    4.3703195100  -0.3053268300   0.3408205300
| 71> C    4.5762141200  -0.0541204300   1.6331973300
| 72> H    5.1605815800  -0.0843340100  -0.3781307700
| 73> H    3.7831440100  -0.2900198800   2.3451316400
| 74> C    5.8040105900   0.5383568100   2.2834705200
| 75> C    5.3640069800   1.6370685000   3.2669188200
| 76> C    6.9039773600   1.0026431800   1.3061346000
| 77> H    6.2473904900  -0.2690616600   2.8917938000
| 78> H    7.0273913300   0.2032962200   0.5612014300
| 79> C    8.2531365600   1.1578388800   2.0152946800
| 80> C    6.5444361800   2.2949983500   0.5652448300
| 81> H    4.8295839900   2.4392520400   2.7468557600
| 82> H    6.2181698100   2.0768229300   3.7915106900
| 83> H    4.6867428800   1.2218330600   4.0210914100
| 84> H    8.5485363800   0.2289723200   2.5163718000
| 85> H    8.2202097800   1.9541164800   2.7677700800
| 86> H    9.0376768800   1.4188747900   1.2961530700
| 87> H    5.5424561200   2.2514506000   0.1266050200
| 88> H    7.2617642200   2.4842439500  -0.2410211700
| 89> H    6.5777391100   3.1550560600   1.2440122300
| 90> H    2.8316801400  -2.8829110900  -1.3081014700
| 91> H    3.6363772300  -3.0226496700   0.2707503200
| 92> H    4.5291335700  -2.4233861100  -1.1358782600
| 93> *
| 94> %eprnmr
| 95>  Nuclei = all C { ssfc }
| 96>  SpinSpinRThresh 8.0
| 97> end
| 98> 
| 99>                          ****END OF INPUT****
================================================================================

                       ****************************
                       * Single Point Calculation *
                       ****************************

---------------------------------
CARTESIAN COORDINATES (ANGSTROEM)
---------------------------------
  C     -5.108118    0.211085   -0.624132
  C     -6.549919   -0.201484   -0.802938
  C     -7.478327    0.753682   -0.041659
  H     -6.705153   -1.229864   -0.457388
  H     -6.821629   -0.156898   -1.868033
  C     -4.839106    1.620429   -0.986684
  C     -5.785918    2.618159   -0.356992
  C     -7.253205    2.192598   -0.509055
  H     -5.627386    3.613438   -0.785731
  H     -5.548992    2.689690    0.715522
  H     -7.548696    2.262703   -1.564787
  H     -7.901919    2.868167    0.060527
  O     -7.290144    0.619827    1.376959
  H     -8.522701    0.469779   -0.220914
  C     -4.191947   -0.642094   -0.107533
  C     -3.868868    1.986362   -1.831271
  H     -3.209873    1.252294   -2.287249
  H     -3.719553    3.031437   -2.092390
  C     -2.816937   -0.327059    0.203892
  H     -4.543640   -1.647947    0.119196
  C     -1.871480   -1.190355    0.632135
  H     -2.532464    0.716251    0.086544
  C     -2.058315   -2.672337    0.835419
  C     -1.010143   -3.490897    0.056418
  H     -3.063114   -3.005895    0.562073
  H     -1.929397   -2.884816    1.908756
  C      0.425350   -3.012218    0.312995
  H     -1.235034   -3.432274   -1.016073
  H     -1.100369   -4.547836    0.335658
  C      0.582458   -1.507911    0.049790
  H      1.112181   -3.599647   -0.305352
  H      0.691372   -3.208982    1.362532
  C     -0.467731   -0.766783    0.937384
  H     -0.253408   -1.110330    1.966352
  C     -0.050432    0.697056    0.853980
  H     -6.338227    0.559474    1.541182
  C      1.495614    0.627335    0.850397
  H     -0.446146    1.289195    1.685912
  H     -0.419379    1.153225   -0.071508
  C      1.891521   -0.860041    0.586994
  H      1.908518    0.976590    1.800708
  H      1.920863    1.273376    0.073132
  H      2.094221   -1.350404    1.552126
  C      3.156309   -0.968959   -0.275776
  C      0.366232   -1.181061   -1.434274
  H      0.594526   -0.133612   -1.655517
  H     -0.671403   -1.358477   -1.733902
  H      1.009104   -1.801505   -2.067622
  H      2.953974   -0.438413   -1.219694
  C      3.553847   -2.412026   -0.636177
  C      4.370320   -0.305327    0.340821
  C      4.576214   -0.054120    1.633197
  H      5.160582   -0.084334   -0.378131
  H      3.783144   -0.290020    2.345132
  C      5.804011    0.538357    2.283471
  C      5.364007    1.637069    3.266919
  C      6.903977    1.002643    1.306135
  H      6.247390   -0.269062    2.891794
  H      7.027391    0.203296    0.561201
  C      8.253137    1.157839    2.015295
  C      6.544436    2.294998    0.565245
  H      4.829584    2.439252    2.746856
  H      6.218170    2.076823    3.791511
  H      4.686743    1.221833    4.021091
  H      8.548536    0.228972    2.516372
  H      8.220210    1.954116    2.767770
  H      9.037677    1.418875    1.296153
  H      5.542456    2.251451    0.126605
  H      7.261764    2.484244   -0.241021
  H      6.577739    3.155056    1.244012
  H      2.831680   -2.882911   -1.308101
  H      3.636377   -3.022650    0.270750
  H      4.529134   -2.423386   -1.135878

----------------------------
CARTESIAN COORDINATES (A.U.)
----------------------------
  NO LB      ZA    FRAG     MASS         X           Y           Z
   0 C     6.0000    0    12.011   -9.652944    0.398892   -1.179439
   1 C     6.0000    0    12.011  -12.377553   -0.380749   -1.517332
   2 C     6.0000    0    12.011  -14.131990    1.424252   -0.078724
   3 H     1.0000    0     1.008  -12.670903   -2.324106   -0.864339
   4 H     1.0000    0     1.008  -12.891010   -0.296494   -3.530072
   5 C     6.0000    0    12.011   -9.144585    3.062166   -1.864563
   6 C     6.0000    0    12.011  -10.933800    4.947604   -0.674618
   7 C     6.0000    0    12.011  -13.706571    4.143410   -0.961974
   8 H     1.0000    0     1.008  -10.634219    6.828408   -1.484817
   9 H     1.0000    0     1.008  -10.486074    5.082778    1.352141
  10 H     1.0000    0     1.008  -14.264968    4.275889   -2.957020
  11 H     1.0000    0     1.008  -14.932464    5.420051    0.114380
  12 O     8.0000    0    15.999  -13.776375    1.171303    2.602076
  13 H     1.0000    0     1.008  -16.105571    0.887753   -0.417466
  14 C     6.0000    0    12.011   -7.921633   -1.213383   -0.203208
  15 C     6.0000    0    12.011   -7.311101    3.753679   -3.460601
  16 H     1.0000    0     1.008   -6.065780    2.366492   -4.322274
  17 H     1.0000    0     1.008   -7.028936    5.728586   -3.954045
  18 C     6.0000    0    12.011   -5.323240   -0.618052    0.385299
  19 H     1.0000    0     1.008   -8.586235   -3.114169    0.225248
  20 C     6.0000    0    12.011   -3.536585   -2.249445    1.194562
  21 H     1.0000    0     1.008   -4.785664    1.353518    0.163544
  22 C     6.0000    0    12.011   -3.889652   -5.049986    1.578712
  23 C     6.0000    0    12.011   -1.908894   -6.596840    0.106614
  24 H     1.0000    0     1.008   -5.788446   -5.680318    1.062164
  25 H     1.0000    0     1.008   -3.646032   -5.451513    3.607026
  26 C     6.0000    0    12.011    0.803796   -5.692267    0.591475
  27 H     1.0000    0     1.008   -2.333876   -6.486058   -1.920099
  28 H     1.0000    0     1.008   -2.079396   -8.594165    0.634301
  29 C     6.0000    0    12.011    1.100686   -2.849538    0.094089
  30 H     1.0000    0     1.008    2.101718   -6.802347   -0.577032
  31 H     1.0000    0     1.008    1.306504   -6.064098    2.574812
  32 C     6.0000    0    12.011   -0.883884   -1.449011    1.771399
  33 H     1.0000    0     1.008   -0.478873   -2.098220    3.715867
  34 C     6.0000    0    12.011   -0.095304    1.317245    1.613788
  35 H     1.0000    0     1.008  -11.977513    1.057252    2.912412
  36 C     6.0000    0    12.011    2.826300    1.185491    1.607018
  37 H     1.0000    0     1.008   -0.843094    2.436226    3.185913
  38 H     1.0000    0     1.008   -0.792512    2.179279   -0.135130
  39 C     6.0000    0    12.011    3.574456   -1.625243    1.109258
  40 H     1.0000    0     1.008    3.606577    1.845488    3.402846
  41 H     1.0000    0     1.008    3.629906    2.406332    0.138200
  42 H     1.0000    0     1.008    3.957503   -2.551894    2.933093
  43 C     6.0000    0    12.011    5.964559   -1.831066   -0.521141
  44 C     6.0000    0    12.011    0.692079   -2.231882   -2.710385
  45 H     1.0000    0     1.008    1.123491   -0.252490   -3.128473
  46 H     1.0000    0     1.008   -1.268767   -2.567149   -3.276601
  47 H     1.0000    0     1.008    1.906929   -3.404350   -3.907240
  48 H     1.0000    0     1.008    5.582202   -0.828480   -2.304887
  49 C     6.0000    0    12.011    6.715797   -4.558068   -1.202200
  50 C     6.0000    0    12.011    8.258707   -0.576984    0.644057
  51 C     6.0000    0    12.011    8.647791   -0.102273    3.086296
  52 H     1.0000    0     1.008    9.752086   -0.159368   -0.714564
  53 H     1.0000    0     1.008    7.149106   -0.548058    4.431657
  54 C     6.0000    0    12.011   10.967990    1.017347    4.315134
  55 C     6.0000    0    12.011   10.136504    3.093611    6.173582
  56 C     6.0000    0    12.011   13.046626    1.894721    2.468237
  57 H     1.0000    0     1.008   11.805857   -0.508453    5.464698
  58 H     1.0000    0     1.008   13.279845    0.384174    1.060517
  59 C     6.0000    0    12.011   15.596168    2.187998    3.808355
  60 C     6.0000    0    12.011   12.367192    4.336918    1.068158
  61 H     1.0000    0     1.008    9.126591    4.609518    5.190805
  62 H     1.0000    0     1.008   11.750638    3.924627    7.164917
  63 H     1.0000    0     1.008    8.856661    2.308930    7.598762
  64 H     1.0000    0     1.008   16.154393    0.432695    4.755254
  65 H     1.0000    0     1.008   15.533945    3.692745    5.230327
  66 H     1.0000    0     1.008   17.078734    2.681285    2.449374
  67 H     1.0000    0     1.008   10.473724    4.254625    0.239249
  68 H     1.0000    0     1.008   13.722746    4.694541   -0.455464
  69 H     1.0000    0     1.008   12.430125    5.962192    2.350842
  70 H     1.0000    0     1.008    5.351100   -5.447912   -2.471954
  71 H     1.0000    0     1.008    6.871757   -5.711980    0.511644
  72 H     1.0000    0     1.008    8.558822   -4.579536   -2.146499

--------------------------------
INTERNAL COORDINATES (ANGSTROEM)
--------------------------------
 C      0   0   0     0.000000000000     0.00000000     0.00000000
 C      1   0   0     1.510288958890     0.00000000     0.00000000
 C      2   1   0     1.534219352036   110.41864869     0.00000000
 H      2   1   3     1.095932509116   110.74609389   237.90809756
 H      2   1   3     1.100110657761   109.83644088   118.75599676
 C      1   2   3     1.479885795658   113.87118957   305.89981573
 C      6   1   2     1.512755871281   114.35297972    50.05159582
 C      3   2   1     1.529581623293   110.18083834    56.79930001
 H      7   6   1     1.095230030461   110.23139863   188.67395574
 H      7   6   1     1.100699043281   108.28451841    72.01671530
 H      8   3   2     1.098544684757   108.30690794    64.56462073
 H      8   3   2     1.096196770017   109.50455253   181.52400453
 O      3   2   1     1.437291767497   110.64290748   292.76798959
 H      3   2   1     1.097018882752   109.50538525   177.28339199
 C      1   2   3     1.354310795198   121.25696144   122.56952905
 C      6   1   2     1.337383979180   123.17281906   232.01100789
 H     16   6   1     1.086759528565   121.33686153   358.99644562
 H     16   6   1     1.087502251125   120.94307591   178.39587973
 C     15   1   2     1.444605534663   126.06789777   185.08652949
 H     15   1   2     1.089418922243   116.27305065     3.06083989
 C     19  15   1     1.350022548008   126.54960294   184.88328945
 H     19  15   1     1.087746154178   115.77495008     5.55691959
 C     21  19  15     1.507482640214   125.77679520     1.76464888
 C     23  21  19     1.541281258127   111.69491421   125.65768568
 H     23  21  19     1.093434059076   112.33837264     1.93979686
 H     23  21  19     1.101735320497   107.84646506   244.28001535
 C     24  23  21     1.534798738581   112.70158833    50.72350443
 H     24  23  21     1.097382566968   109.03948990   288.55510915
 H     24  23  21     1.096920895911   109.09469096   172.65948740
 C     27  24  23     1.535220018344   111.87960134   306.39646853
 H     27  24  23     1.095062815670   108.96086767   182.79208454
 H     27  24  23     1.100459780935   109.25468604    66.30852279
 C     21  19  15     1.497698523096   122.69700980   180.32435049
 H     33  21  19     1.105773230047   106.46637925   126.18568734
 C     33  21  19     1.524441137386   121.13048660     3.54745692
 H     13   3   2     0.967861919328   107.58081924    42.63632289
 C     35  33  21     1.547621646916   103.31633607   195.14997412
 H     35  33  21     1.095139102712   112.25500810    73.37025127
 H     35  33  21     1.095782502949   110.71913466   313.67438120
 C     30  27  24     1.556267517640   115.77345678   166.40361321
 H     37  35  33     1.093417153131   111.15187904   252.06777804
 H     37  35  33     1.096515969095   111.25519485   133.75469355
 H     40  30  27     1.101372832828   105.78027829   322.32747141
 C     40  30  27     1.534901964343   118.00552827    83.28228936
 C     30  27  24     1.534936278300   111.10013512   294.65354644
 H     45  30  27     1.094630390443   111.70328386   186.92315889
 H     45  30  27     1.094504385536   111.32864328    66.97934727
 H     45  30  27     1.095154432315   110.84376087   306.94087711
 H     44  40  30     1.101543845965   107.22538383    62.54201116
 C     44  40  30     1.539599899503   114.25891176   303.70953491
 C     44  40  30     1.514734372543   113.61089146   180.00574517
 C     51  44  40     1.332567086118   126.95690520    23.39361692
 H     51  44  40     1.090982556022   113.64333663   199.27844445
 H     52  51  44     1.091539835114   118.65644654   356.38773118
 C     52  51  44     1.510420032076   128.10355969   176.47219473
 C     55  52  51     1.538811591238   108.83151762   133.32873932
 C     55  52  51     1.542943365453   115.14033581     5.03632709
 H     55  52  51     1.103887464559   106.07151228   247.62845619
 H     57  55  52     1.099596288744   106.88114178   314.66505489
 C     57  55  52     1.532065361304   111.41221777   198.38785685
 C     57  55  52     1.532439035274   113.12554846    73.61032470
 H     56  55  52     1.095249720595   111.03911805   299.10281047
 H     56  55  52     1.094611679514   111.71595285   178.07770228
 H     56  55  52     1.095391905798   110.25176978    58.29940312
 H     60  57  55     1.095961869834   111.29265349    56.00048443
 H     60  57  55     1.096066337731   111.40231945   295.33406580
 H     60  57  55     1.095813814135   110.53812762   176.00857777
 H     61  57  55     1.094653063799   112.02060171   310.87787653
 H     61  57  55     1.095645141844   110.35493514   190.33495331
 H     61  57  55     1.096144850364   110.80491042    71.41604107
 H     50  44  40     1.093041615120   112.15385048    67.49166266
 H     50  44  40     1.096444302103   110.35305316   306.32155199
 H     50  44  40     1.095908260216   110.25761732   187.44096892

---------------------------
INTERNAL COORDINATES (A.U.)
---------------------------
 C      0   0   0     0.000000000000     0.00000000     0.00000000
 C      1   0   0     2.854032515387     0.00000000     0.00000000
 C      2   1   0     2.899254404710   110.41864869     0.00000000
 H      2   1   3     2.071012303491   110.74609389   237.90809756
 H      2   1   3     2.078907860177   109.83644088   118.75599676
 C      1   2   3     2.796578863274   113.87118957   305.89981573
 C      6   1   2     2.858694304203   114.35297972    50.05159582
 C      3   2   1     2.890490367502   110.18083834    56.79930001
 H      7   6   1     2.069684811217   110.23139863   188.67395574
 H      7   6   1     2.080019747671   108.28451841    72.01671530
 H      8   3   2     2.075948600066   108.30690794    64.56462073
 H      8   3   2     2.071511684221   109.50455253   181.52400453
 O      3   2   1     2.716087815109   110.64290748   292.76798959
 H      3   2   1     2.073065252142   109.50538525   177.28339199
 C      1   2   3     2.559276503136   121.25696144   122.56952905
 C      6   1   2     2.527289456543   123.17281906   232.01100789
 H     16   6   1     2.053677882417   121.33686153   358.99644562
 H     16   6   1     2.055081424649   120.94307591   178.39587973
 C     15   1   2     2.729908832060   126.06789777   185.08652949
 H     15   1   2     2.058703408151   116.27305065     3.06083989
 C     19  15   1     2.551172890354   126.54960294   184.88328945
 H     19  15   1     2.055542334622   115.77495008     5.55691959
 C     21  19  15     2.848729341645   125.77679520     1.76464888
 C     23  21  19     2.912599473206   111.69491421   125.65768568
 H     23  21  19     2.066290917155   112.33837264     1.93979686
 H     23  21  19     2.081978027807   107.84646506   244.28001535
 C     24  23  21     2.900349286606   112.70158833    50.72350443
 H     24  23  21     2.073752515709   109.03948990   288.55510915
 H     24  23  21     2.072880083848   109.09469096   172.65948740
 C     27  24  23     2.901145389984   111.87960134   306.39646853
 H     27  24  23     2.069368821058   108.96086767   182.79208454
 H     27  24  23     2.079567607361   109.25468604    66.30852279
 C     21  19  15     2.830240039830   122.69700980   180.32435049
 H     33  21  19     2.089608571010   106.46637925   126.18568734
 C     33  21  19     2.880776256943   121.13048660     3.54745692
 H     13   3   2     1.828993962982   107.58081924    42.63632289
 C     35  33  21     2.924581071599   103.31633607   195.14997412
 H     35  33  21     2.069512982675   112.25500810    73.37025127
 H     35  33  21     2.070728832917   110.71913466   313.67438120
 C     30  27  24     2.940919399456   115.77345678   166.40361321
 H     37  35  33     2.066258969550   111.15187904   252.06777804
 H     37  35  33     2.072114883062   111.25519485   133.75469355
 H     40  30  27     2.081293025387   105.78027829   322.32747141
 C     40  30  27     2.900544355027   118.00552827    83.28228936
 C     30  27  24     2.900609199007   111.10013512   294.65354644
 H     45  30  27     2.068551655804   111.70328386   186.92315889
 H     45  30  27     2.068313541038   111.32864328    66.97934727
 H     45  30  27     2.069541951425   110.84376087   306.94087711
 H     44  40  30     2.081616193380   107.22538383    62.54201116
 C     44  40  30     2.909422165873   114.25891176   303.70953491
 C     44  40  30     2.862433129743   113.61089146   180.00574517
 C     51  44  40     2.518186847841   126.95690520    23.39361692
 H     51  44  40     2.061658247767   113.64333663   199.27844445
 H     52  51  44     2.062711352631   118.65644654   356.38773118
 C     52  51  44     2.854280207811   128.10355969   176.47219473
 C     55  52  51     2.907932479143   108.83151762   133.32873932
 C     55  52  51     2.915740400856   115.14033581     5.03632709
 H     55  52  51     2.086044990686   106.07151228   247.62845619
 H     57  55  52     2.077935843602   106.88114178   314.66505489
 C     57  55  52     2.895183952132   111.41221777   198.38785685
 C     57  55  52     2.895890093599   113.12554846    73.61032470
 H     56  55  52     2.069722020179   111.03911805   299.10281047
 H     56  55  52     2.068516297273   111.71595285   178.07770228
 H     56  55  52     2.069990711273   110.25176978    58.29940312
 H     60  57  55     2.071067787206   111.29265349    56.00048443
 H     60  57  55     2.071265202923   111.40231945   295.33406580
 H     60  57  55     2.070788002482   110.53812762   176.00857777
 H     61  57  55     2.068594502238   112.02060171   310.87787653
 H     61  57  55     2.070469258046   110.35493514   190.33495331
 H     61  57  55     2.071413570296   110.80491042    71.41604107
 H     50  44  40     2.065549305556   112.15385048    67.49166266
 H     50  44  40     2.071979452072   110.35305316   306.32155199
 H     50  44  40     2.070966479710   110.25761732   187.44096892

---------------------
BASIS SET INFORMATION
---------------------
There are 3 groups of distinct atoms

 Group   1 Type C   : 7s4p contracted to 4s3p pattern {4111/211}
 Group   2 Type H   : 5s contracted to 3s pattern {311}
 Group   3 Type O   : 7s4p contracted to 4s3p pattern {4111/211}

Atom   0C    basis set group =>   1
Atom   1C    basis set group =>   1
Atom   2C    basis set group =>   1
Atom   3H    basis set group =>   2
Atom   4H    basis set group =>   2
Atom   5C    basis set group =>   1
Atom   6C    basis set group =>   1
Atom   7C    basis set group =>   1
Atom   8H    basis set group =>   2
Atom   9H    basis set group =>   2
Atom  10H    basis set group =>   2
Atom  11H    basis set group =>   2
Atom  12O    basis set group =>   3
Atom  13H    basis set group =>   2
Atom  14C    basis set group =>   1
Atom  15C    basis set group =>   1
Atom  16H    basis set group =>   2
Atom  17H    basis set group =>   2
Atom  18C    basis set group =>   1
Atom  19H    basis set group =>   2
Atom  20C    basis set group =>   1
Atom  21H    basis set group =>   2
Atom  22C    basis set group =>   1
Atom  23C    basis set group =>   1
Atom  24H    basis set group =>   2
Atom  25H    basis set group =>   2
Atom  26C    basis set group =>   1
Atom  27H    basis set group =>   2
Atom  28H    basis set group =>   2
Atom  29C    basis set group =>   1
Atom  30H    basis set group =>   2
Atom  31H    basis set group =>   2
Atom  32C    basis set group =>   1
Atom  33H    basis set group =>   2
Atom  34C    basis set group =>   1
Atom  35H    basis set group =>   2
Atom  36C    basis set group =>   1
Atom  37H    basis set group =>   2
Atom  38H    basis set group =>   2
Atom  39C    basis set group =>   1
Atom  40H    basis set group =>   2
Atom  41H    basis set group =>   2
Atom  42H    basis set group =>   2
Atom  43C    basis set group =>   1
Atom  44C    basis set group =>   1
Atom  45H    basis set group =>   2
Atom  46H    basis set group =>   2
Atom  47H    basis set group =>   2
Atom  48H    basis set group =>   2
Atom  49C    basis set group =>   1
Atom  50C    basis set group =>   1
Atom  51C    basis set group =>   1
Atom  52H    basis set group =>   2
Atom  53H    basis set group =>   2
Atom  54C    basis set group =>   1
Atom  55C    basis set group =>   1
Atom  56C    basis set group =>   1
Atom  57H    basis set group =>   2
Atom  58H    basis set group =>   2
Atom  59C    basis set group =>   1
Atom  60C    basis set group =>   1
Atom  61H    basis set group =>   2
Atom  62H    basis set group =>   2
Atom  63H    basis set group =>   2
Atom  64H    basis set group =>   2
Atom  65H    basis set group =>   2
Atom  66H    basis set group =>   2
Atom  67H    basis set group =>   2
Atom  68H    basis set group =>   2
Atom  69H    basis set group =>   2
Atom  70H    basis set group =>   2
Atom  71H    basis set group =>   2
Atom  72H    basis set group =>   2

-------------------------
BASIS SET IN INPUT FORMAT
-------------------------

 # Basis set for element : H 
 NewGTO H 
 S 3 
   1    1357.7500000000      0.0012928364
   2      54.3100000000      0.0588280685
   3       4.3448000000      0.9761499708
 S 1 
   1       0.6604910000      1.0000000000
 S 1 
   1       0.1366870000      1.0000000000
  end;

 # Basis set for element : C 
 NewGTO C 
 S 4 
   1  139534.0000000000      0.0001655246
   2    5581.3600000000      0.0074486101
   3     446.5090000000      0.1285821065
   4      67.4620000000      0.9218029311
 S 1 
   1      15.0674000000      1.0000000000
 S 1 
   1       3.9387600000      1.0000000000
 S 1 
   1       0.2999150000      1.0000000000
 P 2 
   1      28.3900000000      0.0816325586
   2       4.3676900000      0.9660360576
 P 1 
   1       0.8698170000      1.0000000000
 P 1 
   1       0.1889340000      1.0000000000
  end;

 # Basis set for element : O 
 NewGTO O 
 S 4 
   1  253789.0000000000      0.0001641076
   2   10151.6000000000      0.0074010921
   3     812.1250000000      0.1277711901
   4     122.6930000000      0.9223372164
 S 1 
   1      27.5608000000      1.0000000000
 S 1 
   1       7.3172600000      1.0000000000
 S 1 
   1       0.5792400000      1.0000000000
 P 2 
   1      53.4157000000      0.0793786106
   2       8.2177900000      0.9670506337
 P 1 
   1       1.6754400000      1.0000000000
 P 1 
   1       0.3506720000      1.0000000000
  end;

---------------------------------
AUXILIARY/J BASIS SET INFORMATION
---------------------------------
There are 3 groups of distinct atoms

 Group   1 Type C   : 12s5p4d2f1g contracted to 6s4p3d1f1g pattern {711111/2111/211/2/1}
 Group   2 Type H   : 5s2p1d contracted to 3s1p1d pattern {311/2/1}
 Group   3 Type O   : 12s5p4d2f1g contracted to 6s4p3d1f1g pattern {711111/2111/211/2/1}

Atom   0C    basis set group =>   1
Atom   1C    basis set group =>   1
Atom   2C    basis set group =>   1
Atom   3H    basis set group =>   2
Atom   4H    basis set group =>   2
Atom   5C    basis set group =>   1
Atom   6C    basis set group =>   1
Atom   7C    basis set group =>   1
Atom   8H    basis set group =>   2
Atom   9H    basis set group =>   2
Atom  10H    basis set group =>   2
Atom  11H    basis set group =>   2
Atom  12O    basis set group =>   3
Atom  13H    basis set group =>   2
Atom  14C    basis set group =>   1
Atom  15C    basis set group =>   1
Atom  16H    basis set group =>   2
Atom  17H    basis set group =>   2
Atom  18C    basis set group =>   1
Atom  19H    basis set group =>   2
Atom  20C    basis set group =>   1
Atom  21H    basis set group =>   2
Atom  22C    basis set group =>   1
Atom  23C    basis set group =>   1
Atom  24H    basis set group =>   2
Atom  25H    basis set group =>   2
Atom  26C    basis set group =>   1
Atom  27H    basis set group =>   2
Atom  28H    basis set group =>   2
Atom  29C    basis set group =>   1
Atom  30H    basis set group =>   2
Atom  31H    basis set group =>   2
Atom  32C    basis set group =>   1
Atom  33H    basis set group =>   2
Atom  34C    basis set group =>   1
Atom  35H    basis set group =>   2
Atom  36C    basis set group =>   1
Atom  37H    basis set group =>   2
Atom  38H    basis set group =>   2
Atom  39C    basis set group =>   1
Atom  40H    basis set group =>   2
Atom  41H    basis set group =>   2
Atom  42H    basis set group =>   2
Atom  43C    basis set group =>   1
Atom  44C    basis set group =>   1
Atom  45H    basis set group =>   2
Atom  46H    basis set group =>   2
Atom  47H    basis set group =>   2
Atom  48H    basis set group =>   2
Atom  49C    basis set group =>   1
Atom  50C    basis set group =>   1
Atom  51C    basis set group =>   1
Atom  52H    basis set group =>   2
Atom  53H    basis set group =>   2
Atom  54C    basis set group =>   1
Atom  55C    basis set group =>   1
Atom  56C    basis set group =>   1
Atom  57H    basis set group =>   2
Atom  58H    basis set group =>   2
Atom  59C    basis set group =>   1
Atom  60C    basis set group =>   1
Atom  61H    basis set group =>   2
Atom  62H    basis set group =>   2
Atom  63H    basis set group =>   2
Atom  64H    basis set group =>   2
Atom  65H    basis set group =>   2
Atom  66H    basis set group =>   2
Atom  67H    basis set group =>   2
Atom  68H    basis set group =>   2
Atom  69H    basis set group =>   2
Atom  70H    basis set group =>   2
Atom  71H    basis set group =>   2
Atom  72H    basis set group =>   2

-------------------------------------
AUXILIARY/J BASIS SET IN INPUT FORMAT
-------------------------------------

 # Auxiliary/J basis set for element : H 
 NewAuxJGTO H 
 S 3 
   1      15.6752927000      0.1007184237
   2       3.6063578000      0.3404257499
   3       1.2080016000      0.6491996172
 S 1 
   1       0.4726794000      1.0000000000
 S 1 
   1       0.2018100000      1.0000000000
 P 2 
   1       2.0281365000      0.5596620919
   2       0.5358730000      0.5596620919
 D 1 
   1       2.2165124000      1.0000000000
  end;

 # Auxiliary/J basis set for element : C 
 NewAuxJGTO C 
 S 7 
   1    1861.0916331000      0.0134602335
   2     642.9939764000      0.0299160374
   3     235.1105725000      0.1008649584
   4      90.7028894000      0.2370970548
   5      36.7794552000      0.3924037254
   6      15.6046273000      0.3195862154
   7       6.8907294000      0.0530104441
 S 1 
   1       3.1478850000     -1.0000000000
 S 1 
   1       1.4777287000      1.0000000000
 S 1 
   1       0.7076466000      1.0000000000
 S 1 
   1       0.3430122000      1.0000000000
 S 1 
   1       0.1669453000      1.0000000000
 P 2 
   1      13.5472892000     -0.6769313712
   2       5.4669419000     -0.3779500978
 P 1 
   1       2.1751721000      1.0000000000
 P 1 
   1       0.8582194000      1.0000000000
 P 1 
   1       0.3376720000      1.0000000000
 D 2 
   1       5.9287253000     -0.3533329857
   2       1.9809209000     -0.7456525731
 D 1 
   1       0.8055417000     -1.0000000000
 D 1 
   1       0.3531244000     -1.0000000000
 F 2 
   1       1.6755626000      0.6311076882
   2       0.5997536000      0.4968166032
 G 1 
   1       1.0024600000     -1.0000000000
  end;

 # Auxiliary/J basis set for element : O 
 NewAuxJGTO O 
 S 7 
   1    2876.8216605000      0.0168151159
   2    1004.7443032000      0.0340137548
   3     369.7579954000      0.1194951309
   4     142.9442404000      0.2664627624
   5      57.8366425000      0.4202764046
   6      24.3864983000      0.2765077335
   7      10.6622662000      0.0057008815
 S 1 
   1       4.8070437000     -1.0000000000
 S 1 
   1       2.2210770000      1.0000000000
 S 1 
   1       1.0447795000      1.0000000000
 S 1 
   1       0.4968425000      1.0000000000
 S 1 
   1       0.2371384000      1.0000000000
 P 2 
   1      64.2613382000     -0.2731534179
   2      16.3006076000     -0.8168011598
 P 1 
   1       4.3550542000      1.0000000000
 P 1 
   1       1.2019554000      1.0000000000
 P 1 
   1       0.3354196000      1.0000000000
 D 2 
   1       9.2146611000     -0.4661230638
   2       2.8435251000     -0.6600908911
 D 1 
   1       0.9955759000     -1.0000000000
 D 1 
   1       0.3649441000     -1.0000000000
 F 2 
   1       2.6420115000      0.5931563945
   2       0.7345613000      0.5931563945
 G 1 
   1       1.3931000000     -1.0000000000
  end;



           ************************************************************
           *        Program running with 4 parallel MPI-processes     *
           *              working on a common directory               *
           ************************************************************
------------------------------------------------------------------------------
                             ORCA STARTUP CALCULATIONS
                           -- RI-GTO INTEGRALS CHOSEN --
------------------------------------------------------------------------------
------------------------------------------------------------------------------
                   ___                                                        
                  /   \      - P O W E R E D   B Y -                         
                 /     \                                                     
                 |  |  |   _    _      __       _____    __    __             
                 |  |  |  | |  | |    /  \     |  _  \  |  |  /  |          
                  \  \/   | |  | |   /    \    | | | |  |  | /  /          
                 / \  \   | |__| |  /  /\  \   | |_| |  |  |/  /          
                |  |  |   |  __  | /  /__\  \  |    /   |      \           
                |  |  |   | |  | | |   __   |  |    \   |  |\   \          
                \     /   | |  | | |  |  |  |  | |\  \  |  | \   \       
                 \___/    |_|  |_| |__|  |__|  |_| \__\ |__|  \__/        
                                                                              
                      - O R C A' S   B I G   F R I E N D -                    
                                      &                                       
                       - I N T E G R A L  F E E D E R -                       
                                                                              
 v1 FN, 2020, v2 2021, v3 2022-2024                                           
------------------------------------------------------------------------------


----------------------
SHARK INTEGRAL PACKAGE
----------------------

Number of atoms                             ...     73
Number of basis functions                   ...    509
Number of shells                            ...    335
Maximum angular momentum                    ...      1
Integral batch strategy                     ... SHARK/LIBINT Hybrid
RI-J (if used) integral strategy            ... SPLIT-RIJ (Revised 2003 algorithm where possible)
Printlevel                                  ...      1
Contraction scheme used                     ... SEGMENTED contraction
Prescreening option                         ... SCHWARTZ
   Thresh                                   ... 3.000e-11
   Tcut                                     ... 1.000e-12
   Tpresel                                  ... 1.000e-12 
Coulomb Range Separation                    ... NOT USED
Exchange Range Separation                   ... NOT USED
Multipole approximations                    ... NOT USED
Finite Nucleus Model                        ... NOT USED
CABS basis                                  ... NOT available
Auxiliary Coulomb fitting basis             ... AVAILABLE
   # of basis functions in Aux-J            ...   1905
   # of shells in Aux-J                     ...    655
   Maximum angular momentum in Aux-J        ...      4
Auxiliary J/K fitting basis                 ... NOT available
Auxiliary Correlation fitting basis         ... NOT available
Auxiliary 'external' fitting basis          ... NOT available

Checking pre-screening integrals            ... done (  0.0 sec) Dimension = 335
Check shell pair data                       ... done (  0.0 sec)
Shell pair information
Shell pair cut-off parameter TPreSel        ...   1.0e-12
Total number of shell pairs                 ...     56280
Shell pairs after pre-screening             ...     21986
Total number of primitive shell pairs       ...    145865
Primitive shell pairs kept                  ...     37800
          la=0 lb=0:  11058 shell pairs
          la=1 lb=0:   9045 shell pairs
          la=1 lb=1:   1883 shell pairs

Calculating one electron integrals          ... done (  0.0 sec)
Calculating RI/J V-Matrix + Cholesky decomp.... done (  0.2 sec)
Calculating Nuclear repulsion               ... done (  0.0 sec) ENN=   2795.014838453426 Eh

Diagonalization of the overlap matrix:
Smallest eigenvalue                        ... 7.559e-03
Time for diagonalization                   ...    0.029 sec
Threshold for overlap eigenvalues          ... 1.000e-07
Number of eigenvalues below threshold      ... 0
Time for construction of square roots      ...    0.013 sec
Total time needed                          ...    0.043 sec

-------------------
DFT GRID GENERATION
-------------------

General Integration Accuracy     IntAcc      ... 4.388
Radial Grid Type                 RadialGrid  ... OptM3 with GC (2021)
Angular Grid (max. ang.)         AngularGrid ... 4 (Lebedev-302)
Angular grid pruning method      GridPruning ... 4 (adaptive)
Weight generation scheme         WeightScheme... mBecke (2022)
Basis function cutoff            BFCut       ... 1.0000e-11
Integration weight cutoff        WCut        ... 1.0000e-14
Partially contracted basis set               ... off
Rotationally invariant grid construction     ... off
Angular grids for H and He will be reduced by one unit

Total number of grid points                  ...   309742
Total number of batches                      ...     4876
Average number of points per batch           ...       63
Average number of grid points per atom       ...     4243

--------------------
COSX GRID GENERATION
--------------------

GRIDX 1
-------
General Integration Accuracy     IntAcc      ... 3.816
Radial Grid Type                 RadialGrid  ... OptM3 with GC (2021)
Angular Grid (max. ang.)         AngularGrid ... 1 (Lebedev-50)
Angular grid pruning method      GridPruning ... 4 (adaptive)
Weight generation scheme         WeightScheme... mBecke (2022)
Basis function cutoff            BFCut       ... 1.0000e-11
Integration weight cutoff        WCut        ... 1.0000e-14
Partially contracted basis set               ... on
Rotationally invariant grid construction     ... off
Angular grids for H and He will be reduced by one unit

Total number of grid points                  ...    39371
Total number of batches                      ...      349
Average number of points per batch           ...      112
Average number of grid points per atom       ...      539
UseSFitting                                  ... on

GRIDX 2
-------
General Integration Accuracy     IntAcc      ... 4.020
Radial Grid Type                 RadialGrid  ... OptM3 with GC (2021)
Angular Grid (max. ang.)         AngularGrid ... 2 (Lebedev-110)
Angular grid pruning method      GridPruning ... 4 (adaptive)
Weight generation scheme         WeightScheme... mBecke (2022)
Basis function cutoff            BFCut       ... 1.0000e-11
Integration weight cutoff        WCut        ... 1.0000e-14
Partially contracted basis set               ... on
Rotationally invariant grid construction     ... off
Angular grids for H and He will be reduced by one unit

Total number of grid points                  ...    81346
Total number of batches                      ...      673
Average number of points per batch           ...      120
Average number of grid points per atom       ...     1114
UseSFitting                                  ... on

GRIDX 3
-------
General Integration Accuracy     IntAcc      ... 4.338
Radial Grid Type                 RadialGrid  ... OptM3 with GC (2021)
Angular Grid (max. ang.)         AngularGrid ... 3 (Lebedev-194)
Angular grid pruning method      GridPruning ... 4 (adaptive)
Weight generation scheme         WeightScheme... mBecke (2022)
Basis function cutoff            BFCut       ... 1.0000e-11
Integration weight cutoff        WCut        ... 1.0000e-14
Partially contracted basis set               ... on
Rotationally invariant grid construction     ... off
Angular grids for H and He will be reduced by one unit

Total number of grid points                  ...   176124
Total number of batches                      ...     1417
Average number of points per batch           ...      124
Average number of grid points per atom       ...     2413
UseSFitting                                  ... on
Initializing property integral containers    ... done (  0.0 sec)

SHARK setup successfully completed in   3.6 seconds

Maximum memory used throughout the entire STARTUP-calculation: 85.8 MB


           ************************************************************
           *        Program running with 4 parallel MPI-processes     *
           *              working on a common directory               *
           ************************************************************
-------------------------------------------------------------------------------
                                 ORCA GUESS
                   Start orbitals & Density for SCF / CASSCF
-------------------------------------------------------------------------------

------------
SCF SETTINGS
------------
Hamiltonian:
 Density Functional     Method          .... DFT(GTOs)
 Exchange Functional    Exchange        .... PBE
   PBE kappa parameter   XKappa         ....  0.804000
   PBE mue parameter    XMuePBE         ....  0.219520
 Correlation Functional Correlation     .... PBE
   PBE beta parameter  CBetaPBE         ....  0.066725
 LDA part of GGA corr.  LDAOpt          .... PW91-LDA
 Gradients option       PostSCFGGA      .... off
 Hybrid DFT is turned on
   Fraction HF Exchange ScalHFX         ....  0.250000
   Scaling of DF-GGA-X  ScalDFX         ....  0.750000
   Scaling of DF-GGA-C  ScalDFC         ....  1.000000
   Scaling of DF-LDA-C  ScalLDAC        ....  1.000000
   Perturbative correction              ....  0.000000
   NL short-range parameter             ....  6.900000
 RI-approximation to the Coulomb term is turned on
   Number of AuxJ basis functions       .... 1905
   RIJ-COSX (HFX calculated with COS-X)).... on


General Settings:
 Integral files         IntName         .... inpJ
 Hartree-Fock type      HFTyp           .... RHF
 Total Charge           Charge          ....    0
 Multiplicity           Mult            ....    1
 Number of Electrons    NEL             ....  220
 Basis Dimension        Dim             ....  509
 Nuclear Repulsion      ENuc            ....   2795.0148384534 Eh

Convergence Acceleration:
 AO-DIIS                CNVDIIS         .... on
   Start iteration      DIISMaxIt       ....    12
   Startup error        DIISStart       ....  0.200000
   # of expansion vecs  DIISMaxEq       ....     5
   Bias factor          DIISBfac        ....   1.050
   Max. coefficient     DIISMaxC        ....  10.000
 MO-DIIS                CNVKDIIS        .... off
 Trust-Rad. Augm. Hess. CNVTRAH         .... auto
   Auto Start mean grad. ratio tolernc. ....  1.125000
   Auto Start start iteration           ....    50
   Auto Start num. interpolation iter.  ....    10
   Max. Number of Micro iterations      ....    24
   Max. Number of Macro iterations      .... Maxiter - #DIIS iter
   Number of Davidson start vectors     ....     2
   Converg. threshold    (grad. norm)   ....   1.000e-04
   Grad. Scal. Fac. for Micro threshold ....   0.100
   Minimum threshold for Micro iter.    ....   1.000e-02
   NR start threshold (gradient norm)   ....   1.000e-04
   Initial trust radius                 ....   0.400
   Minimum AH scaling param. (alpha)    ....   1.000
   Maximum AH scaling param. (alpha)    .... 1000.000
   Quad. conv. algorithm                .... NR
   White noise on init. David. guess    .... on
   Maximum white noise                  ....   0.010
   Pseudo random numbers                .... off
   Inactive MOs                         .... canonical
   Orbital update algorithm             .... Taylor
   Preconditioner                       .... Diag
   Full preconditioner red. dimension   ....   250
 SOSCF                  CNVSOSCF        .... off
 Level Shifting         CNVShift        .... on
   Level shift para.    LevelShift      ....    0.2500
   Turn off err/grad.   ShiftErr        ....    0.0010
 Zerner damping         CNVZerner       .... off
 Static damping         CNVDamp         .... on
   Fraction old density DampFac         ....    0.7000
   Max. Damping (<1)    DampMax         ....    0.9800
   Min. Damping (>=0)   DampMin         ....    0.0000
   Turn off err/grad.   DampErr         ....    0.1000

SCF Procedure:
 Maximum # iterations   MaxIter         ....   125
 SCF integral mode      SCFMode         .... Direct
   Integral package                     .... SHARK and LIBINT hybrid scheme
 Reset frequency        DirectResetFreq ....    20
 Integral Threshold     Thresh          ....  3.000e-11 Eh
 Primitive CutOff       TCut            ....  1.000e-12 Eh

Convergence Tolerance:
 Convergence Check Mode ConvCheckMode   .... Total+1el-Energy
 Convergence forced     ConvForced      .... 0
 Energy Change          TolE            ....  1.000e-07 Eh
 1-El. energy change                    ....  1.000e-04 Eh
 DIIS Error             TolErr          ....  1.000e-07

------------------------------
INITIAL GUESS: MODEL POTENTIAL
------------------------------
Loading Hartree-Fock densities                     ... done
Calculating cut-offs                               ... done
Initializing the effective Hamiltonian             ... done
Setting up the integral package (SHARK)            ... done
Starting the Coulomb interaction                   ... done (   0.4 sec)
Making the grid                                    ... done (   0.4 sec)
Mapping shells                                     ... done
Starting the XC term evaluation                    ... done (   0.1 sec)
  promolecular density results
     # of electrons  =    219.974633718
     EX              =   -164.432104614
     EC              =     -7.329875780
     EX+EC           =   -171.761980394
Transforming the Hamiltonian                       ... done (   0.0 sec)
Diagonalizing the Hamiltonian                      ... done (   0.0 sec)
Back transforming the eigenvectors                 ... done (   0.0 sec)
Now organizing SCF variables                       ... done
                      ------------------
                      INITIAL GUESS DONE (   1.0 sec)
                      ------------------
             **** ENERGY FILE WAS UPDATED (inpJ.en.tmp) ****
Finished Guess after   1.1 sec
Maximum memory used throughout the entire GUESS-calculation: 45.9 MB


           ************************************************************
           *        Program running with 4 parallel MPI-processes     *
           *              working on a common directory               *
           ************************************************************

-------------------------------------------------------------------------------------------
                                      ORCA LEAN-SCF
                              memory conserving SCF solver
-------------------------------------------------------------------------------------------

--------------------
CPCM SOLVATION MODEL
--------------------
CPCM parameters:
  Epsilon                                         ...       4.8030
  Refrac                                          ...       1.4459
  Rsolv                                           ...       1.3000
  Surface type                                    ... GAUSSIAN VDW
  Discretization scheme                           ... Constant charge density
    Threshold for H atoms                         ...       5.0000 (charges/Ang^2)
    Threshold for non-H atoms                     ...       5.0000 (charges/Ang^2)
  Epsilon function type                           ...         CPCM
Solvent:                                          ... CHLOROFORM
Radii:
  Scheme                                          ... Element-dependent radii
  Radius for C  used is    3.8550 Bohr (=   2.0400 Ang.)
  Radius for H  used is    2.4944 Bohr (=   1.3200 Ang.)
  Radius for O  used is    3.4469 Bohr (=   1.8240 Ang.)
Calculating surface                               ...        done! (  0.0s)
Cavity surface points                             ...         5334
Cavity Volume                                     ...    3603.4929
Cavity Surface-area                               ...    1778.3431
Calculating surface distance matrix               ...        done! (  0.2s)
Performing Cholesky decomposition & store         ...        done! (  0.9s)
Overall time for CPCM initialization              ...                 1.2s

----------------------------------------D-I-I-S--------------------------------------------
Iteration    Energy (Eh)           Delta-E    RMSDP     MaxDP     DIISErr   Damp  Time(sec)
-------------------------------------------------------------------------------------------
               ***  Starting incremental Fock matrix formation  ***
    1    -1165.0077515152070191     0.00e+00  1.51e-03  9.76e-02  1.97e-01  0.700   6.1

  HOMO= 109 E= -4.002 eV LUMO=  7.690 eV gap=  11.693 eV
    2    -1165.2268337046198212    -2.19e-01  1.11e-03  6.55e-02  9.53e-02  0.700   3.6

  HOMO= 109 E= -4.860 eV LUMO=  7.011 eV gap=  11.871 eV
                               ***Turning on AO-DIIS***
    3    -1165.3276142295935642    -1.01e-01  4.54e-04  2.21e-02  3.76e-02  0.700   3.6

  HOMO= 109 E= -5.853 eV LUMO=  6.090 eV gap=  11.942 eV
    4    -1165.3854987214504035    -5.79e-02  7.64e-04  3.21e-02  2.69e-02  0.000   3.5

  HOMO= 109 E= -6.012 eV LUMO=  5.932 eV gap=  11.945 eV
    5    -1165.5081765074046416    -1.23e-01  1.07e-04  6.23e-03  3.05e-03  0.000   3.9

  HOMO= 109 E= -6.054 eV LUMO=  5.895 eV gap=  11.948 eV
    6    -1165.5083948199244332    -2.18e-04  3.14e-05  1.94e-03  8.73e-04  0.000   3.5

  HOMO= 109 E= -6.020 eV LUMO=  5.933 eV gap=  11.953 eV
               *** Restarting incremental Fock matrix formation ***
                             ****Resetting DIIS****
    7    -1165.5084180958424440    -2.33e-05  1.49e-05  1.05e-03  2.87e-04  0.000   6.9

  HOMO= 109 E= -6.014 eV LUMO= -0.863 eV gap=   5.151 eV
    8    -1165.5084193539332773    -1.26e-06  6.92e-06  6.69e-04  3.88e-04  0.000   4.3

  HOMO= 109 E= -6.016 eV LUMO= -0.865 eV gap=   5.151 eV
    9    -1165.5084202718430788    -9.18e-07  2.65e-06  2.47e-04  1.69e-04  0.000   3.6

  HOMO= 109 E= -6.016 eV LUMO= -0.865 eV gap=   5.152 eV
   10    -1165.5084204593463255    -1.88e-07  8.78e-07  8.49e-05  4.52e-05  0.000   3.4

  HOMO= 109 E= -6.016 eV LUMO= -0.864 eV gap=   5.152 eV
   11    -1165.5084204666181904    -7.27e-09  2.64e-07  2.62e-05  1.42e-05  0.000   3.1
                 **** Energy Check signals convergence ****

  HOMO= 109 E= -6.016 eV LUMO= -0.864 eV gap=   5.152 eV

               *****************************************************
               *                     SUCCESS                       *
               *           SCF CONVERGED AFTER  11 CYCLES          *
               *****************************************************

Recomputing exchange energy using gridx3       ... done (    9.030 sec)
Old exchange energy                            :    -42.067694623 Eh
New exchange energy                            :    -42.067722504 Eh
Exchange energy change after final integration :     -0.000027882 Eh
Total energy after final integration           :  -1165.508448348 Eh
             **** ENERGY FILE WAS UPDATED (inpJ.en.tmp) ****

----------------
TOTAL SCF ENERGY
----------------

Total Energy       :      -1165.50844834821214 Eh          -31715.09724 eV

Components:
Nuclear Repulsion  :       2795.01483845342636 Eh           76056.22038 eV
Electronic Energy  :      -3960.50959641671761 Eh         -107770.94509 eV
One Electron Energy:      -7131.79978990603831 Eh         -194066.13842 eV
Two Electron Energy:       3171.29019348932070 Eh           86295.19333 eV
CPCM Dielectric    :         -0.01366250332679 Eh              -0.37178 eV

Virial components:
Potential Energy   :      -2322.40192360501396 Eh          -63195.76915 eV
Kinetic Energy     :       1156.89347525680182 Eh           31480.67191 eV
Virial Ratio       :          2.00744664333896

DFT components:
N(Alpha)           :      109.999722985889 electrons
N(Beta)            :      109.999722985889 electrons
N(Total)           :      219.999445971778 electrons
E(X)               :     -125.745476780264 Eh       
E(C)               :       -7.329418620614 Eh       
E(XC)              :     -133.074895400878 Eh       

CPCM Solvation Model Properties:
Surface-charge          :         -0.03325719604608
Corrected charge        :         -0.00000000000000
Outlying charge corr.   :          0.00003886794776 Eh               0.00106 eV
Free-energy (cav+disp)  :  This term is not implemented in the current solvation scheme

---------------
SCF CONVERGENCE
---------------

  Last Energy change         ...    7.2719e-09  Tolerance :   1.0000e-07
  Last MAX-Density change    ...    2.6228e-05  Tolerance :   1.0000e-05
  Last RMS-Density change    ...    2.6415e-07  Tolerance :   1.0000e-06
  Last DIIS Error            ...    1.4191e-05  Tolerance :   1.0000e-07


----------------
ORBITAL ENERGIES
----------------

  NO   OCC          E(Eh)            E(eV) 
   0   2.0000     -19.212522      -522.7993 
   1   2.0000     -10.300521      -280.2914 
   2   2.0000     -10.270560      -279.4761 
   3   2.0000     -10.268442      -279.4185 
   4   2.0000     -10.263807      -279.2924 
   5   2.0000     -10.257576      -279.1228 
   6   2.0000     -10.257206      -279.1128 
   7   2.0000     -10.252038      -278.9721 
   8   2.0000     -10.251880      -278.9678 
   9   2.0000     -10.248285      -278.8700 
  10   2.0000     -10.247684      -278.8537 
  11   2.0000     -10.247524      -278.8493 
  12   2.0000     -10.246094      -278.8104 
  13   2.0000     -10.244634      -278.7707 
  14   2.0000     -10.244514      -278.7674 
  15   2.0000     -10.244117      -278.7566 
  16   2.0000     -10.243358      -278.7359 
  17   2.0000     -10.243066      -278.7280 
  18   2.0000     -10.241881      -278.6957 
  19   2.0000     -10.241527      -278.6861 
  20   2.0000     -10.240224      -278.6507 
  21   2.0000     -10.234177      -278.4861 
  22   2.0000     -10.234092      -278.4838 
  23   2.0000     -10.232898      -278.4513 
  24   2.0000     -10.227052      -278.2922 
  25   2.0000     -10.226631      -278.2808 
  26   2.0000     -10.224934      -278.2346 
  27   2.0000     -10.222217      -278.1607 
  28   2.0000     -10.220787      -278.1217 
  29   2.0000      -1.043311       -28.3899 
  30   2.0000      -0.901600       -24.5338 
  31   2.0000      -0.882316       -24.0090 
  32   2.0000      -0.860327       -23.4107 
  33   2.0000      -0.845856       -23.0169 
  34   2.0000      -0.822198       -22.3732 
  35   2.0000      -0.814134       -22.1537 
  36   2.0000      -0.795907       -21.6577 
  37   2.0000      -0.795023       -21.6337 
  38   2.0000      -0.776368       -21.1260 
  39   2.0000      -0.758467       -20.6389 
  40   2.0000      -0.741289       -20.1715 
  41   2.0000      -0.735808       -20.0224 
  42   2.0000      -0.715277       -19.4637 
  43   2.0000      -0.703102       -19.1324 
  44   2.0000      -0.702156       -19.1066 
  45   2.0000      -0.696140       -18.9429 
  46   2.0000      -0.670707       -18.2509 
  47   2.0000      -0.662124       -18.0173 
  48   2.0000      -0.632344       -17.2070 
  49   2.0000      -0.622455       -16.9379 
  50   2.0000      -0.613228       -16.6868 
  51   2.0000      -0.608807       -16.5665 
  52   2.0000      -0.596787       -16.2394 
  53   2.0000      -0.587391       -15.9837 
  54   2.0000      -0.562397       -15.3036 
  55   2.0000      -0.541052       -14.7228 
  56   2.0000      -0.530126       -14.4255 
  57   2.0000      -0.529215       -14.4007 
  58   2.0000      -0.515266       -14.0211 
  59   2.0000      -0.510601       -13.8942 
  60   2.0000      -0.500472       -13.6185 
  61   2.0000      -0.492535       -13.4026 
  62   2.0000      -0.489070       -13.3083 
  63   2.0000      -0.481686       -13.1074 
  64   2.0000      -0.474977       -12.9248 
  65   2.0000      -0.471312       -12.8251 
  66   2.0000      -0.465337       -12.6625 
  67   2.0000      -0.459406       -12.5011 
  68   2.0000      -0.457784       -12.4569 
  69   2.0000      -0.451259       -12.2794 
  70   2.0000      -0.448625       -12.2077 
  71   2.0000      -0.441091       -12.0027 
  72   2.0000      -0.436917       -11.8891 
  73   2.0000      -0.433008       -11.7827 
  74   2.0000      -0.427463       -11.6319 
  75   2.0000      -0.422507       -11.4970 
  76   2.0000      -0.415434       -11.3045 
  77   2.0000      -0.412275       -11.2186 
  78   2.0000      -0.410642       -11.1741 
  79   2.0000      -0.405011       -11.0209 
  80   2.0000      -0.403669       -10.9844 
  81   2.0000      -0.400062       -10.8862 
  82   2.0000      -0.397687       -10.8216 
  83   2.0000      -0.388652       -10.5758 
  84   2.0000      -0.385970       -10.5028 
  85   2.0000      -0.382064       -10.3965 
  86   2.0000      -0.376292       -10.2394 
  87   2.0000      -0.374913       -10.2019 
  88   2.0000      -0.372299       -10.1308 
  89   2.0000      -0.364479        -9.9180 
  90   2.0000      -0.361427        -9.8349 
  91   2.0000      -0.358889        -9.7659 
  92   2.0000      -0.354606        -9.6493 
  93   2.0000      -0.345518        -9.4020 
  94   2.0000      -0.340865        -9.2754 
  95   2.0000      -0.339701        -9.2437 
  96   2.0000      -0.336478        -9.1560 
  97   2.0000      -0.333670        -9.0796 
  98   2.0000      -0.330859        -9.0031 
  99   2.0000      -0.328919        -8.9504 
 100   2.0000      -0.326592        -8.8870 
 101   2.0000      -0.323418        -8.8006 
 102   2.0000      -0.319197        -8.6858 
 103   2.0000      -0.313928        -8.5424 
 104   2.0000      -0.310285        -8.4433 
 105   2.0000      -0.301038        -8.1917 
 106   2.0000      -0.276658        -7.5283 
 107   2.0000      -0.275055        -7.4846 
 108   2.0000      -0.255738        -6.9590 
 109   2.0000      -0.221083        -6.0160 
 110   0.0000      -0.031758        -0.8642 
 111   0.0000       0.019287         0.5248 
 112   0.0000       0.028098         0.7646 
 113   0.0000       0.080908         2.2016 
 114   0.0000       0.089820         2.4441 
 115   0.0000       0.101788         2.7698 
 116   0.0000       0.103809         2.8248 
 117   0.0000       0.108381         2.9492 
 118   0.0000       0.112380         3.0580 
 119   0.0000       0.114299         3.1102 
 120   0.0000       0.117994         3.2108 
*Only the first 10 virtual orbitals were printed.

                    ********************************
                    * MULLIKEN POPULATION ANALYSIS *
                    ********************************

-----------------------
MULLIKEN ATOMIC CHARGES
-----------------------
   0 C :    0.077647
   1 C :   -0.500451
   2 C :   -0.074234
   3 H :    0.222947
   4 H :    0.219848
   5 C :    0.138446
   6 C :   -0.479857
   7 C :   -0.439863
   8 H :    0.225404
   9 H :    0.207424
  10 H :    0.208876
  11 H :    0.227883
  12 O :   -0.488049
  13 H :    0.247378
  14 C :   -0.279995
  15 C :   -0.513942
  16 H :    0.201071
  17 H :    0.196967
  18 C :   -0.259332
  19 H :    0.220029
  20 C :    0.152743
  21 H :    0.220481
  22 C :   -0.479827
  23 C :   -0.427795
  24 H :    0.211694
  25 H :    0.207087
  26 C :   -0.396594
  27 H :    0.208466
  28 H :    0.217421
  29 C :    0.003877
  30 H :    0.223039
  31 H :    0.194657
  32 C :   -0.230040
  33 H :    0.227885
  34 C :   -0.433716
  35 H :    0.340944
  36 C :   -0.418976
  37 H :    0.207953
  38 H :    0.198089
  39 C :   -0.200166
  40 H :    0.209701
  41 H :    0.204502
  42 H :    0.210171
  43 C :   -0.239813
  44 C :   -0.629817
  45 H :    0.204971
  46 H :    0.209745
  47 H :    0.202283
  48 H :    0.219920
  49 C :   -0.619320
  50 C :   -0.183424
  51 C :   -0.179358
  52 H :    0.217034
  53 H :    0.215574
  54 C :   -0.229253
  55 C :   -0.631506
  56 C :   -0.213794
  57 H :    0.227386
  58 H :    0.221810
  59 C :   -0.609930
  60 C :   -0.619487
  61 H :    0.202783
  62 H :    0.209350
  63 H :    0.202954
  64 H :    0.200014
  65 H :    0.196678
  66 H :    0.204319
  67 H :    0.208332
  68 H :    0.198089
  69 H :    0.196594
  70 H :    0.208318
  71 H :    0.195564
  72 H :    0.204195
Sum of atomic charges:    0.0000000

--------------------------------
MULLIKEN REDUCED ORBITAL CHARGES
--------------------------------
  0 C s       :     3.354313  s :     3.354313
      pz      :     0.988247  p :     2.568040
      px      :     0.812014
      py      :     0.767780

  1 C s       :     3.377932  s :     3.377932
      pz      :     1.148069  p :     3.122519
      px      :     0.869674
      py      :     1.104776

  2 C s       :     3.312675  s :     3.312675
      pz      :     0.704156  p :     2.761560
      px      :     1.143040
      py      :     0.914364

  3 H s       :     0.777053  s :     0.777053

  4 H s       :     0.780152  s :     0.780152

  5 C s       :     3.341291  s :     3.341291
      pz      :     0.889167  p :     2.520263
      px      :     0.858732
      py      :     0.772364

  6 C s       :     3.367208  s :     3.367208
      pz      :     1.147070  p :     3.112650
      px      :     0.886224
      py      :     1.079356

  7 C s       :     3.338586  s :     3.338586
      pz      :     1.172166  p :     3.101277
      px      :     0.966324
      py      :     0.962788

  8 H s       :     0.774596  s :     0.774596

  9 H s       :     0.792576  s :     0.792576

 10 H s       :     0.791124  s :     0.791124

 11 H s       :     0.772117  s :     0.772117

 12 O s       :     3.685093  s :     3.685093
      pz      :     1.420867  p :     4.802957
      px      :     1.470836
      py      :     1.911253

 13 H s       :     0.752622  s :     0.752622

 14 C s       :     3.394282  s :     3.394282
      pz      :     0.974565  p :     2.885713
      px      :     0.832815
      py      :     1.078332

 15 C s       :     3.385094  s :     3.385094
      pz      :     0.988644  p :     3.128848
      px      :     0.988711
      py      :     1.151493

 16 H s       :     0.798929  s :     0.798929

 17 H s       :     0.803033  s :     0.803033

 18 C s       :     3.396864  s :     3.396864
      pz      :     1.006419  p :     2.862468
      px      :     0.773370
      py      :     1.082679

 19 H s       :     0.779971  s :     0.779971

 20 C s       :     3.351578  s :     3.351578
      pz      :     0.933654  p :     2.495679
      px      :     0.764723
      py      :     0.797302

 21 H s       :     0.779519  s :     0.779519

 22 C s       :     3.372837  s :     3.372837
      pz      :     1.123945  p :     3.106990
      px      :     1.103166
      py      :     0.879879

 23 C s       :     3.327623  s :     3.327623
      pz      :     1.114923  p :     3.100172
      px      :     0.885565
      py      :     1.099684

 24 H s       :     0.788306  s :     0.788306

 25 H s       :     0.792913  s :     0.792913

 26 C s       :     3.349576  s :     3.349576
      pz      :     1.165063  p :     3.047018
      px      :     0.966867
      py      :     0.915088

 27 H s       :     0.791534  s :     0.791534

 28 H s       :     0.782579  s :     0.782579

 29 C s       :     3.317644  s :     3.317644
      pz      :     0.872672  p :     2.678479
      px      :     0.903061
      py      :     0.902746

 30 H s       :     0.776961  s :     0.776961

 31 H s       :     0.805343  s :     0.805343

 32 C s       :     3.362336  s :     3.362336
      pz      :     1.095978  p :     2.867704
      px      :     0.859065
      py      :     0.912661

 33 H s       :     0.772115  s :     0.772115

 34 C s       :     3.343835  s :     3.343835
      pz      :     1.189112  p :     3.089882
      px      :     0.934800
      py      :     0.965970

 35 H s       :     0.659056  s :     0.659056

 36 C s       :     3.338523  s :     3.338523
      pz      :     1.177457  p :     3.080452
      px      :     0.930109
      py      :     0.972886

 37 H s       :     0.792047  s :     0.792047

 38 H s       :     0.801911  s :     0.801911

 39 C s       :     3.342463  s :     3.342463
      pz      :     1.080501  p :     2.857703
      px      :     0.859952
      py      :     0.917249

 40 H s       :     0.790299  s :     0.790299

 41 H s       :     0.795498  s :     0.795498

 42 H s       :     0.789829  s :     0.789829

 43 C s       :     3.346975  s :     3.346975
      pz      :     1.063220  p :     2.892838
      px      :     0.879611
      py      :     0.950007

 44 C s       :     3.366351  s :     3.366351
      pz      :     0.946663  p :     3.263466
      px      :     1.165388
      py      :     1.151415

 45 H s       :     0.795029  s :     0.795029

 46 H s       :     0.790255  s :     0.790255

 47 H s       :     0.797717  s :     0.797717

 48 H s       :     0.780080  s :     0.780080

 49 C s       :     3.348573  s :     3.348573
      pz      :     1.155374  p :     3.270747
      px      :     1.152219
      py      :     0.963154

 50 C s       :     3.348063  s :     3.348063
      pz      :     0.872062  p :     2.835361
      px      :     0.984694
      py      :     0.978605

 51 C s       :     3.353314  s :     3.353314
      pz      :     0.868468  p :     2.826044
      px      :     0.977033
      py      :     0.980544

 52 H s       :     0.782966  s :     0.782966

 53 H s       :     0.784426  s :     0.784426

 54 C s       :     3.340728  s :     3.340728
      pz      :     0.950829  p :     2.888525
      px      :     0.921442
      py      :     1.016254

 55 C s       :     3.346955  s :     3.346955
      pz      :     1.078947  p :     3.284551
      px      :     1.156017
      py      :     1.049588

 56 C s       :     3.315843  s :     3.315843
      pz      :     1.002600  p :     2.897951
      px      :     0.886613
      py      :     1.008737

 57 H s       :     0.772614  s :     0.772614

 58 H s       :     0.778190  s :     0.778190

 59 C s       :     3.340477  s :     3.340477
      pz      :     1.113422  p :     3.269454
      px      :     0.994991
      py      :     1.161041

 60 C s       :     3.346529  s :     3.346529
      pz      :     1.107559  p :     3.272958
      px      :     1.158293
      py      :     1.007106

 61 H s       :     0.797217  s :     0.797217

 62 H s       :     0.790650  s :     0.790650

 63 H s       :     0.797046  s :     0.797046

 64 H s       :     0.799986  s :     0.799986

 65 H s       :     0.803322  s :     0.803322

 66 H s       :     0.795681  s :     0.795681

 67 H s       :     0.791668  s :     0.791668

 68 H s       :     0.801911  s :     0.801911

 69 H s       :     0.803406  s :     0.803406

 70 H s       :     0.791682  s :     0.791682

 71 H s       :     0.804436  s :     0.804436

 72 H s       :     0.795805  s :     0.795805


------------------------
MULLIKEN OVERLAP CHARGES
------------------------
B(  0-C ,  1-C ) :   0.5249 B(  0-C ,  2-C ) :  -0.1802 B(  0-C ,  3-H ) :  -0.0795 
B(  0-C ,  4-H ) :  -0.0863 B(  0-C ,  5-C ) :   0.4157 B(  0-C ,  6-C ) :  -0.1419 
B(  0-C , 14-C ) :   0.9502 B(  0-C , 15-C ) :  -0.2022 B(  0-C , 18-C ) :  -0.1866 
B(  0-C , 19-H ) :  -0.0751 B(  1-C ,  2-C ) :   0.5264 B(  1-C ,  3-H ) :   0.8090 
B(  1-C ,  4-H ) :   0.7737 B(  1-C ,  5-C ) :  -0.1411 B(  1-C ,  7-C ) :  -0.1578 
[...]
        0.0000         1.6402        0.0000
        0.0000         0.0000        1.6402

 Diagonalized JT*J matrix:
 
 J[55,60](FC)             1.640            1.640            1.640  iso=      1.640
                ---------------  ---------------  ---------------  ---------------
 J[55,60](Total)          1.640            1.640            1.640  iso=      1.640



-----------------------------------------------------------
 NUCLEUS A = C   56 NUCLEUS B = C   59 
 ( 13C  gnA =  1.405  13C  gnB =  1.405) r(AB) =     1.5321
-----------------------------------------------------------

Fermi-contact contribution to J (Hz):
       26.8602         0.0000        0.0000
        0.0000        26.8602        0.0000
        0.0000         0.0000       26.8602

Total spin-spin coupling tensor J (Hz):
       26.8602         0.0000        0.0000
        0.0000        26.8602        0.0000
        0.0000         0.0000       26.8602

 Diagonalized JT*J matrix:
 
 J[56,59](FC)            26.860           26.860           26.860  iso=     26.860
                ---------------  ---------------  ---------------  ---------------
 J[56,59](Total)         26.860           26.860           26.860  iso=     26.860



-----------------------------------------------------------
 NUCLEUS A = C   56 NUCLEUS B = C   60 
 ( 13C  gnA =  1.405  13C  gnB =  1.405) r(AB) =     1.5324
-----------------------------------------------------------

Fermi-contact contribution to J (Hz):
       26.2857         0.0000        0.0000
        0.0000        26.2857        0.0000
        0.0000         0.0000       26.2857

Total spin-spin coupling tensor J (Hz):
       26.2857         0.0000        0.0000
        0.0000        26.2857        0.0000
        0.0000         0.0000       26.2857

 Diagonalized JT*J matrix:
 
 J[56,60](FC)            26.286           26.286           26.286  iso=     26.286
                ---------------  ---------------  ---------------  ---------------
 J[56,60](Total)         26.286           26.286           26.286  iso=     26.286



-----------------------------------------------------------
 NUCLEUS A = C   59 NUCLEUS B = C   60 
 ( 13C  gnA =  1.405  13C  gnB =  1.405) r(AB) =     2.5131
-----------------------------------------------------------

Fermi-contact contribution to J (Hz):
       -1.0427         0.0000        0.0000
        0.0000        -1.0427        0.0000
        0.0000         0.0000       -1.0427

Total spin-spin coupling tensor J (Hz):
       -1.0427         0.0000        0.0000
        0.0000        -1.0427        0.0000
        0.0000         0.0000       -1.0427

 Diagonalized JT*J matrix:
 
 J[59,60](FC)            -1.043           -1.043           -1.043  iso=     -1.043
                ---------------  ---------------  ---------------  ---------------
 J[59,60](Total)         -1.043           -1.043           -1.043  iso=     -1.043



-----------------------------------------------------------------------------
                SUMMARY OF ISOTROPIC COUPLING CONSTANTS J (Hz)                
-----------------------------------------------------------------------------
                  0 C        1 C        2 C        5 C        6 C        7 C  
      0 C        0.000     33.125     -3.774     41.255     -0.901      2.275
      1 C       33.125      0.000     23.411     -1.208      1.446     -0.668
      2 C       -3.774     23.411      0.000      2.293     -2.774     25.920
      5 C       41.255     -1.208      2.293      0.000     30.411     -2.779
      6 C       -0.901      1.446     -2.774     30.411      0.000     24.824
      7 C        2.275     -0.668     25.920     -2.779     24.824      0.000
     14 C       69.362     -0.387      2.842     -3.006      2.180     -0.621
     15 C       -3.413      2.419     -0.868     64.594     -1.100      2.597
     18 C       -2.397      4.170     -1.108      3.191     -0.820      0.192
     20 C        6.816     -1.103      1.097     -1.382      0.609     -0.103
     22 C       -0.932      0.328     -0.333      0.423     -0.183      0.038
     23 C        0.811     -0.283      0.279     -0.336      0.151      0.000
     26 C       -0.091      0.038      0.000      0.047      0.000      0.000
     29 C        1.148     -0.361      0.000     -0.441      0.205      0.000
     32 C       -1.123      0.545     -0.378      0.471     -0.214      0.045
     34 C        0.021     -0.014      0.013     -0.014      0.005     -0.001
     36 C       -0.015      0.000      0.000      0.016     -0.008      0.000
     39 C       -0.070      0.000      0.000      0.030      0.000      0.000
     43 C        0.000      0.000      0.000      0.000      0.000      0.000
     44 C        0.013     -0.004      0.000     -0.004     -0.002      0.000
     49 C        0.000      0.000      0.000      0.000      0.000      0.000
     50 C        0.000      0.000      0.000      0.000      0.000      0.000
     51 C        0.000      0.000      0.000      0.000      0.000      0.000
     54 C        0.000      0.000      0.000      0.000      0.000      0.000
     55 C        0.000      0.000      0.000      0.000      0.000      0.000
     56 C        0.000      0.000      0.000      0.000      0.000      0.000
     59 C        0.000      0.000      0.000      0.000      0.000      0.000
     60 C        0.000      0.000      0.000      0.000      0.000      0.000
                 14 C       15 C       18 C       20 C       22 C       23 C  
      0 C       69.362     -3.413     -2.397      6.816     -0.932      0.811
      1 C       -0.387      2.419      4.170     -1.103      0.328     -0.283
      2 C        2.842     -0.868     -1.108      1.097     -0.333      0.279
      5 C       -3.006     64.594      3.191     -1.382      0.423     -0.336
      6 C        2.180     -1.100     -0.820      0.609     -0.183      0.151
      7 C       -0.621      2.597      0.192     -0.103      0.038      0.000
     14 C        0.000      3.106     54.093     -2.663      3.763     -0.905
     15 C        3.106      0.000     -1.148      1.010     -0.273      0.250
     18 C       54.093     -1.148      0.000     69.982     -2.161      2.363
     20 C       -2.663      1.010     69.982      0.000     32.119     -2.931
     22 C        3.763     -0.273     -2.161     32.119      0.000     24.329
     23 C       -0.905      0.250      2.363     -2.931     24.329      0.000
     26 C        0.132     -0.033     -0.353      1.036     -1.933     25.428
     29 C       -1.111      0.322      2.279     -2.403      1.078     -2.188
     32 C        4.384     -0.316     -1.264     36.858     -0.237      1.526
     34 C        0.074      0.004      2.464     -1.339      1.593     -0.263
     36 C        0.017     -0.014     -0.149      3.565      0.056      0.166
     39 C        0.257     -0.023     -0.041      2.924     -0.335      2.563
     43 C        0.006      0.017      0.280      0.176      0.003     -0.109
     44 C        0.001      0.028     -0.043      0.691     -0.136      0.600
     49 C       -0.001      0.000     -0.009     -0.035      0.138      0.037
     50 C        0.000      0.000      0.030      0.145     -0.008      0.137
     51 C        0.000      0.000     -0.006      0.039     -0.002     -0.007
     54 C        0.000      0.000      0.000      0.000      0.000      0.000
     55 C        0.000      0.000      0.000      0.000      0.000      0.000
     56 C        0.000      0.000      0.000      0.000      0.000      0.000
     59 C        0.000      0.000      0.000      0.000      0.000      0.000
     60 C        0.000      0.000      0.000      0.000      0.000      0.000
                 26 C       29 C       32 C       34 C       36 C       39 C  
      0 C       -0.091      1.148     -1.123      0.021     -0.015     -0.070
      1 C        0.038     -0.361      0.545     -0.014      0.000      0.000
      2 C        0.000      0.000     -0.378      0.013      0.000      0.000
      5 C        0.047     -0.441      0.471     -0.014      0.016      0.030
      6 C        0.000      0.205     -0.214      0.005     -0.008      0.000
      7 C        0.000      0.000      0.045     -0.001      0.000      0.000
     14 C        0.132     -1.111      4.384      0.074      0.017      0.257
     15 C       -0.033      0.322     -0.316      0.004     -0.014     -0.023
     18 C       -0.353      2.279     -1.264      2.464     -0.149     -0.041
     20 C        1.036     -2.403     36.858     -1.339      3.565      2.924
     22 C       -1.933      1.078     -0.237      1.593      0.056     -0.335
     23 C       25.428     -2.188      1.526     -0.263      0.166      2.563
     26 C        0.000     27.778     -0.937      2.293      3.030     -0.544
     29 C       27.778      0.000     23.195      0.986      0.535     28.967
     32 C       -0.937     23.195      0.000     27.897      1.343      3.502
     34 C        2.293      0.986     27.897      0.000     25.892      0.041
     36 C        3.030      0.535      1.343     25.892      0.000     26.326
     39 C       -0.544     28.967      3.502      0.041     26.326      0.000
     43 C       -0.009     -0.689      2.705      1.611      0.212     30.527
     44 C       -0.567     27.315     -0.941      0.856      0.223     -1.238
     49 C        0.354      0.216      0.004     -0.007      3.154     -1.044
     50 C       -0.087      3.309      0.014     -0.053      0.581     -1.690
     51 C        0.019     -0.108      0.035      0.005      0.056      2.048
     54 C        0.004      0.004     -0.005     -0.004      0.026     -0.124
     55 C       -0.000     -0.001     -0.001     -0.002     -0.073      0.063
     56 C       -0.003      0.046      0.002     -0.002      0.008      0.086
     59 C        0.000      0.000      0.000      0.000      0.001      0.057
     60 C        0.000      0.000      0.001     -0.000     -0.004     -0.005
                 43 C       44 C       49 C       50 C       51 C       54 C  
      0 C        0.000      0.013      0.000      0.000      0.000      0.000
      1 C        0.000     -0.004      0.000      0.000      0.000      0.000
      2 C        0.000      0.000      0.000      0.000      0.000      0.000
      5 C        0.000     -0.004      0.000      0.000      0.000      0.000
      6 C        0.000     -0.002      0.000      0.000      0.000      0.000
      7 C        0.000      0.000      0.000      0.000      0.000      0.000
     14 C        0.006      0.001     -0.001      0.000      0.000      0.000
     15 C        0.017      0.028      0.000      0.000      0.000      0.000
     18 C        0.280     -0.043     -0.009      0.030     -0.006      0.000
     20 C        0.176      0.691     -0.035      0.145      0.039      0.000
     22 C        0.003     -0.136      0.138     -0.008     -0.002      0.000
     23 C       -0.109      0.600      0.037      0.137     -0.007      0.000
     26 C       -0.009     -0.567      0.354     -0.087      0.019      0.004
     29 C       -0.689     27.315      0.216      3.309     -0.108      0.004
     32 C        2.705     -0.941      0.004      0.014      0.035     -0.005
     34 C        1.611      0.856     -0.007     -0.053      0.005     -0.004
     36 C        0.212      0.223      3.154      0.581      0.056      0.026
     39 C       30.527     -1.238     -1.044     -1.690      2.048     -0.124
     43 C        0.000      1.498     24.993     35.526     -1.694      3.318
     44 C        1.498      0.000     -0.056     -0.147      0.140      0.025
     49 C       24.993     -0.056      0.000     -3.431      3.393     -1.066
     50 C       35.526     -0.147     -3.431      0.000     68.585     -1.871
     51 C       -1.694      0.140      3.393     68.585      0.000     36.206
     54 C        3.318      0.025     -1.066     -1.871     36.206      0.000
     55 C       -0.701      0.016      1.154      3.223     -2.141     26.125
     56 C       -0.074      0.001      0.089      2.445     -1.293     27.387
     59 C       -0.001      0.000     -0.003     -0.093      3.279     -0.322
     60 C        0.035     -0.001     -0.057     -0.089      0.375     -1.463
                 55 C       56 C       59 C       60 C  
      0 C        0.000      0.000      0.000      0.000
      1 C        0.000      0.000      0.000      0.000
      2 C        0.000      0.000      0.000      0.000
      5 C        0.000      0.000      0.000      0.000
      6 C        0.000      0.000      0.000      0.000
      7 C        0.000      0.000      0.000      0.000
     14 C        0.000      0.000      0.000      0.000
     15 C        0.000      0.000      0.000      0.000
     18 C        0.000      0.000      0.000      0.000
     20 C        0.000      0.000      0.000      0.000
     22 C        0.000      0.000      0.000      0.000
     23 C        0.000      0.000      0.000      0.000
     26 C       -0.000     -0.003      0.000      0.000
     29 C       -0.001      0.046      0.000      0.000
     32 C       -0.001      0.002      0.000      0.001
     34 C       -0.002     -0.002      0.000     -0.000
     36 C       -0.073      0.008      0.001     -0.004
     39 C        0.063      0.086      0.057     -0.005
     43 C       -0.701     -0.074     -0.001      0.035
     44 C        0.016      0.001      0.000     -0.001
     49 C        1.154      0.089     -0.003     -0.057
     50 C        3.223      2.445     -0.093     -0.089
     51 C       -2.141     -1.293      3.279      0.375
     54 C       26.125     27.387     -0.322     -1.463
     55 C        0.000     -1.616      0.540      1.640
     56 C       -1.616      0.000     26.860     26.286
     59 C        0.540     26.860      0.000     -1.043
     60 C        1.640     26.286     -1.043      0.000

NMR spin-spin coupling calculation done in   0.3 sec 

Maximum memory used throughout the entire PROP-calculation: 34.3 MB

--------------------------------
SUGGESTED CITATIONS FOR THIS RUN
--------------------------------

Below you find a list of papers that are relevant to this ORCA run
We neither can nor want to force you to cite these papers, but we appreciate if you do
You receive ORCA, which is the product of decades of hard work by many enthusiastic individuals, for free
The only thing we kindly ask in return is that you cite our papers,
We deeply appreciate it, if you show your appreciation for ORCA by not just citing the generic ORCA reference.

Please note that relegating all ORCA citations to the supporting information does *not* help us.
SI sections are not indexed - citations you put there will not count into any citation statistics
But we need these citations in order to attract the funding resources that allow us to do what we are doing

Therefore, if you are a happy ORCA user, please consider citing a few of the papers listed below in the main body of your paper

In addition to the list printed below, the program has created the file inpJ.bibtex that contains the list in bibtex format
You can import this file easily into all common literature databanks and citation aid programs


List of essential papers. We consider these as the minimum necessary citations

  1. Neese,F.
     Software update: the ORCA program system, version 5.0
     WIRES Comput. Molec. Sci., 2022 12(1)e1606
     doi.org/10.1002/wcms.1606

List of papers to cite with high priority. The work reported in these papers was absolutely
necessary for this run to complete.
Our perspective: the developers of density functionals and basis sets usually get cited in chemistry papers
Good! But without the algorithms to do something with them, the functionals or basis sets would not do anything.
Hence, in our opinion, the algorithm design and method developments papers are equally worthy of getting cited

  1. Neese,F.
     An improvement of the resolution of the identity approximation for the formation of the Coulomb matrix
     J. Comp. Chem., 2003 24(14)1740-1747
     doi.org/10.1002/jcc.10318
  2. Neese,F.; Wennmohs,F.; Hansen,A.; Becker,U.
     Efficient, approximate and parallel Hartree-Fock and hybrid DFT calculations. A 'chain-of-spheres' algorithm for the Hartree-Fock exchange
     Chem. Phys., 2009 356(1-3)98-109
     doi.org/10.1016/j.chemphys.2008.10.036
  3. Stoychev,G.L.; Auer,A.A.; Izsak,R.; Neese,F.
     Self-Consistent Field Calculation of Nuclear Magnetic Resonance Chemical Shielding Constants Using Gauge-Including Atomic Orbitals and Approximate Two-Electron Integrals
     J. Chem. Theory Comput., 2018 14(2)619-637
     doi.org/10.1021/acs.jctc.7b01006
  4. Garcia-Rates,M.; Neese,F.
     Effect of the Solute Cavity on the Solvation Energy and its Derivatives within the Framework of the Gaussian Charge Scheme
     J. Comput. Chem., 2020 41 922-939
     doi.org/10.1002/jcc.26139
  5. Helmich-Paris,B.; de Souza,B.; Neese,F.; Izsák,R.
     An improved chain of spheres for exchange algorithm
     J. Chem. Phys., 2021 155 104109
     doi.org/doi: 10.1063/5.0058766.
  6. Neese,F.
     The SHARK Integral Generation and Digestion System
     J. Comp. Chem., 2022  1-16
     doi.org/10.1002/jcc.26942
  7. Grimme,S.; Bannwarth,C.; Dohm,S.; Hansen,A.; Pisarek,J.; Pracht,P.; Seibert,J.; Neese,F.
     Fully Automated Quantum-Chemistry-Based Computation of Spin-Spin-Coupled Nuclear Magnetic Resonance Spectra
     Angew. Chem., Int. Ed., 2017 56 14763-14769
     doi.org/10.1002/anie.201708266
  8. Caldeweyher,E.; Bannwarth,C.; Grimme,S.
     Extension of the D3 dispersion coefficient model
     J. Chem. Phys., 2017 147 034112-XXXX
     doi.org/10.1063/1.4993215
  9. Caldeweyher,E.; Ehlert,S.; Hansen,A.; Neugebauer,H.; Spicher,S.; Bannwarth,C.; Grimme,S.
     A generally applicable atomic-charge dependent London dispersion correction
     J. Chem. Phys., 2019 150 154122-XXXX
     doi.org/10.1063/1.5090222
 10. Caldeweyher,E.; Mewes,J.; Ehlert,S.; Grimme,S.
     Extension and evaluation of the D4 London-dispersion model for periodic systems
     Phys. Chem. Chem. Phys., 2020 22(16)8499-8512
     doi.org/10.1039/D0CP00502A

List of suggested additional citations. These are papers that are important in the 'surrounding' of 
of this run, or papers that preceded the highly important papers. If you like your results we are grateful for a citation.

  1. Izsak,R.; Neese,F.
     An overlap fitted chain of spheres exchange method
     J. Chem. Phys., 2011 135 144105
     doi.org/10.1063/1.3646921
  2. Izsak,R.; Hansen,A.; Neese,F.
     The resolution of identity and chain of spheres approximations for the LPNO-CCSD singles Fock term
     Molec. Phys., 2012 110 2413-2417
     doi.org/10.1080/00268976.2012.687466
  3. Neese,F.
     The ORCA program system
     WIRES Comput. Molec. Sci., 2012 2(1)73-78
     doi.org/10.1002/wcms.81
  4. Izsak,R.; Neese,F.; Klopper,W.
     Robust fitting techniques in the chain of spheres approximation to the Fock exchange: The role of the complementary space
     J. Chem. Phys., 2013 139 
     doi.org/10.1063/1.4819264
  5. Neese,F.
     Software update: the ORCA program system, version 4.0
     WIRES Comput. Molec. Sci., 2018 8(1)1-6
     doi.org/10.1002/wcms.1327
  6. Neese,F.; Wennmohs,F.; Becker,U.; Riplinger,C.
     The ORCA quantum chemistry program package
     J. Chem. Phys., 2020 152 Art. No. L224108
     doi.org/10.1063/5.0004608

Timings for individual modules:

Sum of individual times          ...      161.362 sec (=   2.689 min)
Startup calculation              ...        3.763 sec (=   0.063 min)   2.3 %
SCF iterations                   ...       57.937 sec (=   0.966 min)  35.9 %
Property integrals               ...        0.774 sec (=   0.013 min)   0.5 %
SCF Response                     ...       98.359 sec (=   1.639 min)  61.0 %
Property calculations            ...        0.529 sec (=   0.009 min)   0.3 %
                             ****ORCA TERMINATED NORMALLY****
TOTAL RUN TIME: 0 days 0 hours 2 minutes 41 seconds 652 msec
