
                                 *****************
                                 * O   R   C   A *
                                 *****************

                                            #,                                       
                                            ###                                      
                                            ####                                     
                                            #####                                    
                                            ######                                   
                                           ########,                                 
                                     ,,################,,,,,                         
                               ,,#################################,,                 
                          ,,##########################################,,             
                       ,#########################################, ''#####,          
                    ,#############################################,,   '####,        
                  ,##################################################,,,,####,       
                ,###########''''           ''''###############################       
              ,#####''   ,,,,##########,,,,          '''####'''          '####       
            ,##' ,,,,###########################,,,                        '##       
           ' ,,###''''                  '''############,,,                           
         ,,##''                                '''############,,,,        ,,,,,,###''
      ,#''                                            '''#######################'''  
     '                                                          ''''####''''         
             ,#######,   #######,   ,#######,      ##                                
            ,#'     '#,  ##    ##  ,#'     '#,    #''#        ,####,   ,####,        
            ##       ##  ##   ,#'  ##            #'  '#       #'       #'  '#        
            ##       ##  #######   ##           ,######,      #####,   #    #        
            '#,     ,#'  ##    ##  '#,     ,#' ,#      #,     #,   #   #,  ,#        
             '#######'   ##     ##  '#######'  #'      '#     '####' # '####'        



                #########################################################
                #                        -***-                          #
                #          Department of theory and spectroscopy        #
                #                                                       #
                #                      Frank Neese                      #
                #                                                       #
                #     Directorship, Architecture, Infrastructure        #
                #                    SHARK, DRIVERS                     #
                #        Core code/Algorithms in most modules           #
                #                                                       #
                #        Max Planck Institute fuer Kohlenforschung      #
                #                Kaiser Wilhelm Platz 1                 #
                #                 D-45470 Muelheim/Ruhr                 #
                #                      Germany                          #
                #                                                       #
                #                  All rights reserved                  #
                #                        -***-                          #
                #########################################################


                         Program Version 6.0.0  -   RELEASE  -


 With contributions from (in alphabetic order):
   Daniel Aravena         : Magnetic Suceptibility
   Michael Atanasov       : Ab Initio Ligand Field Theory (pilot matlab implementation)
   Alexander A. Auer      : GIAO ZORA, VPT2 properties, NMR spectrum
   Ute Becker             : All parallelization in ORCA, NUMFREQ, NUMCALC
   Giovanni Bistoni       : ED, misc. LED, open-shell LED, HFLD
   Martin Brehm           : Molecular dynamics
   Dmytro Bykov           : pre 5.0 version of the SCF Hessian
   Marcos Casanova-Páez   : Triplet and SCS-CIS(D). UHF-(DLPNO)-IP/EA/STEOM-CCSD. UHF-CVS-IP/STEOM-CCSD
   Vijay G. Chilkuri      : MRCI spin determinant printing, contributions to CSF-ICE
   Pauline Colinet        : FMM embedding
   Dipayan Datta          : RHF DLPNO-CCSD density
   Achintya Kumar Dutta   : EOM-CC, STEOM-CC
   Nicolas Foglia         : Exact transition moments, OPA infrastructure, MCD improvements
   Dmitry Ganyushin       : Spin-Orbit,Spin-Spin,Magnetic field MRCI
   Miquel Garcia          : C-PCM and meta-GGA Hessian, CCSD/C-PCM, Gaussian charge scheme
   Tiago L. C. Gouveia    : GS-ROHF, GS-ROCIS
   Yang Guo               : DLPNO-NEVPT2, F12-NEVPT2, CIM, IAO-localization
   Andreas Hansen         : Spin unrestricted coupled pair/coupled cluster methods
   Ingolf Harden          : AUTO-CI MPn and infrastructure 
   Benjamin Helmich-Paris : MC-RPA, TRAH-(SCF,CASSCF), AVAS, COSX integrals, SCF dyn. polar.
   Lee Huntington         : MR-EOM, pCC
   Robert Izsak           : Overlap fitted RIJCOSX, COSX-SCS-MP3, EOM
   Riya Kayal             : Wick's Theorem for AUTO-CI, AUTO-CI UHF-CCSDT
   Emily Kempfer          : AUTO-CI, RHF CISDT and CCSDT
   Christian Kollmar      : KDIIS, OOCD, Brueckner-CCSD(T), CCSD density, CASPT2, CASPT2-K, improved NEVPT2
   Axel Koslowski         : Symmetry handling
   Simone Kossmann        : Meta GGA functionals, TD-DFT gradient, OOMP2, (MP2 Hessian; deprecated post 5.0)
   Lucas Lang             : DCDCAS
   Marvin Lechner         : AUTO-CI (C++ implementation), FIC-MRCC
   Spencer Leger          : CASSCF response
   Dagmar Lenk            : GEPOL surface, SMD, ORCA-2-JSON
   Dimitrios Liakos       : Extrapolation schemes; Compound Job, initial MDCI parallelization
   Dimitrios Manganas     : Further ROCIS development; embedding schemes. LFT, Crystal Embedding
   Dimitrios Pantazis     : SARC Basis sets
   Anastasios Papadopoulos: AUTO-CI, single reference methods and gradients
   Taras Petrenko         : pre 6.0 DFT Hessian and TD-DFT gradient, (ASA, deprecated), ECA, 1-Electron XAS/XES, NRVS
   Peter Pinski           : DLPNO-MP2, DLPNO-MP2 Gradient
   Christoph Reimann      : Effective Core Potentials
   Marius Retegan         : Local ZFS, SOC
   Christoph Riplinger    : Optimizer, TS searches, QM/MM, DLPNO-CCSD(T), (RO)-DLPNO pert. Triples
   Michael Roemelt        : Original ROCIS implementation
   Masaaki Saitow         : Open-shell DLPNO-CCSD energy and density
   Barbara Sandhoefer     : DKH picture change effects
   Kantharuban Sivalingam : CASSCF convergence/infrastructure, NEVPT2 and variants, FIC-MRCI
   Bernardo de Souza      : ESD, SOC TD-DFT
   Georgi Stoychev        : AutoAux, RI-MP2 NMR, DLPNO-MP2 response, X2C
   Van Anh Tran           : RI-MP2 g-tensors
   Willem Van den Heuvel  : Paramagnetic NMR
   Zikuan Wang            : NOTCH, Electric field optimization 
   Frank Wennmohs         : Technical directorship and infrastructure
   Hang Xu                : AUTO-CI-Response properties 


 We gratefully acknowledge several colleagues who have allowed us to
 interface, adapt or use parts of their codes:
   Stefan Grimme, W. Hujo, H. Kruse, P. Pracht,  : VdW corrections, initial TS optimization,
                  C. Bannwarth, S. Ehlert,         DFT functionals, gCP, sTDA/sTD-DF
                  L. Wittmann, M. Mueller
   Ed Valeev, F. Pavosevic, A. Kumar             : LibInt (2-el integral package), F12 methods
   Garnet Chan, S. Sharma, J. Yang, R. Olivares  : DMRG
   Ulf Ekstrom                                   : XCFun DFT Library
   Mihaly Kallay                                 : mrcc  (arbitrary order and MRCC methods)
   Frank Weinhold                                : gennbo (NPA and NBO analysis)
   Simon Mueller                                 : openCOSMO-RS
   Christopher J. Cramer and Donald G. Truhlar   : smd solvation model
   Lars Goerigk                                  : TD-DFT with DH, B97 family of functionals
   V. Asgeirsson, H. Jonsson                     : NEB implementation
   FAccTs GmbH                                   : IRC, NEB, NEB-TS, DLPNO-Multilevel, CI-OPT
                                                   MM, QMMM, 2- and 3-layer-ONIOM, Crystal-QMMM,
                                                   LR-CPCM, SF, NACMEs, symmetry and pop. for TD-DFT,
                                                   nearIR, NL-DFT gradient (VV10), updates on ESD,
                                                   ML-optimized integration grids, MBIS, APM,
                                                   GOAT, DOCKER, SOLVATOR, interface openCOSMO-RS
   S Lehtola, MJT Oliveira, MAL Marques          : LibXC Library
   Liviu Ungur et al                             : ANISO software


 Your calculation uses the libint2 library for the computation of 2-el integrals
 For citations please refer to: http://libint.valeyev.net

 Your ORCA version has been built with support for libXC version: 6.2.2
 For citations please refer to: https://libxc.gitlab.io

 This ORCA versions uses:
   CBLAS   interface :  Fast vector & matrix operations
   LAPACKE interface :  Fast linear algebra routines
   SCALAPACK package :  Parallel linear algebra routines
   Shared memory     :  Shared parallel matrices
   BLAS/LAPACK       :  OpenBLAS 0.3.27  USE64BITINT DYNAMIC_ARCH NO_AFFINITY Zen SINGLE_THREADED
        Core in use  :  Zen
   Copyright (c) 2011-2014, The OpenBLAS Project


NOTE: MaxCore=8000 MB was set to SCF,MP2,MDCI,CIPSI,MRCI and CIS
      => If you want to overwrite this, your respective input block should be placed after the MaxCore statement
Your calculation utilizes the atom-pairwise dispersion correction
based on EEQ partial charges (D4)


================================================================================

----- Orbital basis set information -----
Your calculation utilizes the basis: def2-SVP
   F. Weigend and R. Ahlrichs, Phys. Chem. Chem. Phys. 7, 3297 (2005).

----- AuxJ basis set information -----
Your calculation utilizes the auxiliary basis: def2/J
   F. Weigend, Phys. Chem. Chem. Phys. 8, 1057 (2006).

================================================================================
                                        WARNINGS
                       Please study these warnings very carefully!
================================================================================


================================================================================
                                       INPUT FILE
================================================================================
NAME = inpS
|  1> ! wb97x-d4
|  2> ! def2-svp
|  3> ! def2/J RIJCOSX
|  4> ! DEFGRID2
|  5> ! scfconv7
|  6> ! smallprint printgap noloewdin
|  7> ! NOSOSCF
|  8> %MaxCore 8000
|  9> %output
| 10>        print[P_BondOrder_M] 1
| 11>        print[P_Mayer] 1
| 12>        print[P_basis] 2
| 13> end
| 14> %pal
| 15>     nprocs 4
| 16> end
| 17> ! CPCM(chloroform)
| 18> *xyz 0 1
| 19> C   -5.1081181600   0.2110846100  -0.6241322000
| 20> C   -6.5499186900  -0.2014836700  -0.8029376400
| 21> C   -7.4783272600   0.7536818000  -0.0416588000
| 22> H   -6.7051531300  -1.2298639300  -0.4573882600
| 23> H   -6.8216288600  -0.1568978600  -1.8680334800
| 24> C   -4.8391060300   1.6204286000  -0.9866842100
| 25> C   -5.7859175400   2.6181592700  -0.3569923800
| 26> C   -7.2532051600   2.1925983800  -0.5090548400
| 27> H   -5.6273862400   3.6134379600  -0.7857312000
| 28> H   -5.5489916000   2.6896902400   0.7155223300
| 29> H   -7.5486957000   2.2627028200  -1.5647873500
| 30> H   -7.9019193600   2.8681673400   0.0605273100
| 31> O   -7.2901436900   0.6198266600   1.3769593200
| 32> H   -8.5227013500   0.4697788700  -0.2209136900
| 33> C   -4.1919473900  -0.6420943900  -0.1075332800
| 34> C   -3.8688681200   1.9863615900  -1.8312713000
| 35> H   -3.2098726200   1.2522937300  -2.2872489100
| 36> H   -3.7195529500   3.0314371900  -2.0923902700
| 37> C   -2.8169373700  -0.3270592000   0.2038915500
| 38> H   -4.5436398800  -1.6479471200   0.1191962200
| 39> C   -1.8714804300  -1.1903548700   0.6321352200
| 40> H   -2.5324641600   0.7162510100   0.0865438000
| 41> C   -2.0583154200  -2.6723374800   0.8354186200
| 42> C   -1.0101429900  -3.4908973200   0.0564178100
| 43> H   -3.0631137000  -3.0058950000   0.5620729800
| 44> H   -1.9293968000  -2.8848164600   1.9087561200
| 45> C    0.4253504300  -3.0122179500   0.3129950300
| 46> H   -1.2350338700  -3.4322741600  -1.0160727100
| 47> H   -1.1003687900  -4.5478362000   0.3356577800
| 48> C    0.5824581300  -1.5079106000   0.0497896500
| 49> H    1.1121812800  -3.5996469500  -0.3053520600
| 50> H    0.6913721900  -3.2089823200   1.3625320400
| 51> C   -0.4677314100  -0.7667833400   0.9373838300
| 52> H   -0.2534084800  -1.1103299500   1.9663521700
| 53> C   -0.0504324900   0.6970562000   0.8539800300
| 54> H   -6.3382271300   0.5594736800   1.5411819600
| 55> C    1.4956137100   0.6273348100   0.8503971200
| 56> H   -0.4461462200   1.2891953700   1.6859124200
| 57> H   -0.4193791800   1.1532249300  -0.0715078000
| 58> C    1.8915209000  -0.8600413500   0.5869941600
| 59> H    1.9085184800   0.9765899800   1.8007084100
| 60> H    1.9208634900   1.2733758900   0.0731321600
| 61> H    2.0942205800  -1.3504038800   1.5521260400
| 62> C    3.1563089000  -0.9689586200  -0.2757760200
| 63> C    0.3662324700  -1.1810610500  -1.4342741000
| 64> H    0.5945256200  -0.1336119300  -1.6555166600
| 65> H   -0.6714025300  -1.3584768400  -1.7339023600
| 66> H    1.0091036000  -1.8015045100  -2.0676222300
| 67> H    2.9539738300  -0.4384127600  -1.2196936300
| 68> C    3.5538466700  -2.4120257300  -0.6361770300
| 69> C    4.3703195100  -0.3053268300   0.3408205300
| 70> C    4.5762141200  -0.0541204300   1.6331973300
| 71> H    5.1605815800  -0.0843340100  -0.3781307700
| 72> H    3.7831440100  -0.2900198800   2.3451316400
| 73> C    5.8040105900   0.5383568100   2.2834705200
| 74> C    5.3640069800   1.6370685000   3.2669188200
| 75> C    6.9039773600   1.0026431800   1.3061346000
| 76> H    6.2473904900  -0.2690616600   2.8917938000
| 77> H    7.0273913300   0.2032962200   0.5612014300
| 78> C    8.2531365600   1.1578388800   2.0152946800
| 79> C    6.5444361800   2.2949983500   0.5652448300
| 80> H    4.8295839900   2.4392520400   2.7468557600
| 81> H    6.2181698100   2.0768229300   3.7915106900
| 82> H    4.6867428800   1.2218330600   4.0210914100
| 83> H    8.5485363800   0.2289723200   2.5163718000
| 84> H    8.2202097800   1.9541164800   2.7677700800
| 85> H    9.0376768800   1.4188747900   1.2961530700
| 86> H    5.5424561200   2.2514506000   0.1266050200
| 87> H    7.2617642200   2.4842439500  -0.2410211700
| 88> H    6.5777391100   3.1550560600   1.2440122300
| 89> H    2.8316801400  -2.8829110900  -1.3081014700
| 90> H    3.6363772300  -3.0226496700   0.2707503200
| 91> H    4.5291335700  -2.4233861100  -1.1358782600
| 92> *
| 93> %eprnmr
| 94>  Nuclei = all C { shift }
| 95>  origin giao
| 96>  giao_2el giao_2el_same_as_scf
| 97>  giao_1el giao_1el_analytic
| 98> end
| 99> 
|100>                          ****END OF INPUT****
================================================================================

                       ****************************
                       * Single Point Calculation *
                       ****************************

---------------------------------
CARTESIAN COORDINATES (ANGSTROEM)
---------------------------------
  C     -5.108118    0.211085   -0.624132
  C     -6.549919   -0.201484   -0.802938
  C     -7.478327    0.753682   -0.041659
  H     -6.705153   -1.229864   -0.457388
  H     -6.821629   -0.156898   -1.868033
  C     -4.839106    1.620429   -0.986684
  C     -5.785918    2.618159   -0.356992
  C     -7.253205    2.192598   -0.509055
  H     -5.627386    3.613438   -0.785731
  H     -5.548992    2.689690    0.715522
  H     -7.548696    2.262703   -1.564787
  H     -7.901919    2.868167    0.060527
  O     -7.290144    0.619827    1.376959
  H     -8.522701    0.469779   -0.220914
  C     -4.191947   -0.642094   -0.107533
  C     -3.868868    1.986362   -1.831271
  H     -3.209873    1.252294   -2.287249
  H     -3.719553    3.031437   -2.092390
  C     -2.816937   -0.327059    0.203892
  H     -4.543640   -1.647947    0.119196
  C     -1.871480   -1.190355    0.632135
  H     -2.532464    0.716251    0.086544
  C     -2.058315   -2.672337    0.835419
  C     -1.010143   -3.490897    0.056418
  H     -3.063114   -3.005895    0.562073
  H     -1.929397   -2.884816    1.908756
  C      0.425350   -3.012218    0.312995
  H     -1.235034   -3.432274   -1.016073
  H     -1.100369   -4.547836    0.335658
  C      0.582458   -1.507911    0.049790
  H      1.112181   -3.599647   -0.305352
  H      0.691372   -3.208982    1.362532
  C     -0.467731   -0.766783    0.937384
  H     -0.253408   -1.110330    1.966352
  C     -0.050432    0.697056    0.853980
  H     -6.338227    0.559474    1.541182
  C      1.495614    0.627335    0.850397
  H     -0.446146    1.289195    1.685912
  H     -0.419379    1.153225   -0.071508
  C      1.891521   -0.860041    0.586994
  H      1.908518    0.976590    1.800708
  H      1.920863    1.273376    0.073132
  H      2.094221   -1.350404    1.552126
  C      3.156309   -0.968959   -0.275776
  C      0.366232   -1.181061   -1.434274
  H      0.594526   -0.133612   -1.655517
  H     -0.671403   -1.358477   -1.733902
  H      1.009104   -1.801505   -2.067622
  H      2.953974   -0.438413   -1.219694
  C      3.553847   -2.412026   -0.636177
  C      4.370320   -0.305327    0.340821
  C      4.576214   -0.054120    1.633197
  H      5.160582   -0.084334   -0.378131
  H      3.783144   -0.290020    2.345132
  C      5.804011    0.538357    2.283471
  C      5.364007    1.637069    3.266919
  C      6.903977    1.002643    1.306135
  H      6.247390   -0.269062    2.891794
  H      7.027391    0.203296    0.561201
  C      8.253137    1.157839    2.015295
  C      6.544436    2.294998    0.565245
  H      4.829584    2.439252    2.746856
  H      6.218170    2.076823    3.791511
  H      4.686743    1.221833    4.021091
  H      8.548536    0.228972    2.516372
  H      8.220210    1.954116    2.767770
  H      9.037677    1.418875    1.296153
  H      5.542456    2.251451    0.126605
  H      7.261764    2.484244   -0.241021
  H      6.577739    3.155056    1.244012
  H      2.831680   -2.882911   -1.308101
  H      3.636377   -3.022650    0.270750
  H      4.529134   -2.423386   -1.135878

----------------------------
CARTESIAN COORDINATES (A.U.)
----------------------------
  NO LB      ZA    FRAG     MASS         X           Y           Z
   0 C     6.0000    0    12.011   -9.652944    0.398892   -1.179439
   1 C     6.0000    0    12.011  -12.377553   -0.380749   -1.517332
   2 C     6.0000    0    12.011  -14.131990    1.424252   -0.078724
   3 H     1.0000    0     1.008  -12.670903   -2.324106   -0.864339
   4 H     1.0000    0     1.008  -12.891010   -0.296494   -3.530072
   5 C     6.0000    0    12.011   -9.144585    3.062166   -1.864563
   6 C     6.0000    0    12.011  -10.933800    4.947604   -0.674618
   7 C     6.0000    0    12.011  -13.706571    4.143410   -0.961974
   8 H     1.0000    0     1.008  -10.634219    6.828408   -1.484817
   9 H     1.0000    0     1.008  -10.486074    5.082778    1.352141
  10 H     1.0000    0     1.008  -14.264968    4.275889   -2.957020
  11 H     1.0000    0     1.008  -14.932464    5.420051    0.114380
  12 O     8.0000    0    15.999  -13.776375    1.171303    2.602076
  13 H     1.0000    0     1.008  -16.105571    0.887753   -0.417466
  14 C     6.0000    0    12.011   -7.921633   -1.213383   -0.203208
  15 C     6.0000    0    12.011   -7.311101    3.753679   -3.460601
  16 H     1.0000    0     1.008   -6.065780    2.366492   -4.322274
  17 H     1.0000    0     1.008   -7.028936    5.728586   -3.954045
  18 C     6.0000    0    12.011   -5.323240   -0.618052    0.385299
  19 H     1.0000    0     1.008   -8.586235   -3.114169    0.225248
  20 C     6.0000    0    12.011   -3.536585   -2.249445    1.194562
  21 H     1.0000    0     1.008   -4.785664    1.353518    0.163544
  22 C     6.0000    0    12.011   -3.889652   -5.049986    1.578712
  23 C     6.0000    0    12.011   -1.908894   -6.596840    0.106614
  24 H     1.0000    0     1.008   -5.788446   -5.680318    1.062164
  25 H     1.0000    0     1.008   -3.646032   -5.451513    3.607026
  26 C     6.0000    0    12.011    0.803796   -5.692267    0.591475
  27 H     1.0000    0     1.008   -2.333876   -6.486058   -1.920099
  28 H     1.0000    0     1.008   -2.079396   -8.594165    0.634301
  29 C     6.0000    0    12.011    1.100686   -2.849538    0.094089
  30 H     1.0000    0     1.008    2.101718   -6.802347   -0.577032
  31 H     1.0000    0     1.008    1.306504   -6.064098    2.574812
  32 C     6.0000    0    12.011   -0.883884   -1.449011    1.771399
  33 H     1.0000    0     1.008   -0.478873   -2.098220    3.715867
  34 C     6.0000    0    12.011   -0.095304    1.317245    1.613788
  35 H     1.0000    0     1.008  -11.977513    1.057252    2.912412
  36 C     6.0000    0    12.011    2.826300    1.185491    1.607018
  37 H     1.0000    0     1.008   -0.843094    2.436226    3.185913
  38 H     1.0000    0     1.008   -0.792512    2.179279   -0.135130
  39 C     6.0000    0    12.011    3.574456   -1.625243    1.109258
  40 H     1.0000    0     1.008    3.606577    1.845488    3.402846
  41 H     1.0000    0     1.008    3.629906    2.406332    0.138200
  42 H     1.0000    0     1.008    3.957503   -2.551894    2.933093
  43 C     6.0000    0    12.011    5.964559   -1.831066   -0.521141
  44 C     6.0000    0    12.011    0.692079   -2.231882   -2.710385
  45 H     1.0000    0     1.008    1.123491   -0.252490   -3.128473
  46 H     1.0000    0     1.008   -1.268767   -2.567149   -3.276601
  47 H     1.0000    0     1.008    1.906929   -3.404350   -3.907240
  48 H     1.0000    0     1.008    5.582202   -0.828480   -2.304887
  49 C     6.0000    0    12.011    6.715797   -4.558068   -1.202200
  50 C     6.0000    0    12.011    8.258707   -0.576984    0.644057
  51 C     6.0000    0    12.011    8.647791   -0.102273    3.086296
  52 H     1.0000    0     1.008    9.752086   -0.159368   -0.714564
  53 H     1.0000    0     1.008    7.149106   -0.548058    4.431657
  54 C     6.0000    0    12.011   10.967990    1.017347    4.315134
  55 C     6.0000    0    12.011   10.136504    3.093611    6.173582
  56 C     6.0000    0    12.011   13.046626    1.894721    2.468237
  57 H     1.0000    0     1.008   11.805857   -0.508453    5.464698
  58 H     1.0000    0     1.008   13.279845    0.384174    1.060517
  59 C     6.0000    0    12.011   15.596168    2.187998    3.808355
  60 C     6.0000    0    12.011   12.367192    4.336918    1.068158
  61 H     1.0000    0     1.008    9.126591    4.609518    5.190805
  62 H     1.0000    0     1.008   11.750638    3.924627    7.164917
  63 H     1.0000    0     1.008    8.856661    2.308930    7.598762
  64 H     1.0000    0     1.008   16.154393    0.432695    4.755254
  65 H     1.0000    0     1.008   15.533945    3.692745    5.230327
  66 H     1.0000    0     1.008   17.078734    2.681285    2.449374
  67 H     1.0000    0     1.008   10.473724    4.254625    0.239249
  68 H     1.0000    0     1.008   13.722746    4.694541   -0.455464
  69 H     1.0000    0     1.008   12.430125    5.962192    2.350842
  70 H     1.0000    0     1.008    5.351100   -5.447912   -2.471954
  71 H     1.0000    0     1.008    6.871757   -5.711980    0.511644
  72 H     1.0000    0     1.008    8.558822   -4.579536   -2.146499

--------------------------------
INTERNAL COORDINATES (ANGSTROEM)
--------------------------------
 C      0   0   0     0.000000000000     0.00000000     0.00000000
 C      1   0   0     1.510288958890     0.00000000     0.00000000
 C      2   1   0     1.534219352036   110.41864869     0.00000000
 H      2   1   3     1.095932509116   110.74609389   237.90809756
 H      2   1   3     1.100110657761   109.83644088   118.75599676
 C      1   2   3     1.479885795658   113.87118957   305.89981573
 C      6   1   2     1.512755871281   114.35297972    50.05159582
 C      3   2   1     1.529581623293   110.18083834    56.79930001
 H      7   6   1     1.095230030461   110.23139863   188.67395574
 H      7   6   1     1.100699043281   108.28451841    72.01671530
 H      8   3   2     1.098544684757   108.30690794    64.56462073
 H      8   3   2     1.096196770017   109.50455253   181.52400453
 O      3   2   1     1.437291767497   110.64290748   292.76798959
 H      3   2   1     1.097018882752   109.50538525   177.28339199
 C      1   2   3     1.354310795198   121.25696144   122.56952905
 C      6   1   2     1.337383979180   123.17281906   232.01100789
 H     16   6   1     1.086759528565   121.33686153   358.99644562
 H     16   6   1     1.087502251125   120.94307591   178.39587973
 C     15   1   2     1.444605534663   126.06789777   185.08652949
 H     15   1   2     1.089418922243   116.27305065     3.06083989
 C     19  15   1     1.350022548008   126.54960294   184.88328945
 H     19  15   1     1.087746154178   115.77495008     5.55691959
 C     21  19  15     1.507482640214   125.77679520     1.76464888
 C     23  21  19     1.541281258127   111.69491421   125.65768568
 H     23  21  19     1.093434059076   112.33837264     1.93979686
 H     23  21  19     1.101735320497   107.84646506   244.28001535
 C     24  23  21     1.534798738581   112.70158833    50.72350443
 H     24  23  21     1.097382566968   109.03948990   288.55510915
 H     24  23  21     1.096920895911   109.09469096   172.65948740
 C     27  24  23     1.535220018344   111.87960134   306.39646853
 H     27  24  23     1.095062815670   108.96086767   182.79208454
 H     27  24  23     1.100459780935   109.25468604    66.30852279
 C     21  19  15     1.497698523096   122.69700980   180.32435049
 H     33  21  19     1.105773230047   106.46637925   126.18568734
 C     33  21  19     1.524441137386   121.13048660     3.54745692
 H     13   3   2     0.967861919328   107.58081924    42.63632289
 C     35  33  21     1.547621646916   103.31633607   195.14997412
 H     35  33  21     1.095139102712   112.25500810    73.37025127
 H     35  33  21     1.095782502949   110.71913466   313.67438120
 C     30  27  24     1.556267517640   115.77345678   166.40361321
 H     37  35  33     1.093417153131   111.15187904   252.06777804
 H     37  35  33     1.096515969095   111.25519485   133.75469355
 H     40  30  27     1.101372832828   105.78027829   322.32747141
 C     40  30  27     1.534901964343   118.00552827    83.28228936
 C     30  27  24     1.534936278300   111.10013512   294.65354644
 H     45  30  27     1.094630390443   111.70328386   186.92315889
 H     45  30  27     1.094504385536   111.32864328    66.97934727
 H     45  30  27     1.095154432315   110.84376087   306.94087711
 H     44  40  30     1.101543845965   107.22538383    62.54201116
 C     44  40  30     1.539599899503   114.25891176   303.70953491
 C     44  40  30     1.514734372543   113.61089146   180.00574517
 C     51  44  40     1.332567086118   126.95690520    23.39361692
 H     51  44  40     1.090982556022   113.64333663   199.27844445
 H     52  51  44     1.091539835114   118.65644654   356.38773118
 C     52  51  44     1.510420032076   128.10355969   176.47219473
 C     55  52  51     1.538811591238   108.83151762   133.32873932
 C     55  52  51     1.542943365453   115.14033581     5.03632709
 H     55  52  51     1.103887464559   106.07151228   247.62845619
 H     57  55  52     1.099596288744   106.88114178   314.66505489
 C     57  55  52     1.532065361304   111.41221777   198.38785685
 C     57  55  52     1.532439035274   113.12554846    73.61032470
 H     56  55  52     1.095249720595   111.03911805   299.10281047
 H     56  55  52     1.094611679514   111.71595285   178.07770228
 H     56  55  52     1.095391905798   110.25176978    58.29940312
 H     60  57  55     1.095961869834   111.29265349    56.00048443
 H     60  57  55     1.096066337731   111.40231945   295.33406580
 H     60  57  55     1.095813814135   110.53812762   176.00857777
 H     61  57  55     1.094653063799   112.02060171   310.87787653
 H     61  57  55     1.095645141844   110.35493514   190.33495331
 H     61  57  55     1.096144850364   110.80491042    71.41604107
 H     50  44  40     1.093041615120   112.15385048    67.49166266
 H     50  44  40     1.096444302103   110.35305316   306.32155199
 H     50  44  40     1.095908260216   110.25761732   187.44096892

---------------------------
INTERNAL COORDINATES (A.U.)
---------------------------
 C      0   0   0     0.000000000000     0.00000000     0.00000000
 C      1   0   0     2.854032515387     0.00000000     0.00000000
 C      2   1   0     2.899254404710   110.41864869     0.00000000
 H      2   1   3     2.071012303491   110.74609389   237.90809756
 H      2   1   3     2.078907860177   109.83644088   118.75599676
 C      1   2   3     2.796578863274   113.87118957   305.89981573
 C      6   1   2     2.858694304203   114.35297972    50.05159582
 C      3   2   1     2.890490367502   110.18083834    56.79930001
 H      7   6   1     2.069684811217   110.23139863   188.67395574
 H      7   6   1     2.080019747671   108.28451841    72.01671530
 H      8   3   2     2.075948600066   108.30690794    64.56462073
 H      8   3   2     2.071511684221   109.50455253   181.52400453
 O      3   2   1     2.716087815109   110.64290748   292.76798959
 H      3   2   1     2.073065252142   109.50538525   177.28339199
 C      1   2   3     2.559276503136   121.25696144   122.56952905
 C      6   1   2     2.527289456543   123.17281906   232.01100789
 H     16   6   1     2.053677882417   121.33686153   358.99644562
 H     16   6   1     2.055081424649   120.94307591   178.39587973
 C     15   1   2     2.729908832060   126.06789777   185.08652949
 H     15   1   2     2.058703408151   116.27305065     3.06083989
 C     19  15   1     2.551172890354   126.54960294   184.88328945
 H     19  15   1     2.055542334622   115.77495008     5.55691959
 C     21  19  15     2.848729341645   125.77679520     1.76464888
 C     23  21  19     2.912599473206   111.69491421   125.65768568
 H     23  21  19     2.066290917155   112.33837264     1.93979686
 H     23  21  19     2.081978027807   107.84646506   244.28001535
 C     24  23  21     2.900349286606   112.70158833    50.72350443
 H     24  23  21     2.073752515709   109.03948990   288.55510915
 H     24  23  21     2.072880083848   109.09469096   172.65948740
 C     27  24  23     2.901145389984   111.87960134   306.39646853
 H     27  24  23     2.069368821058   108.96086767   182.79208454
 H     27  24  23     2.079567607361   109.25468604    66.30852279
 C     21  19  15     2.830240039830   122.69700980   180.32435049
 H     33  21  19     2.089608571010   106.46637925   126.18568734
 C     33  21  19     2.880776256943   121.13048660     3.54745692
 H     13   3   2     1.828993962982   107.58081924    42.63632289
 C     35  33  21     2.924581071599   103.31633607   195.14997412
 H     35  33  21     2.069512982675   112.25500810    73.37025127
 H     35  33  21     2.070728832917   110.71913466   313.67438120
 C     30  27  24     2.940919399456   115.77345678   166.40361321
 H     37  35  33     2.066258969550   111.15187904   252.06777804
 H     37  35  33     2.072114883062   111.25519485   133.75469355
 H     40  30  27     2.081293025387   105.78027829   322.32747141
 C     40  30  27     2.900544355027   118.00552827    83.28228936
 C     30  27  24     2.900609199007   111.10013512   294.65354644
 H     45  30  27     2.068551655804   111.70328386   186.92315889
 H     45  30  27     2.068313541038   111.32864328    66.97934727
 H     45  30  27     2.069541951425   110.84376087   306.94087711
 H     44  40  30     2.081616193380   107.22538383    62.54201116
 C     44  40  30     2.909422165873   114.25891176   303.70953491
 C     44  40  30     2.862433129743   113.61089146   180.00574517
 C     51  44  40     2.518186847841   126.95690520    23.39361692
 H     51  44  40     2.061658247767   113.64333663   199.27844445
 H     52  51  44     2.062711352631   118.65644654   356.38773118
 C     52  51  44     2.854280207811   128.10355969   176.47219473
 C     55  52  51     2.907932479143   108.83151762   133.32873932
 C     55  52  51     2.915740400856   115.14033581     5.03632709
 H     55  52  51     2.086044990686   106.07151228   247.62845619
 H     57  55  52     2.077935843602   106.88114178   314.66505489
 C     57  55  52     2.895183952132   111.41221777   198.38785685
 C     57  55  52     2.895890093599   113.12554846    73.61032470
 H     56  55  52     2.069722020179   111.03911805   299.10281047
 H     56  55  52     2.068516297273   111.71595285   178.07770228
 H     56  55  52     2.069990711273   110.25176978    58.29940312
 H     60  57  55     2.071067787206   111.29265349    56.00048443
 H     60  57  55     2.071265202923   111.40231945   295.33406580
 H     60  57  55     2.070788002482   110.53812762   176.00857777
 H     61  57  55     2.068594502238   112.02060171   310.87787653
 H     61  57  55     2.070469258046   110.35493514   190.33495331
 H     61  57  55     2.071413570296   110.80491042    71.41604107
 H     50  44  40     2.065549305556   112.15385048    67.49166266
 H     50  44  40     2.071979452072   110.35305316   306.32155199
 H     50  44  40     2.070966479710   110.25761732   187.44096892

---------------------
BASIS SET INFORMATION
---------------------
There are 3 groups of distinct atoms

 Group   1 Type C   : 7s4p1d contracted to 3s2p1d pattern {511/31/1}
 Group   2 Type H   : 4s1p contracted to 2s1p pattern {31/1}
 Group   3 Type O   : 7s4p1d contracted to 3s2p1d pattern {511/31/1}

Atom   0C    basis set group =>   1
Atom   1C    basis set group =>   1
Atom   2C    basis set group =>   1
Atom   3H    basis set group =>   2
Atom   4H    basis set group =>   2
Atom   5C    basis set group =>   1
Atom   6C    basis set group =>   1
Atom   7C    basis set group =>   1
Atom   8H    basis set group =>   2
Atom   9H    basis set group =>   2
Atom  10H    basis set group =>   2
Atom  11H    basis set group =>   2
Atom  12O    basis set group =>   3
Atom  13H    basis set group =>   2
Atom  14C    basis set group =>   1
Atom  15C    basis set group =>   1
Atom  16H    basis set group =>   2
Atom  17H    basis set group =>   2
Atom  18C    basis set group =>   1
Atom  19H    basis set group =>   2
Atom  20C    basis set group =>   1
Atom  21H    basis set group =>   2
Atom  22C    basis set group =>   1
Atom  23C    basis set group =>   1
Atom  24H    basis set group =>   2
Atom  25H    basis set group =>   2
Atom  26C    basis set group =>   1
Atom  27H    basis set group =>   2
Atom  28H    basis set group =>   2
Atom  29C    basis set group =>   1
Atom  30H    basis set group =>   2
Atom  31H    basis set group =>   2
Atom  32C    basis set group =>   1
Atom  33H    basis set group =>   2
Atom  34C    basis set group =>   1
Atom  35H    basis set group =>   2
Atom  36C    basis set group =>   1
Atom  37H    basis set group =>   2
Atom  38H    basis set group =>   2
Atom  39C    basis set group =>   1
Atom  40H    basis set group =>   2
Atom  41H    basis set group =>   2
Atom  42H    basis set group =>   2
Atom  43C    basis set group =>   1
Atom  44C    basis set group =>   1
Atom  45H    basis set group =>   2
Atom  46H    basis set group =>   2
Atom  47H    basis set group =>   2
Atom  48H    basis set group =>   2
Atom  49C    basis set group =>   1
Atom  50C    basis set group =>   1
Atom  51C    basis set group =>   1
Atom  52H    basis set group =>   2
Atom  53H    basis set group =>   2
Atom  54C    basis set group =>   1
Atom  55C    basis set group =>   1
Atom  56C    basis set group =>   1
Atom  57H    basis set group =>   2
Atom  58H    basis set group =>   2
Atom  59C    basis set group =>   1
Atom  60C    basis set group =>   1
Atom  61H    basis set group =>   2
Atom  62H    basis set group =>   2
Atom  63H    basis set group =>   2
Atom  64H    basis set group =>   2
Atom  65H    basis set group =>   2
Atom  66H    basis set group =>   2
Atom  67H    basis set group =>   2
Atom  68H    basis set group =>   2
Atom  69H    basis set group =>   2
Atom  70H    basis set group =>   2
Atom  71H    basis set group =>   2
Atom  72H    basis set group =>   2

-------------------------
BASIS SET IN INPUT FORMAT
-------------------------

 # Basis set for element : H 
 NewGTO H 
 S 3 
   1      13.0107010000      0.0334854848
   2       1.9622572000      0.2347218709
   3       0.4445379600      0.8137702853
 S 1 
   1       0.1219496200      1.0000000000
 P 1 
   1       0.8000000000      1.0000000000
  end;

 # Basis set for element : C 
 NewGTO C 
 S 5 
   1    1238.4016938000      0.0055173650
   2     186.2900499200      0.0410888285
   3      42.2511763460      0.1822538213
   4      11.6765579320      0.4682845944
   5       3.5930506482      0.4457581734
 S 1 
   1       0.4024514736      1.0000000000
 S 1 
   1       0.1309018267      1.0000000000
 P 3 
   1       9.4680970621      0.0568883320
   2       2.0103545142      0.3129405934
   3       0.5477100471      0.7606501651
 P 1 
   1       0.1526861379      1.0000000000
 D 1 
   1       0.8000000000      1.0000000000
  end;

 # Basis set for element : O 
 NewGTO O 
 S 5 
   1    2266.1767785000     -0.0053893504
   2     340.8701019100     -0.0402347214
   3      77.3631351670     -0.1800818421
   4      21.4796449400     -0.4682885766
   5       6.6589433124     -0.4469261716
 S 1 
   1       0.8097597567      1.0000000000
 S 1 
   1       0.2553077223      1.0000000000
 P 3 
   1      17.7215043170      0.0626302488
   2       3.8635505440      0.3333113849
   3       1.0480920883      0.7414863830
 P 1 
   1       0.2764154441      1.0000000000
 D 1 
   1       1.2000000000      1.0000000000
  end;

---------------------------------
AUXILIARY/J BASIS SET INFORMATION
---------------------------------
There are 3 groups of distinct atoms

 Group   1 Type C   : 12s5p4d2f1g contracted to 6s4p3d1f1g pattern {711111/2111/211/2/1}
 Group   2 Type H   : 5s2p1d contracted to 3s1p1d pattern {311/2/1}
 Group   3 Type O   : 12s5p4d2f1g contracted to 6s4p3d1f1g pattern {711111/2111/211/2/1}

Atom   0C    basis set group =>   1
Atom   1C    basis set group =>   1
Atom   2C    basis set group =>   1
Atom   3H    basis set group =>   2
Atom   4H    basis set group =>   2
Atom   5C    basis set group =>   1
Atom   6C    basis set group =>   1
Atom   7C    basis set group =>   1
Atom   8H    basis set group =>   2
Atom   9H    basis set group =>   2
Atom  10H    basis set group =>   2
Atom  11H    basis set group =>   2
Atom  12O    basis set group =>   3
Atom  13H    basis set group =>   2
Atom  14C    basis set group =>   1
Atom  15C    basis set group =>   1
Atom  16H    basis set group =>   2
Atom  17H    basis set group =>   2
Atom  18C    basis set group =>   1
Atom  19H    basis set group =>   2
Atom  20C    basis set group =>   1
Atom  21H    basis set group =>   2
Atom  22C    basis set group =>   1
Atom  23C    basis set group =>   1
Atom  24H    basis set group =>   2
Atom  25H    basis set group =>   2
Atom  26C    basis set group =>   1
Atom  27H    basis set group =>   2
Atom  28H    basis set group =>   2
Atom  29C    basis set group =>   1
Atom  30H    basis set group =>   2
Atom  31H    basis set group =>   2
Atom  32C    basis set group =>   1
Atom  33H    basis set group =>   2
Atom  34C    basis set group =>   1
Atom  35H    basis set group =>   2
Atom  36C    basis set group =>   1
Atom  37H    basis set group =>   2
Atom  38H    basis set group =>   2
Atom  39C    basis set group =>   1
Atom  40H    basis set group =>   2
Atom  41H    basis set group =>   2
Atom  42H    basis set group =>   2
Atom  43C    basis set group =>   1
Atom  44C    basis set group =>   1
Atom  45H    basis set group =>   2
Atom  46H    basis set group =>   2
Atom  47H    basis set group =>   2
Atom  48H    basis set group =>   2
Atom  49C    basis set group =>   1
Atom  50C    basis set group =>   1
Atom  51C    basis set group =>   1
Atom  52H    basis set group =>   2
Atom  53H    basis set group =>   2
Atom  54C    basis set group =>   1
Atom  55C    basis set group =>   1
Atom  56C    basis set group =>   1
Atom  57H    basis set group =>   2
Atom  58H    basis set group =>   2
Atom  59C    basis set group =>   1
Atom  60C    basis set group =>   1
Atom  61H    basis set group =>   2
Atom  62H    basis set group =>   2
Atom  63H    basis set group =>   2
Atom  64H    basis set group =>   2
Atom  65H    basis set group =>   2
Atom  66H    basis set group =>   2
Atom  67H    basis set group =>   2
Atom  68H    basis set group =>   2
Atom  69H    basis set group =>   2
Atom  70H    basis set group =>   2
Atom  71H    basis set group =>   2
Atom  72H    basis set group =>   2

-------------------------------------
AUXILIARY/J BASIS SET IN INPUT FORMAT
-------------------------------------

 # Auxiliary/J basis set for element : H 
 NewAuxJGTO H 
 S 3 
   1      15.6752927000      0.1007184237
   2       3.6063578000      0.3404257499
   3       1.2080016000      0.6491996172
 S 1 
   1       0.4726794000      1.0000000000
 S 1 
   1       0.2018100000      1.0000000000
 P 2 
   1       2.0281365000      0.5596620919
   2       0.5358730000      0.5596620919
 D 1 
   1       2.2165124000      1.0000000000
  end;

 # Auxiliary/J basis set for element : C 
 NewAuxJGTO C 
 S 7 
   1    1861.0916331000      0.0134602335
   2     642.9939764000      0.0299160374
   3     235.1105725000      0.1008649584
   4      90.7028894000      0.2370970548
   5      36.7794552000      0.3924037254
   6      15.6046273000      0.3195862154
   7       6.8907294000      0.0530104441
 S 1 
   1       3.1478850000     -1.0000000000
 S 1 
   1       1.4777287000      1.0000000000
 S 1 
   1       0.7076466000      1.0000000000
 S 1 
   1       0.3430122000      1.0000000000
 S 1 
   1       0.1669453000      1.0000000000
 P 2 
   1      13.5472892000     -0.6769313712
   2       5.4669419000     -0.3779500978
 P 1 
   1       2.1751721000      1.0000000000
 P 1 
   1       0.8582194000      1.0000000000
 P 1 
   1       0.3376720000      1.0000000000
 D 2 
   1       5.9287253000     -0.3533329857
   2       1.9809209000     -0.7456525731
 D 1 
   1       0.8055417000     -1.0000000000
 D 1 
   1       0.3531244000     -1.0000000000
 F 2 
   1       1.6755626000      0.6311076882
   2       0.5997536000      0.4968166032
 G 1 
   1       1.0024600000     -1.0000000000
  end;

 # Auxiliary/J basis set for element : O 
 NewAuxJGTO O 
 S 7 
   1    2876.8216605000      0.0168151159
   2    1004.7443032000      0.0340137548
   3     369.7579954000      0.1194951309
   4     142.9442404000      0.2664627624
   5      57.8366425000      0.4202764046
   6      24.3864983000      0.2765077335
   7      10.6622662000      0.0057008815
 S 1 
   1       4.8070437000     -1.0000000000
 S 1 
   1       2.2210770000      1.0000000000
 S 1 
   1       1.0447795000      1.0000000000
 S 1 
   1       0.4968425000      1.0000000000
 S 1 
   1       0.2371384000      1.0000000000
 P 2 
   1      64.2613382000     -0.2731534179
   2      16.3006076000     -0.8168011598
 P 1 
   1       4.3550542000      1.0000000000
 P 1 
   1       1.2019554000      1.0000000000
 P 1 
   1       0.3354196000      1.0000000000
 D 2 
   1       9.2146611000     -0.4661230638
   2       2.8435251000     -0.6600908911
 D 1 
   1       0.9955759000     -1.0000000000
 D 1 
   1       0.3649441000     -1.0000000000
 F 2 
   1       2.6420115000      0.5931563945
   2       0.7345613000      0.5931563945
 G 1 
   1       1.3931000000     -1.0000000000
  end;



           ************************************************************
           *        Program running with 4 parallel MPI-processes     *
           *              working on a common directory               *
           ************************************************************
------------------------------------------------------------------------------
                             ORCA STARTUP CALCULATIONS
                           -- RI-GTO INTEGRALS CHOSEN --
------------------------------------------------------------------------------
------------------------------------------------------------------------------
                   ___                                                        
                  /   \      - P O W E R E D   B Y -                         
                 /     \                                                     
                 |  |  |   _    _      __       _____    __    __             
                 |  |  |  | |  | |    /  \     |  _  \  |  |  /  |          
                  \  \/   | |  | |   /    \    | | | |  |  | /  /          
                 / \  \   | |__| |  /  /\  \   | |_| |  |  |/  /          
                |  |  |   |  __  | /  /__\  \  |    /   |      \           
                |  |  |   | |  | | |   __   |  |    \   |  |\   \          
                \     /   | |  | | |  |  |  |  | |\  \  |  | \   \       
                 \___/    |_|  |_| |__|  |__|  |_| \__\ |__|  \__/        
                                                                              
                      - O R C A' S   B I G   F R I E N D -                    
                                      &                                       
                       - I N T E G R A L  F E E D E R -                       
                                                                              
 v1 FN, 2020, v2 2021, v3 2022-2024                                           
------------------------------------------------------------------------------


----------------------
SHARK INTEGRAL PACKAGE
----------------------

Number of atoms                             ...     73
Number of basis functions                   ...    626
Number of shells                            ...    306
Maximum angular momentum                    ...      2
Integral batch strategy                     ... SHARK/LIBINT Hybrid
RI-J (if used) integral strategy            ... SPLIT-RIJ (Revised 2003 algorithm where possible)
Printlevel                                  ...      1
Contraction scheme used                     ... SEGMENTED contraction
Prescreening option                         ... SCHWARTZ
   Thresh                                   ... 3.000e-11
   Tcut                                     ... 1.000e-12
   Tpresel                                  ... 1.000e-12 
Coulomb Range Separation                    ... NOT USED
Exchange Range Separation                   ... Long Range
   Mu parameter                             ... 3.000e-01
   Scaling (regular/separated)              ... 1.670e-01 8.330e-01
Multipole approximations                    ... NOT USED
Finite Nucleus Model                        ... NOT USED
CABS basis                                  ... NOT available
Auxiliary Coulomb fitting basis             ... AVAILABLE
   # of basis functions in Aux-J            ...   1905
   # of shells in Aux-J                     ...    655
   Maximum angular momentum in Aux-J        ...      4
Auxiliary J/K fitting basis                 ... NOT available
Auxiliary Correlation fitting basis         ... NOT available
Auxiliary 'external' fitting basis          ... NOT available

Checking pre-screening integrals            ... done (  0.0 sec) Dimension = 306
Check shell pair data                       ... done (  0.0 sec)
Shell pair information
Shell pair cut-off parameter TPreSel        ...   1.0e-12
Total number of shell pairs                 ...     46971
Shell pairs after pre-screening             ...     27631
Total number of primitive shell pairs       ...    162105
Primitive shell pairs kept                  ...     61107
          la=0 lb=0:   9675 shell pairs
          la=1 lb=0:  10581 shell pairs
          la=1 lb=1:   2936 shell pairs
          la=2 lb=0:   2769 shell pairs
          la=2 lb=1:   1473 shell pairs
          la=2 lb=2:    197 shell pairs

Calculating one electron integrals          ... done (  0.1 sec)
Calculating RI/J V-Matrix + Cholesky decomp.... done (  0.2 sec)
Calculating Nuclear repulsion               ... done (  0.0 sec) ENN=   2795.014838453426 Eh

Diagonalization of the overlap matrix:
Smallest eigenvalue                        ... 4.527e-04
Time for diagonalization                   ...    0.043 sec
Threshold for overlap eigenvalues          ... 1.000e-07
Number of eigenvalues below threshold      ... 0
Time for construction of square roots      ...    0.024 sec
Total time needed                          ...    0.070 sec

-------------------
DFT GRID GENERATION
-------------------

General Integration Accuracy     IntAcc      ... 4.388
Radial Grid Type                 RadialGrid  ... OptM3 with GC (2021)
Angular Grid (max. ang.)         AngularGrid ... 4 (Lebedev-302)
Angular grid pruning method      GridPruning ... 4 (adaptive)
Weight generation scheme         WeightScheme... mBecke (2022)
Basis function cutoff            BFCut       ... 1.0000e-11
Integration weight cutoff        WCut        ... 1.0000e-14
Partially contracted basis set               ... off
Rotationally invariant grid construction     ... off
Angular grids for H and He will be reduced by one unit

Total number of grid points                  ...   309742
Total number of batches                      ...     4876
Average number of points per batch           ...       63
Average number of grid points per atom       ...     4243

--------------------
COSX GRID GENERATION
--------------------

GRIDX 1
-------
General Integration Accuracy     IntAcc      ... 3.816
Radial Grid Type                 RadialGrid  ... OptM3 with GC (2021)
Angular Grid (max. ang.)         AngularGrid ... 1 (Lebedev-50)
Angular grid pruning method      GridPruning ... 4 (adaptive)
Weight generation scheme         WeightScheme... mBecke (2022)
Basis function cutoff            BFCut       ... 1.0000e-11
Integration weight cutoff        WCut        ... 1.0000e-14
Partially contracted basis set               ... on
Rotationally invariant grid construction     ... off
Angular grids for H and He will be reduced by one unit

Total number of grid points                  ...    39371
Total number of batches                      ...      349
Average number of points per batch           ...      112
Average number of grid points per atom       ...      539
UseSFitting                                  ... on

GRIDX 2
-------
General Integration Accuracy     IntAcc      ... 4.020
Radial Grid Type                 RadialGrid  ... OptM3 with GC (2021)
Angular Grid (max. ang.)         AngularGrid ... 2 (Lebedev-110)
Angular grid pruning method      GridPruning ... 4 (adaptive)
Weight generation scheme         WeightScheme... mBecke (2022)
Basis function cutoff            BFCut       ... 1.0000e-11
Integration weight cutoff        WCut        ... 1.0000e-14
Partially contracted basis set               ... on
Rotationally invariant grid construction     ... off
Angular grids for H and He will be reduced by one unit

Total number of grid points                  ...    81346
Total number of batches                      ...      673
Average number of points per batch           ...      120
Average number of grid points per atom       ...     1114
UseSFitting                                  ... on

GRIDX 3
-------
General Integration Accuracy     IntAcc      ... 4.338
Radial Grid Type                 RadialGrid  ... OptM3 with GC (2021)
Angular Grid (max. ang.)         AngularGrid ... 3 (Lebedev-194)
Angular grid pruning method      GridPruning ... 4 (adaptive)
Weight generation scheme         WeightScheme... mBecke (2022)
Basis function cutoff            BFCut       ... 1.0000e-11
Integration weight cutoff        WCut        ... 1.0000e-14
Partially contracted basis set               ... on
Rotationally invariant grid construction     ... off
Angular grids for H and He will be reduced by one unit

Total number of grid points                  ...   176124
Total number of batches                      ...     1417
Average number of points per batch           ...      124
Average number of grid points per atom       ...     2413
UseSFitting                                  ... on
Initializing property integral containers    ... done (  0.0 sec)

SHARK setup successfully completed in   4.3 seconds

Maximum memory used throughout the entire STARTUP-calculation: 95.9 MB


           ************************************************************
           *        Program running with 4 parallel MPI-processes     *
           *              working on a common directory               *
           ************************************************************
-------------------------------------------------------------------------------
                                 ORCA GUESS
                   Start orbitals & Density for SCF / CASSCF
-------------------------------------------------------------------------------

------------
SCF SETTINGS
------------
Hamiltonian:
 Density Functional     Method          .... DFT(GTOs)
 Exchange Functional    Exchange        .... WB97X-V
 Correlation Functional Correlation     .... WB97X-V
 Gradients option       PostSCFGGA      .... off
 Hybrid DFT is turned on
   Fraction HF Exchange ScalHFX         ....  0.167000
   Scaling of DF-GGA-X  ScalDFX         ....  0.000000
   Scaling of DF-GGA-C  ScalDFC         ....  1.000000
   Scaling of DF-LDA-C  ScalLDAC        ....  1.000000
   Perturbative correction              ....  0.000000
 Long-range corrected/Screened/Range-Separated Hybrid DFT is turned on
   Amount of maximum screened exact exchange              ....  0.833000
   Range separation parameter mu (erf(mu*r12)/r12)        ....  0.300000
 RI-approximation to the Coulomb term is turned on
   Number of AuxJ basis functions       .... 1905
   RIJ-COSX (HFX calculated with COS-X)).... on


General Settings:
 Integral files         IntName         .... inpS
 Hartree-Fock type      HFTyp           .... RHF
 Total Charge           Charge          ....    0
 Multiplicity           Mult            ....    1
 Number of Electrons    NEL             ....  220
 Basis Dimension        Dim             ....  626
 Nuclear Repulsion      ENuc            ....   2795.0148384534 Eh

Convergence Acceleration:
 AO-DIIS                CNVDIIS         .... on
   Start iteration      DIISMaxIt       ....    12
   Startup error        DIISStart       ....  0.200000
   # of expansion vecs  DIISMaxEq       ....     5
   Bias factor          DIISBfac        ....   1.050
   Max. coefficient     DIISMaxC        ....  10.000
 MO-DIIS                CNVKDIIS        .... off
 Trust-Rad. Augm. Hess. CNVTRAH         .... auto
   Auto Start mean grad. ratio tolernc. ....  1.125000
   Auto Start start iteration           ....    50
   Auto Start num. interpolation iter.  ....    10
   Max. Number of Micro iterations      ....    24
   Max. Number of Macro iterations      .... Maxiter - #DIIS iter
   Number of Davidson start vectors     ....     2
   Converg. threshold    (grad. norm)   ....   1.000e-04
   Grad. Scal. Fac. for Micro threshold ....   0.100
   Minimum threshold for Micro iter.    ....   1.000e-02
   NR start threshold (gradient norm)   ....   1.000e-04
   Initial trust radius                 ....   0.400
   Minimum AH scaling param. (alpha)    ....   1.000
   Maximum AH scaling param. (alpha)    .... 1000.000
   Quad. conv. algorithm                .... NR
   White noise on init. David. guess    .... on
   Maximum white noise                  ....   0.010
   Pseudo random numbers                .... off
   Inactive MOs                         .... canonical
   Orbital update algorithm             .... Taylor
   Preconditioner                       .... Diag
   Full preconditioner red. dimension   ....   250
 SOSCF                  CNVSOSCF        .... off
 Level Shifting         CNVShift        .... on
   Level shift para.    LevelShift      ....    0.2500
   Turn off err/grad.   ShiftErr        ....    0.0010
 Zerner damping         CNVZerner       .... off
 Static damping         CNVDamp         .... on
   Fraction old density DampFac         ....    0.7000
   Max. Damping (<1)    DampMax         ....    0.9800
   Min. Damping (>=0)   DampMin         ....    0.0000
   Turn off err/grad.   DampErr         ....    0.1000

SCF Procedure:
 Maximum # iterations   MaxIter         ....   125
 SCF integral mode      SCFMode         .... Direct
   Integral package                     .... SHARK and LIBINT hybrid scheme
 Reset frequency        DirectResetFreq ....    20
 Integral Threshold     Thresh          ....  3.000e-11 Eh
 Primitive CutOff       TCut            ....  1.000e-12 Eh

Convergence Tolerance:
 Convergence Check Mode ConvCheckMode   .... Total+1el-Energy
 Convergence forced     ConvForced      .... 0
 Energy Change          TolE            ....  1.000e-07 Eh
 1-El. energy change                    ....  1.000e-04 Eh
 DIIS Error             TolErr          ....  1.000e-07

------------------------------
INITIAL GUESS: MODEL POTENTIAL
------------------------------
Loading Hartree-Fock densities                     ... done
Calculating cut-offs                               ... done
Initializing the effective Hamiltonian             ... done
Setting up the integral package (SHARK)            ... done
Starting the Coulomb interaction                   ... done (   0.6 sec)
Making the grid                                    ... done (   0.5 sec)
Mapping shells                                     ... done
Starting the XC term evaluation                    ... done (   0.2 sec)
  promolecular density results
     # of electrons  =    219.974633718
     EX              =   -109.116250071
     EC              =     -8.884823012
     EX+EC           =   -118.001073083
Transforming the Hamiltonian                       ... done (   0.0 sec)
Diagonalizing the Hamiltonian                      ... done (   0.0 sec)
Back transforming the eigenvectors                 ... done (   0.0 sec)
Now organizing SCF variables                       ... done
                      ------------------
                      INITIAL GUESS DONE (   1.4 sec)
                      ------------------
             **** ENERGY FILE WAS UPDATED (inpS.en.tmp) ****
Finished Guess after   1.5 sec
Maximum memory used throughout the entire GUESS-calculation: 56.6 MB


           ************************************************************
           *        Program running with 4 parallel MPI-processes     *
           *              working on a common directory               *
           ************************************************************

-------------------------------------------------------------------------------------------
                                      ORCA LEAN-SCF
                              memory conserving SCF solver
-------------------------------------------------------------------------------------------

--------------------
CPCM SOLVATION MODEL
--------------------
CPCM parameters:
  Epsilon                                         ...       4.8030
  Refrac                                          ...       1.4459
  Rsolv                                           ...       1.3000
  Surface type                                    ... GAUSSIAN VDW
  Discretization scheme                           ... Constant charge density
    Threshold for H atoms                         ...       5.0000 (charges/Ang^2)
    Threshold for non-H atoms                     ...       5.0000 (charges/Ang^2)
  Epsilon function type                           ...         CPCM
Solvent:                                          ... CHLOROFORM
Radii:
  Scheme                                          ... Element-dependent radii
  Radius for C  used is    3.8550 Bohr (=   2.0400 Ang.)
  Radius for H  used is    2.4944 Bohr (=   1.3200 Ang.)
  Radius for O  used is    3.4469 Bohr (=   1.8240 Ang.)
Calculating surface                               ...        done! (  0.0s)
Cavity surface points                             ...         5334
Cavity Volume                                     ...    3603.4929
Cavity Surface-area                               ...    1778.3431
Calculating surface distance matrix               ...        done! (  0.2s)
Performing Cholesky decomposition & store         ...        done! (  0.8s)
Overall time for CPCM initialization              ...                 1.1s

----------------------------------------D-I-I-S--------------------------------------------
Iteration    Energy (Eh)           Delta-E    RMSDP     MaxDP     DIISErr   Damp  Time(sec)
-------------------------------------------------------------------------------------------
               ***  Starting incremental Fock matrix formation  ***
    1    -1168.2246171717060861     0.00e+00  7.35e-04  5.85e-02  5.65e-02  0.700  24.3

  HOMO= 109 E= -7.447 eV LUMO=  8.207 eV gap=  15.653 eV
    2    -1168.2676332016180822    -4.30e-02  6.18e-04  4.58e-02  3.93e-02  0.700  11.0

  HOMO= 109 E= -7.596 eV LUMO=  8.153 eV gap=  15.749 eV
                               ***Turning on AO-DIIS***
    3    -1168.2950247370781653    -2.74e-02  4.88e-04  3.67e-02  2.71e-02  0.700  11.0

  HOMO= 109 E= -7.883 eV LUMO=  8.015 eV gap=  15.898 eV
    4    -1168.3133703396647434    -1.83e-02  1.27e-03  9.25e-02  1.91e-02  0.000  10.9

  HOMO= 109 E= -7.934 eV LUMO=  8.007 eV gap=  15.941 eV
    5    -1168.3577685306545391    -4.44e-02  1.31e-04  5.19e-03  3.12e-03  0.000  11.8

  HOMO= 109 E= -7.946 eV LUMO=  8.043 eV gap=  15.989 eV
    6    -1168.3581354471834857    -3.67e-04  5.12e-05  1.79e-03  1.81e-03  0.000  10.0

  HOMO= 109 E= -7.945 eV LUMO=  8.065 eV gap=  16.010 eV
    7    -1168.3582000280780449    -6.46e-05  2.60e-05  1.00e-03  1.13e-03  0.000   9.3

  HOMO= 109 E= -7.958 eV LUMO=  8.065 eV gap=  16.023 eV
    8    -1168.3582199418233358    -1.99e-05  1.23e-05  5.82e-04  6.03e-04  0.000   9.0

  HOMO= 109 E= -7.959 eV LUMO=  8.071 eV gap=  16.030 eV
               *** Restarting incremental Fock matrix formation ***
                             ****Resetting DIIS****
    9    -1168.3582183150438141     1.63e-06  6.61e-06  3.60e-04  3.17e-04  0.000  23.8

  HOMO= 109 E= -7.960 eV LUMO=  1.268 eV gap=   9.228 eV
   10    -1168.3582198070093909    -1.49e-06  3.45e-06  1.99e-04  1.37e-04  0.000  13.2

  HOMO= 109 E= -7.962 eV LUMO=  1.270 eV gap=   9.232 eV
   11    -1168.3582200862838363    -2.79e-07  1.23e-06  6.61e-05  8.05e-05  0.000  11.0

  HOMO= 109 E= -7.963 eV LUMO=  1.270 eV gap=   9.233 eV
   12    -1168.3582201436465766    -5.74e-08  3.23e-07  1.76e-05  1.48e-05  0.000   9.1
                 **** Energy Check signals convergence ****

  HOMO= 109 E= -7.963 eV LUMO=  1.270 eV gap=   9.233 eV

               *****************************************************
               *                     SUCCESS                       *
               *           SCF CONVERGED AFTER  12 CYCLES          *
               *****************************************************

Recomputing exchange energy using gridx3       ... done (   41.303 sec)
Old exchange energy                            :    -56.782971044 Eh
New exchange energy                            :    -56.782974954 Eh
Exchange energy change after final integration :     -0.000003910 Eh
Total energy after final integration           :  -1168.358224054 Eh
             **** ENERGY FILE WAS UPDATED (inpS.en.tmp) ****

----------------
TOTAL SCF ENERGY
----------------

Total Energy       :      -1168.35822405390559 Eh          -31792.64358 eV

Components:
Nuclear Repulsion  :       2795.01483845342636 Eh           76056.22038 eV
Electronic Energy  :      -3963.36376091038437 Eh         -107848.61085 eV
One Electron Energy:      -7135.07712454812190 Eh         -194155.31922 eV
Two Electron Energy:       3171.71336363773753 Eh           86306.70837 eV
CPCM Dielectric    :         -0.00929768668862 Eh              -0.25300 eV

Virial components:
Potential Energy   :      -2321.65271070219433 Eh          -63175.38203 eV
Kinetic Energy     :       1153.29448664828874 Eh           31382.73845 eV
Virial Ratio       :          2.01306148393148

DFT components:
N(Alpha)           :      109.999806251182 electrons
N(Beta)            :      109.999806251182 electrons
N(Total)           :      219.999612502363 electrons
E(X)               :     -111.769002736300 Eh       
E(C)               :       -8.953116506068 Eh       
E(XC)              :     -120.722119242367 Eh       

CPCM Solvation Model Properties:
Surface-charge          :         -0.04174617795018
Corrected charge        :          0.00000000000000
Outlying charge corr.   :          0.00006124262387 Eh               0.00167 eV
Free-energy (cav+disp)  :  This term is not implemented in the current solvation scheme

---------------
SCF CONVERGENCE
---------------

  Last Energy change         ...    5.7363e-08  Tolerance :   1.0000e-07
  Last MAX-Density change    ...    1.7578e-05  Tolerance :   1.0000e-05
  Last RMS-Density change    ...    3.2297e-07  Tolerance :   1.0000e-06
  Last DIIS Error            ...    1.4819e-05  Tolerance :   1.0000e-07


----------------
ORBITAL ENERGIES
----------------

  NO   OCC          E(Eh)            E(eV) 
   0   2.0000     -19.212354      -522.7947 
   1   2.0000     -10.330300      -281.1018 
   2   2.0000     -10.294189      -280.1191 
   3   2.0000     -10.292002      -280.0596 
   4   2.0000     -10.287463      -279.9361 
   5   2.0000     -10.286631      -279.9135 
   6   2.0000     -10.285436      -279.8809 
   7   2.0000     -10.284158      -279.8462 
   8   2.0000     -10.283144      -279.8186 
   9   2.0000     -10.283126      -279.8181 
  10   2.0000     -10.282926      -279.8127 
  11   2.0000     -10.279840      -279.7287 
  12   2.0000     -10.279292      -279.7138 
  13   2.0000     -10.278089      -279.6810 
  14   2.0000     -10.277354      -279.6610 
  15   2.0000     -10.277313      -279.6599 
  16   2.0000     -10.276949      -279.6500 
  17   2.0000     -10.276674      -279.6425 
  18   2.0000     -10.273670      -279.5608 
  19   2.0000     -10.272925      -279.5405 
  20   2.0000     -10.272799      -279.5371 
  21   2.0000     -10.271934      -279.5135 
  22   2.0000     -10.270727      -279.4807 
  23   2.0000     -10.270520      -279.4750 
  24   2.0000     -10.270368      -279.4709 
  25   2.0000     -10.269778      -279.4549 
  26   2.0000     -10.268471      -279.4193 
  27   2.0000     -10.267003      -279.3793 
  28   2.0000     -10.266789      -279.3735 
  29   2.0000      -1.130898       -30.7733 
  30   2.0000      -0.998566       -27.1724 
  31   2.0000      -0.977270       -26.5929 
  32   2.0000      -0.957664       -26.0594 
  33   2.0000      -0.942450       -25.6454 
  34   2.0000      -0.917169       -24.9574 
  35   2.0000      -0.910636       -24.7797 
  36   2.0000      -0.889744       -24.2112 
  37   2.0000      -0.888000       -24.1637 
  38   2.0000      -0.872297       -23.7364 
  39   2.0000      -0.853551       -23.2263 
  40   2.0000      -0.834619       -22.7111 
  41   2.0000      -0.830097       -22.5881 
  42   2.0000      -0.809354       -22.0237 
  43   2.0000      -0.800151       -21.7732 
  44   2.0000      -0.797454       -21.6998 
  45   2.0000      -0.791561       -21.5395 
  46   2.0000      -0.760610       -20.6973 
  47   2.0000      -0.756592       -20.5879 
  48   2.0000      -0.725083       -19.7305 
  49   2.0000      -0.713082       -19.4040 
  50   2.0000      -0.705405       -19.1951 
  51   2.0000      -0.700864       -19.0715 
  52   2.0000      -0.689081       -18.7509 
  53   2.0000      -0.678111       -18.4523 
  54   2.0000      -0.652879       -17.7657 
  55   2.0000      -0.631012       -17.1707 
  56   2.0000      -0.620481       -16.8841 
  57   2.0000      -0.619406       -16.8549 
  58   2.0000      -0.607430       -16.5290 
  59   2.0000      -0.603385       -16.4189 
  60   2.0000      -0.590361       -16.0645 
  61   2.0000      -0.584287       -15.8993 
  62   2.0000      -0.581809       -15.8318 
  63   2.0000      -0.569993       -15.5103 
  64   2.0000      -0.565188       -15.3796 
  65   2.0000      -0.559886       -15.2353 
  66   2.0000      -0.555609       -15.1189 
  67   2.0000      -0.550058       -14.9678 
  68   2.0000      -0.547970       -14.9110 
  69   2.0000      -0.539332       -14.6760 
  70   2.0000      -0.537184       -14.6175 
  71   2.0000      -0.530866       -14.4456 
  72   2.0000      -0.526724       -14.3329 
  73   2.0000      -0.519834       -14.1454 
  74   2.0000      -0.516201       -14.0466 
  75   2.0000      -0.509296       -13.8587 
  76   2.0000      -0.503880       -13.7113 
  77   2.0000      -0.501120       -13.6362 
  78   2.0000      -0.500101       -13.6084 
  79   2.0000      -0.494989       -13.4693 
  80   2.0000      -0.491610       -13.3774 
  81   2.0000      -0.487196       -13.2573 
  82   2.0000      -0.485716       -13.2170 
  83   2.0000      -0.477893       -13.0041 
  84   2.0000      -0.474852       -12.9214 
  85   2.0000      -0.467626       -12.7248 
  86   2.0000      -0.463536       -12.6135 
  87   2.0000      -0.462341       -12.5809 
  88   2.0000      -0.458725       -12.4826 
  89   2.0000      -0.452012       -12.2999 
  90   2.0000      -0.451065       -12.2741 
  91   2.0000      -0.445002       -12.1091 
  92   2.0000      -0.441597       -12.0165 
  93   2.0000      -0.434445       -11.8219 
  94   2.0000      -0.428424       -11.6580 
  95   2.0000      -0.423794       -11.5320 
  96   2.0000      -0.422347       -11.4927 
  97   2.0000      -0.419023       -11.4022 
  98   2.0000      -0.416918       -11.3449 
  99   2.0000      -0.412442       -11.2231 
 100   2.0000      -0.409968       -11.1558 
 101   2.0000      -0.407214       -11.0809 
 102   2.0000      -0.405346       -11.0300 
 103   2.0000      -0.397596       -10.8191 
 104   2.0000      -0.391992       -10.6667 
 105   2.0000      -0.380993       -10.3674 
 106   2.0000      -0.372626       -10.1397 
 107   2.0000      -0.355360        -9.6698 
 108   2.0000      -0.336603        -9.1594 
 109   2.0000      -0.292617        -7.9625 
 110   0.0000       0.046687         1.2704 
 111   0.0000       0.099493         2.7073 
 112   0.0000       0.106794         2.9060 
 113   0.0000       0.133872         3.6428 
 114   0.0000       0.140744         3.8298 
 115   0.0000       0.144459         3.9309 
 116   0.0000       0.149392         4.0652 
 117   0.0000       0.155984         4.2445 
 118   0.0000       0.162667         4.4264 
 119   0.0000       0.165146         4.4939 
 120   0.0000       0.169615         4.6155 
*Only the first 10 virtual orbitals were printed.

                    ********************************
                    * MULLIKEN POPULATION ANALYSIS *
                    ********************************

-----------------------
MULLIKEN ATOMIC CHARGES
-----------------------
   0 C :   -0.174826
   1 C :    0.142336
   2 C :    0.068201
   3 H :    0.017270
   4 H :    0.030603
   5 C :   -0.171012
   6 C :    0.095645
   7 C :    0.024117
   8 H :    0.013632
   9 H :    0.027422
  10 H :    0.019887
  11 H :    0.022614
  12 O :   -0.359252
  13 H :    0.018201
  14 C :   -0.007552
  15 C :   -0.045830
  16 H :    0.035223
  17 H :    0.029394
  18 C :   -0.062938
  19 H :   -0.002602
  20 C :   -0.113953
  21 H :    0.003386
  22 C :    0.115057
  23 C :   -0.002689
  24 H :    0.014215
  25 H :    0.017253
  26 C :    0.107006
  27 H :    0.013255
  28 H :    0.015548
  29 C :   -0.419542
  30 H :    0.008868
  31 H :   -0.002085
  32 C :   -0.039455
  33 H :    0.009941
  34 C :    0.112121
  35 H :    0.178964
  36 C :    0.071137
  37 H :    0.007184
  38 H :    0.015139
  39 C :   -0.041581
  40 H :    0.009636
  41 H :    0.000298
  42 H :    0.000484
  43 C :   -0.001069
  44 C :    0.094073
  45 H :    0.020455
  46 H :    0.024529
  47 H :    0.016761
  48 H :    0.005725
  49 C :    0.054107
  50 C :   -0.094513
  51 C :   -0.072470
  52 H :    0.016665
  53 H :    0.014393
  54 C :   -0.035425
  55 C :   -0.000926
  56 C :   -0.159992
  57 H :    0.017868
  58 H :    0.017195
  59 C :    0.035435
  60 C :    0.016695
  61 H :    0.025384
  62 H :    0.020196
  63 H :    0.023399
  64 H :    0.017154
  65 H :    0.015811
  66 H :    0.017047
  67 H :    0.019850
  68 H :    0.018217
  69 H :    0.016690
  70 H :    0.030485
  71 H :    0.012817
  72 H :    0.012725
Sum of atomic charges:   -0.0000000

--------------------------------
MULLIKEN REDUCED ORBITAL CHARGES
--------------------------------
  0 C s       :     3.102701  s :     3.102701
      pz      :     1.014729  p :     3.029085
      px      :     1.004666
      py      :     1.009690
      dz2     :     0.005694  d :     0.043040
      dxz     :     0.006449
      dyz     :     0.005874
      dx2y2   :     0.013603
      dxy     :     0.011419

  1 C s       :     2.939588  s :     2.939588
      pz      :     0.990500  p :     2.883686
      px      :     0.928740
      py      :     0.964445
      dz2     :     0.008199  d :     0.034390
      dxz     :     0.006129
      dyz     :     0.003922
      dx2y2   :     0.009738
      dxy     :     0.006401

  2 C s       :     3.085288  s :     3.085288
      pz      :     0.733280  p :     2.775850
      px      :     1.048608
      py      :     0.993963
      dz2     :     0.023298  d :     0.070660
      dxz     :     0.011187
      dyz     :     0.017630
      dx2y2   :     0.011046
      dxy     :     0.007499

  3 H s       :     0.960077  s :     0.960077
      pz      :     0.005334  p :     0.022653
      px      :     0.003732
      py      :     0.013587

  4 H s       :     0.946088  s :     0.946088
      pz      :     0.014530  p :     0.023309
      px      :     0.004440
      py      :     0.004339

  5 C s       :     3.108958  s :     3.108958
      pz      :     0.973110  p :     3.017247
      px      :     0.987940
      py      :     1.056197
      dz2     :     0.009366  d :     0.044807
      dxz     :     0.005505
      dyz     :     0.008691
      dx2y2   :     0.011050
      dxy     :     0.010195

  6 C s       :     2.955087  s :     2.955087
      pz      :     1.003963  p :     2.913819
      px      :     0.944916
      py      :     0.964940
      dz2     :     0.008889  d :     0.035448
      dxz     :     0.005761
      dyz     :     0.004515
      dx2y2   :     0.008657
      dxy     :     0.007626

  7 C s       :     3.002322  s :     3.002322
      pz      :     0.984770  p :     2.938782
      px      :     0.981486
      py      :     0.972527
      dz2     :     0.007901  d :     0.034780
      dxz     :     0.005804
      dyz     :     0.004518
      dx2y2   :     0.008332
      dxy     :     0.008224

  8 H s       :     0.963534  s :     0.963534
      pz      :     0.006062  p :     0.022833
      px      :     0.003795
      py      :     0.012977

  9 H s       :     0.949184  s :     0.949184
      pz      :     0.014513  p :     0.023394
      px      :     0.004436
      py      :     0.004446

 10 H s       :     0.957286  s :     0.957286
      pz      :     0.014270  p :     0.022827
      px      :     0.004509
      py      :     0.004047

 11 H s       :     0.954757  s :     0.954757
      pz      :     0.007431  p :     0.022629
      px      :     0.007499
      py      :     0.007698

 12 O s       :     3.713566  s :     3.713566
      pz      :     1.387899  p :     4.633543
      px      :     1.353551
      py      :     1.892093
      dz2     :     0.005376  d :     0.012143
      dxz     :     0.001453
      dyz     :     0.001550
      dx2y2   :     0.003191
      dxy     :     0.000573

 13 H s       :     0.961452  s :     0.961452
      pz      :     0.001908  p :     0.020347
      px      :     0.014050
      py      :     0.004389

 14 C s       :     3.194466  s :     3.194466
      pz      :     0.992808  p :     2.776720
      px      :     0.871874
      py      :     0.912038
      dz2     :     0.004545  d :     0.036366
      dxz     :     0.007514
      dyz     :     0.003337
      dx2y2   :     0.010692
      dxy     :     0.010277

 15 C s       :     3.123778  s :     3.123778
      pz      :     1.010365  p :     2.895785
      px      :     0.981041
      py      :     0.904378
      dz2     :     0.005264  d :     0.026267
      dxz     :     0.004099
      dyz     :     0.004386
      dx2y2   :     0.006449
      dxy     :     0.006069

 16 H s       :     0.940236  s :     0.940236
      pz      :     0.006346  p :     0.024541
      px      :     0.008580
      py      :     0.009614

 17 H s       :     0.945990  s :     0.945990
      pz      :     0.005077  p :     0.024616
      px      :     0.004397
      py      :     0.015142

 18 C s       :     3.200520  s :     3.200520
      pz      :     1.030509  p :     2.827231
      px      :     0.882872
      py      :     0.913850
      dz2     :     0.003973  d :     0.035187
      dxz     :     0.006657
      dyz     :     0.003231
      dx2y2   :     0.011759
      dxy     :     0.009568

 19 H s       :     0.978291  s :     0.978291
      pz      :     0.004832  p :     0.024311
      px      :     0.004886
      py      :     0.014593

 20 C s       :     3.099654  s :     3.099654
      pz      :     0.959608  p :     2.970179
      px      :     0.984630
      py      :     1.025941
      dz2     :     0.005095  d :     0.044121
      dxz     :     0.006903
      dyz     :     0.006862
      dx2y2   :     0.013778
      dxy     :     0.011482

 21 H s       :     0.972054  s :     0.972054
      pz      :     0.004698  p :     0.024560
      px      :     0.004407
      py      :     0.015454

 22 C s       :     2.925172  s :     2.925172
      pz      :     1.003033  p :     2.924268
      px      :     0.977345
      py      :     0.943890
      dz2     :     0.010023  d :     0.035502
      dxz     :     0.003823
      dyz     :     0.005196
      dx2y2   :     0.009659
      dxy     :     0.006802

 23 C s       :     3.001332  s :     3.001332
      pz      :     1.011463  p :     2.964917
      px      :     0.963278
      py      :     0.990177
      dz2     :     0.010218  d :     0.036439
      dxz     :     0.006706
      dyz     :     0.003111
      dx2y2   :     0.010025
      dxy     :     0.006379

 24 H s       :     0.962587  s :     0.962587
      pz      :     0.005132  p :     0.023198
      px      :     0.013238
      py      :     0.004828

 25 H s       :     0.959470  s :     0.959470
      pz      :     0.014304  p :     0.023276
      px      :     0.004581
      py      :     0.004391

 26 C s       :     2.969412  s :     2.969412
      pz      :     0.971046  p :     2.888270
      px      :     0.974662
      py      :     0.942562
      dz2     :     0.008030  d :     0.035312
      dxz     :     0.005880
      dyz     :     0.005086
      dx2y2   :     0.008270
      dxy     :     0.008046

 27 H s       :     0.963893  s :     0.963893
      pz      :     0.014259  p :     0.022852
      px      :     0.004040
      py      :     0.004553

 28 H s       :     0.961810  s :     0.961810
[...]
 Total          138.100          176.758          190.346  iso=     168.402

 Orientation: 
  X           0.2139610   -0.5745889    0.7899799
  Y          -0.0182342   -0.8109162   -0.5848782
  Z           0.9766720    0.1107365   -0.1839816

 --------------
 Nucleus  39C :
 --------------

Diamagnetic contribution to the shielding tensor (ppm) : 
           266.769          3.804        -6.024
             0.930        270.063         6.776
            -4.970          4.445       256.256

Paramagnetic contribution to the shielding tensor (ppm): 
          -102.819         -4.947        10.618
             8.761       -122.287         2.438
            16.800         -0.349      -126.746

Total shielding tensor (ppm): 
           163.949         -1.143         4.594
             9.691        147.775         9.214
            11.830          4.096       129.510


 Diagonalized sT*s matrix:
 
 sDSO           256.708          270.577          265.802  iso=     264.363
 sPSO          -130.533         -122.993          -98.326  iso=    -117.284
        ---------------  ---------------  ---------------
 Total          126.175          147.584          167.476  iso=     147.078

 Orientation: 
  X          -0.1708324   -0.3170020   -0.9329127
  Y          -0.2647148    0.9267861   -0.2664464
  Z           0.9490745    0.2014381   -0.2422402

 --------------
 Nucleus  43C :
 --------------

Diamagnetic contribution to the shielding tensor (ppm) : 
           259.724         -0.383        -3.876
            -6.606        256.628         8.120
            -0.041          7.212       240.077

Paramagnetic contribution to the shielding tensor (ppm): 
           -89.898         -7.742        -2.721
             2.969        -95.043        -4.591
            -1.903         -8.573       -91.901

Total shielding tensor (ppm): 
           169.826         -8.124        -6.596
            -3.636        161.585         3.529
            -1.944         -1.361       148.176


 Diagonalized sT*s matrix:
 
 sDSO           239.965          253.401          263.063  iso=     252.143
 sPSO           -92.597          -94.789          -89.456  iso=     -92.281
        ---------------  ---------------  ---------------
 Total          147.367          158.612          173.607  iso=     159.862

 Orientation: 
  X           0.1934392   -0.4436469    0.8750764
  Y          -0.0076657   -0.8925790   -0.4508258
  Z           0.9810823    0.0804993   -0.1760607

 --------------
 Nucleus  44C :
 --------------

Diamagnetic contribution to the shielding tensor (ppm) : 
           250.440          0.248         0.354
            -0.906        256.993        -0.468
             0.153          4.102       270.507

Paramagnetic contribution to the shielding tensor (ppm): 
           -71.269         -4.031        -1.322
            -2.177        -77.890        -1.575
            -0.361         -6.361       -76.801

Total shielding tensor (ppm): 
           179.171         -3.782        -0.969
            -3.083        179.103        -2.044
            -0.208         -2.259       193.706


 Diagonalized sT*s matrix:
 
 sDSO           254.030          254.187          269.723  iso=     259.313
 sPSO           -78.535          -71.719          -75.707  iso=     -75.320
        ---------------  ---------------  ---------------
 Total          175.495          182.468          194.017  iso=     183.993

 Orientation: 
  X           0.6884794    0.7252336   -0.0056880
  Y           0.7173911   -0.6821444   -0.1415238
  Z           0.1065178   -0.0933556    0.9899185

 --------------
 Nucleus  49C :
 --------------

Diamagnetic contribution to the shielding tensor (ppm) : 
           243.082         -6.606        -2.889
           -20.095        258.669         2.547
            -3.875          5.590       241.614

Paramagnetic contribution to the shielding tensor (ppm): 
           -73.903          1.616         1.114
            19.233        -72.388         6.541
             5.245          0.467       -71.197

Total shielding tensor (ppm): 
           169.179         -4.990        -1.775
            -0.862        186.281         9.088
             1.370          6.057       170.416


 Diagonalized sT*s matrix:
 
 sDSO           239.801          241.230          262.333  iso=     247.788
 sPSO           -72.851          -71.999          -72.639  iso=     -72.496
        ---------------  ---------------  ---------------
 Total          166.950          169.231          189.694  iso=     175.292

 Orientation: 
  X           0.4309793    0.8931997   -0.1282622
  Y           0.3860286   -0.0540229    0.9209036
  Z          -0.8156217    0.4464033    0.3680833

 --------------
 Nucleus  50C :
 --------------

Diamagnetic contribution to the shielding tensor (ppm) : 
           268.676          8.524         1.640
            13.263        230.687         3.671
             0.528          7.436       272.315

Paramagnetic contribution to the shielding tensor (ppm): 
          -270.444        -71.777        35.838
           -77.889        -89.633         4.825
            26.166          0.179      -214.900

Total shielding tensor (ppm): 
            -1.768        -63.253        37.478
           -64.625        141.054         8.496
            26.695          7.615        57.416


 Diagonalized sT*s matrix:
 
 sDSO           270.117          273.555          228.006  iso=     257.226
 sPSO          -304.941         -207.670          -62.365  iso=    -191.659
        ---------------  ---------------  ---------------
 Total          -34.824           65.884          165.641  iso=      65.567

 Orientation: 
  X          -0.9200481    0.1430013    0.3647768
  Y          -0.3526210    0.1036231   -0.9300111
  Z           0.1707921    0.9842829    0.0449130

 --------------
 Nucleus  51C :
 --------------

Diamagnetic contribution to the shielding tensor (ppm) : 
           268.130         12.707        -0.214
             3.235        258.022         1.993
             5.315         -4.857       283.332

Paramagnetic contribution to the shielding tensor (ppm): 
          -267.923        -73.899        35.978
           -78.210       -127.909        -1.273
            24.609         11.770      -218.672

Total shielding tensor (ppm): 
             0.207        -61.192        35.764
           -74.975        130.113         0.720
            29.924          6.913        64.660


 Diagonalized sT*s matrix:
 
 sDSO           272.290          282.605          254.589  iso=     269.828
 sPSO          -310.230         -209.507          -94.768  iso=    -204.835
        ---------------  ---------------  ---------------
 Total          -37.940           73.098          159.821  iso=      64.993

 Orientation: 
  X           0.8767605    0.1687633    0.4503443
  Y           0.4145890    0.2093478   -0.8856012
  Z          -0.2437356    0.9631679    0.1135805

 --------------
 Nucleus  54C :
 --------------

Diamagnetic contribution to the shielding tensor (ppm) : 
           254.628          2.527        -7.668
             8.808        237.704         4.006
            -4.460          4.004       262.501

Paramagnetic contribution to the shielding tensor (ppm): 
           -85.689          7.121         6.386
            -3.545        -77.985       -11.392
             3.538        -12.770      -111.734

Total shielding tensor (ppm): 
           168.938          9.647        -1.282
             5.263        159.719        -7.386
            -0.922         -8.766       150.767


 Diagonalized sT*s matrix:
 
 sDSO           259.196          239.474          256.163  iso=     251.611
 sPSO          -113.573          -79.895          -81.939  iso=     -91.803
        ---------------  ---------------  ---------------
 Total          145.623          159.578          174.224  iso=     159.808

 Orientation: 
  X          -0.1382109   -0.5748359   -0.8065119
  Y           0.5423472    0.6374510   -0.5472802
  Z           0.8287082   -0.5130496    0.2236580

 --------------
 Nucleus  55C :
 --------------

Diamagnetic contribution to the shielding tensor (ppm) : 
           240.189         -4.485        -4.767
            12.754        253.255         5.202
             9.963          6.942       259.514

Paramagnetic contribution to the shielding tensor (ppm): 
           -61.615          4.041         1.892
            -7.392        -68.399         6.479
           -10.395          2.472       -75.655

Total shielding tensor (ppm): 
           178.574         -0.444        -2.874
             5.362        184.856        11.681
            -0.433          9.414       183.859


 Diagonalized sT*s matrix:
 
 sDSO           247.707          242.558          262.693  iso=     250.986
 sPSO           -75.275          -62.643          -67.752  iso=     -68.556
        ---------------  ---------------  ---------------
 Total          172.432          179.916          194.941  iso=     182.430

 Orientation: 
  X          -0.4225102    0.9050802    0.0481144
  Y           0.6384579    0.2595264    0.7245809
  Z          -0.6433169   -0.3368619    0.6875082

 --------------
 Nucleus  56C :
 --------------

Diamagnetic contribution to the shielding tensor (ppm) : 
           251.824          3.525        -0.203
            12.911        226.580        -5.594
             1.699         -4.734       242.294

Paramagnetic contribution to the shielding tensor (ppm): 
           -76.454         -5.171        -2.459
           -14.114        -57.624        -1.687
            -2.231          3.308       -70.687

Total shielding tensor (ppm): 
           175.370         -1.646        -2.661
            -1.203        168.956        -7.281
            -0.532         -1.426       171.608


 Diagonalized sT*s matrix:
 
 sDSO           231.103          238.810          250.786  iso=     240.233
 sPSO           -65.808          -64.138          -74.820  iso=     -68.255
        ---------------  ---------------  ---------------
 Total          165.295          174.673          175.966  iso=     171.978

 Orientation: 
  X          -0.2061879    0.3542490    0.9121372
  Y          -0.7860322   -0.6151464    0.0612240
  Z          -0.5827864    0.7043455   -0.4052868

 --------------
 Nucleus  59C :
 --------------

Diamagnetic contribution to the shielding tensor (ppm) : 
           251.668          4.611         8.404
             3.482        213.273         6.093
            13.454          4.115       225.410

Paramagnetic contribution to the shielding tensor (ppm): 
           -60.991         -8.247         5.014
             0.445        -46.914       -15.440
             2.010        -12.779       -56.525

Total shielding tensor (ppm): 
           190.677         -3.636        13.418
             3.928        166.359        -9.347
            15.464         -8.664       168.885


 Diagonalized sT*s matrix:
 
 sDSO           221.542          216.235          252.574  iso=     230.117
 sPSO           -66.099          -44.126          -54.206  iso=     -54.810
        ---------------  ---------------  ---------------
 Total          155.443          172.110          198.368  iso=     175.307

 Orientation: 
  X          -0.2942334    0.3840317   -0.8751836
  Y           0.6123411    0.7788285    0.1358841
  Z           0.7338018   -0.4959293   -0.4643158

 --------------
 Nucleus  60C :
 --------------

Diamagnetic contribution to the shielding tensor (ppm) : 
           243.491         -0.316         0.741
            26.215        251.163        -2.950
           -12.260         -9.919       245.528

Paramagnetic contribution to the shielding tensor (ppm): 
           -63.900         -1.721         2.755
           -33.620        -65.657        -6.182
            19.610          1.367       -66.887

Total shielding tensor (ppm): 
           179.591         -2.037         3.496
            -7.406        185.506        -9.131
             7.350         -8.552       178.642


 Diagonalized sT*s matrix:
 
 sDSO           241.194          256.528          242.461  iso=     246.728
 sPSO           -69.237          -79.523          -47.684  iso=     -65.481
        ---------------  ---------------  ---------------
 Total          171.957          177.005          194.777  iso=     181.246

 Orientation: 
  X          -0.3256313    0.8432026    0.4277541
  Y           0.4324791    0.5351423   -0.7256615
  Z           0.8407890    0.0513034    0.5389266



--------------------------------
CHEMICAL SHIELDING SUMMARY (ppm)
--------------------------------


  Nucleus  Element    Isotropic     Anisotropy
  -------  -------  ------------   ------------
      0       C           61.360        151.860 
      1       C          154.505         12.057 
      2       C          132.344         50.810 
      5       C           50.769        177.637 
      6       C          167.942         31.911 
      7       C          164.892         17.275 
     14       C           71.876        133.305 
     15       C           83.842        119.490 
     18       C           80.022        133.671 
     20       C           52.061        175.828 
     22       C          169.281          7.030 
     23       C          174.287         13.037 
     26       C          158.729         24.486 
     29       C          154.372         16.891 
     32       C          143.022         27.485 
     34       C          174.195         23.577 
     36       C          168.402         32.917 
     39       C          147.078         30.596 
     43       C          159.862         20.618 
     44       C          183.993         15.035 
     49       C          175.292         21.603 
     50       C           65.567        150.111 
     51       C           64.993        142.242 
     54       C          159.808         21.623 
     55       C          182.430         18.767 
     56       C          171.978          5.982 
     59       C          175.307         34.591 
     60       C          181.246         20.296 


NMR shielding tensor and spin rotation calculation done in   1.1 sec 

Maximum memory used throughout the entire PROP-calculation: 52.0 MB

--------------------------------
SUGGESTED CITATIONS FOR THIS RUN
--------------------------------

Below you find a list of papers that are relevant to this ORCA run
We neither can nor want to force you to cite these papers, but we appreciate if you do
You receive ORCA, which is the product of decades of hard work by many enthusiastic individuals, for free
The only thing we kindly ask in return is that you cite our papers,
We deeply appreciate it, if you show your appreciation for ORCA by not just citing the generic ORCA reference.

Please note that relegating all ORCA citations to the supporting information does *not* help us.
SI sections are not indexed - citations you put there will not count into any citation statistics
But we need these citations in order to attract the funding resources that allow us to do what we are doing

Therefore, if you are a happy ORCA user, please consider citing a few of the papers listed below in the main body of your paper

In addition to the list printed below, the program has created the file inpS.bibtex that contains the list in bibtex format
You can import this file easily into all common literature databanks and citation aid programs


List of essential papers. We consider these as the minimum necessary citations

  1. Neese,F.
     Software update: the ORCA program system, version 5.0
     WIRES Comput. Molec. Sci., 2022 12(1)e1606
     doi.org/10.1002/wcms.1606

List of papers to cite with high priority. The work reported in these papers was absolutely
necessary for this run to complete.
Our perspective: the developers of density functionals and basis sets usually get cited in chemistry papers
Good! But without the algorithms to do something with them, the functionals or basis sets would not do anything.
Hence, in our opinion, the algorithm design and method developments papers are equally worthy of getting cited

  1. Neese,F.
     An improvement of the resolution of the identity approximation for the formation of the Coulomb matrix
     J. Comp. Chem., 2003 24(14)1740-1747
     doi.org/10.1002/jcc.10318
  2. Neese,F.; Wennmohs,F.; Hansen,A.; Becker,U.
     Efficient, approximate and parallel Hartree-Fock and hybrid DFT calculations. A 'chain-of-spheres' algorithm for the Hartree-Fock exchange
     Chem. Phys., 2009 356(1-3)98-109
     doi.org/10.1016/j.chemphys.2008.10.036
  3. Stoychev,G.L.; Auer,A.A.; Izsak,R.; Neese,F.
     Self-Consistent Field Calculation of Nuclear Magnetic Resonance Chemical Shielding Constants Using Gauge-Including Atomic Orbitals and Approximate Two-Electron Integrals
     J. Chem. Theory Comput., 2018 14(2)619-637
     doi.org/10.1021/acs.jctc.7b01006
  4. Garcia-Rates,M.; Neese,F.
     Effect of the Solute Cavity on the Solvation Energy and its Derivatives within the Framework of the Gaussian Charge Scheme
     J. Comput. Chem., 2020 41 922-939
     doi.org/10.1002/jcc.26139
  5. Helmich-Paris,B.; de Souza,B.; Neese,F.; Izsák,R.
     An improved chain of spheres for exchange algorithm
     J. Chem. Phys., 2021 155 104109
     doi.org/doi: 10.1063/5.0058766.
  6. Neese,F.
     The SHARK Integral Generation and Digestion System
     J. Comp. Chem., 2022  1-16
     doi.org/10.1002/jcc.26942
  7. Caldeweyher,E.; Bannwarth,C.; Grimme,S.
     Extension of the D3 dispersion coefficient model
     J. Chem. Phys., 2017 147 034112-XXXX
     doi.org/10.1063/1.4993215
  8. Caldeweyher,E.; Ehlert,S.; Hansen,A.; Neugebauer,H.; Spicher,S.; Bannwarth,C.; Grimme,S.
     A generally applicable atomic-charge dependent London dispersion correction
     J. Chem. Phys., 2019 150 154122-XXXX
     doi.org/10.1063/1.5090222
  9. Caldeweyher,E.; Mewes,J.; Ehlert,S.; Grimme,S.
     Extension and evaluation of the D4 London-dispersion model for periodic systems
     Phys. Chem. Chem. Phys., 2020 22(16)8499-8512
     doi.org/10.1039/D0CP00502A

List of suggested additional citations. These are papers that are important in the 'surrounding' of 
of this run, or papers that preceded the highly important papers. If you like your results we are grateful for a citation.

  1. Izsak,R.; Neese,F.
     An overlap fitted chain of spheres exchange method
     J. Chem. Phys., 2011 135 144105
     doi.org/10.1063/1.3646921
  2. Izsak,R.; Hansen,A.; Neese,F.
     The resolution of identity and chain of spheres approximations for the LPNO-CCSD singles Fock term
     Molec. Phys., 2012 110 2413-2417
     doi.org/10.1080/00268976.2012.687466
  3. Neese,F.
     The ORCA program system
     WIRES Comput. Molec. Sci., 2012 2(1)73-78
     doi.org/10.1002/wcms.81
  4. Izsak,R.; Neese,F.; Klopper,W.
     Robust fitting techniques in the chain of spheres approximation to the Fock exchange: The role of the complementary space
     J. Chem. Phys., 2013 139 
     doi.org/10.1063/1.4819264
  5. Neese,F.
     Software update: the ORCA program system, version 4.0
     WIRES Comput. Molec. Sci., 2018 8(1)1-6
     doi.org/10.1002/wcms.1327
  6. Neese,F.; Wennmohs,F.; Becker,U.; Riplinger,C.
     The ORCA quantum chemistry program package
     J. Chem. Phys., 2020 152 Art. No. L224108
     doi.org/10.1063/5.0004608

Timings for individual modules:

Sum of individual times          ...      305.785 sec (=   5.096 min)
Startup calculation              ...        4.477 sec (=   0.075 min)   1.5 %
SCF iterations                   ...      199.565 sec (=   3.326 min)  65.3 %
Property integrals               ...       61.036 sec (=   1.017 min)  20.0 %
SCF Response                     ...       39.361 sec (=   0.656 min)  12.9 %
Property calculations            ...        1.345 sec (=   0.022 min)   0.4 %
                             ****ORCA TERMINATED NORMALLY****
TOTAL RUN TIME: 0 days 0 hours 5 minutes 6 seconds 63 msec
