
                                 *****************
                                 * O   R   C   A *
                                 *****************

                                            #,                                       
                                            ###                                      
                                            ####                                     
                                            #####                                    
                                            ######                                   
                                           ########,                                 
                                     ,,################,,,,,                         
                               ,,#################################,,                 
                          ,,##########################################,,             
                       ,#########################################, ''#####,          
                    ,#############################################,,   '####,        
                  ,##################################################,,,,####,       
                ,###########''''           ''''###############################       
              ,#####''   ,,,,##########,,,,          '''####'''          '####       
            ,##' ,,,,###########################,,,                        '##       
           ' ,,###''''                  '''############,,,                           
         ,,##''                                '''############,,,,        ,,,,,,###''
      ,#''                                            '''#######################'''  
     '                                                          ''''####''''         
             ,#######,   #######,   ,#######,      ##                                
            ,#'     '#,  ##    ##  ,#'     '#,    #''#        ,####,   ,####,        
            ##       ##  ##   ,#'  ##            #'  '#       #'       #'  '#        
            ##       ##  #######   ##           ,######,      #####,   #    #        
            '#,     ,#'  ##    ##  '#,     ,#' ,#      #,     #,   #   #,  ,#        
             '#######'   ##     ##  '#######'  #'      '#     '####' # '####'        



                #########################################################
                #                        -***-                          #
                #          Department of theory and spectroscopy        #
                #                                                       #
                #                      Frank Neese                      #
                #                                                       #
                #     Directorship, Architecture, Infrastructure        #
                #                    SHARK, DRIVERS                     #
                #        Core code/Algorithms in most modules           #
                #                                                       #
                #        Max Planck Institute fuer Kohlenforschung      #
                #                Kaiser Wilhelm Platz 1                 #
                #                 D-45470 Muelheim/Ruhr                 #
                #                      Germany                          #
                #                                                       #
                #                  All rights reserved                  #
                #                        -***-                          #
                #########################################################


                         Program Version 6.0.0  -   RELEASE  -


 With contributions from (in alphabetic order):
   Daniel Aravena         : Magnetic Suceptibility
   Michael Atanasov       : Ab Initio Ligand Field Theory (pilot matlab implementation)
   Alexander A. Auer      : GIAO ZORA, VPT2 properties, NMR spectrum
   Ute Becker             : All parallelization in ORCA, NUMFREQ, NUMCALC
   Giovanni Bistoni       : ED, misc. LED, open-shell LED, HFLD
   Martin Brehm           : Molecular dynamics
   Dmytro Bykov           : pre 5.0 version of the SCF Hessian
   Marcos Casanova-Páez   : Triplet and SCS-CIS(D). UHF-(DLPNO)-IP/EA/STEOM-CCSD. UHF-CVS-IP/STEOM-CCSD
   Vijay G. Chilkuri      : MRCI spin determinant printing, contributions to CSF-ICE
   Pauline Colinet        : FMM embedding
   Dipayan Datta          : RHF DLPNO-CCSD density
   Achintya Kumar Dutta   : EOM-CC, STEOM-CC
   Nicolas Foglia         : Exact transition moments, OPA infrastructure, MCD improvements
   Dmitry Ganyushin       : Spin-Orbit,Spin-Spin,Magnetic field MRCI
   Miquel Garcia          : C-PCM and meta-GGA Hessian, CCSD/C-PCM, Gaussian charge scheme
   Tiago L. C. Gouveia    : GS-ROHF, GS-ROCIS
   Yang Guo               : DLPNO-NEVPT2, F12-NEVPT2, CIM, IAO-localization
   Andreas Hansen         : Spin unrestricted coupled pair/coupled cluster methods
   Ingolf Harden          : AUTO-CI MPn and infrastructure 
   Benjamin Helmich-Paris : MC-RPA, TRAH-(SCF,CASSCF), AVAS, COSX integrals, SCF dyn. polar.
   Lee Huntington         : MR-EOM, pCC
   Robert Izsak           : Overlap fitted RIJCOSX, COSX-SCS-MP3, EOM
   Riya Kayal             : Wick's Theorem for AUTO-CI, AUTO-CI UHF-CCSDT
   Emily Kempfer          : AUTO-CI, RHF CISDT and CCSDT
   Christian Kollmar      : KDIIS, OOCD, Brueckner-CCSD(T), CCSD density, CASPT2, CASPT2-K, improved NEVPT2
   Axel Koslowski         : Symmetry handling
   Simone Kossmann        : Meta GGA functionals, TD-DFT gradient, OOMP2, (MP2 Hessian; deprecated post 5.0)
   Lucas Lang             : DCDCAS
   Marvin Lechner         : AUTO-CI (C++ implementation), FIC-MRCC
   Spencer Leger          : CASSCF response
   Dagmar Lenk            : GEPOL surface, SMD, ORCA-2-JSON
   Dimitrios Liakos       : Extrapolation schemes; Compound Job, initial MDCI parallelization
   Dimitrios Manganas     : Further ROCIS development; embedding schemes. LFT, Crystal Embedding
   Dimitrios Pantazis     : SARC Basis sets
   Anastasios Papadopoulos: AUTO-CI, single reference methods and gradients
   Taras Petrenko         : pre 6.0 DFT Hessian and TD-DFT gradient, (ASA, deprecated), ECA, 1-Electron XAS/XES, NRVS
   Peter Pinski           : DLPNO-MP2, DLPNO-MP2 Gradient
   Christoph Reimann      : Effective Core Potentials
   Marius Retegan         : Local ZFS, SOC
   Christoph Riplinger    : Optimizer, TS searches, QM/MM, DLPNO-CCSD(T), (RO)-DLPNO pert. Triples
   Michael Roemelt        : Original ROCIS implementation
   Masaaki Saitow         : Open-shell DLPNO-CCSD energy and density
   Barbara Sandhoefer     : DKH picture change effects
   Kantharuban Sivalingam : CASSCF convergence/infrastructure, NEVPT2 and variants, FIC-MRCI
   Bernardo de Souza      : ESD, SOC TD-DFT
   Georgi Stoychev        : AutoAux, RI-MP2 NMR, DLPNO-MP2 response, X2C
   Van Anh Tran           : RI-MP2 g-tensors
   Willem Van den Heuvel  : Paramagnetic NMR
   Zikuan Wang            : NOTCH, Electric field optimization 
   Frank Wennmohs         : Technical directorship and infrastructure
   Hang Xu                : AUTO-CI-Response properties 


 We gratefully acknowledge several colleagues who have allowed us to
 interface, adapt or use parts of their codes:
   Stefan Grimme, W. Hujo, H. Kruse, P. Pracht,  : VdW corrections, initial TS optimization,
                  C. Bannwarth, S. Ehlert,         DFT functionals, gCP, sTDA/sTD-DF
                  L. Wittmann, M. Mueller
   Ed Valeev, F. Pavosevic, A. Kumar             : LibInt (2-el integral package), F12 methods
   Garnet Chan, S. Sharma, J. Yang, R. Olivares  : DMRG
   Ulf Ekstrom                                   : XCFun DFT Library
   Mihaly Kallay                                 : mrcc  (arbitrary order and MRCC methods)
   Frank Weinhold                                : gennbo (NPA and NBO analysis)
   Simon Mueller                                 : openCOSMO-RS
   Christopher J. Cramer and Donald G. Truhlar   : smd solvation model
   Lars Goerigk                                  : TD-DFT with DH, B97 family of functionals
   V. Asgeirsson, H. Jonsson                     : NEB implementation
   FAccTs GmbH                                   : IRC, NEB, NEB-TS, DLPNO-Multilevel, CI-OPT
                                                   MM, QMMM, 2- and 3-layer-ONIOM, Crystal-QMMM,
                                                   LR-CPCM, SF, NACMEs, symmetry and pop. for TD-DFT,
                                                   nearIR, NL-DFT gradient (VV10), updates on ESD,
                                                   ML-optimized integration grids, MBIS, APM,
                                                   GOAT, DOCKER, SOLVATOR, interface openCOSMO-RS
   S Lehtola, MJT Oliveira, MAL Marques          : LibXC Library
   Liviu Ungur et al                             : ANISO software


 Your calculation uses the libint2 library for the computation of 2-el integrals
 For citations please refer to: http://libint.valeyev.net

 Your ORCA version has been built with support for libXC version: 6.2.2
 For citations please refer to: https://libxc.gitlab.io

 This ORCA versions uses:
   CBLAS   interface :  Fast vector & matrix operations
   LAPACKE interface :  Fast linear algebra routines
   SCALAPACK package :  Parallel linear algebra routines
   Shared memory     :  Shared parallel matrices
   BLAS/LAPACK       :  OpenBLAS 0.3.27  USE64BITINT DYNAMIC_ARCH NO_AFFINITY Zen SINGLE_THREADED
        Core in use  :  Zen
   Copyright (c) 2011-2014, The OpenBLAS Project


NOTE: MaxCore=8000 MB was set to SCF,MP2,MDCI,CIPSI,MRCI and CIS
      => If you want to overwrite this, your respective input block should be placed after the MaxCore statement
Your calculation utilizes the atom-pairwise dispersion correction
based on EEQ partial charges (D4)


================================================================================

----- Orbital basis set information -----
Your calculation utilizes the basis: def2-SVP
   F. Weigend and R. Ahlrichs, Phys. Chem. Chem. Phys. 7, 3297 (2005).

----- AuxJ basis set information -----
Your calculation utilizes the auxiliary basis: def2/J
   F. Weigend, Phys. Chem. Chem. Phys. 8, 1057 (2006).

================================================================================
                                        WARNINGS
                       Please study these warnings very carefully!
================================================================================

WARNING: Old DensityContainer found on disk!
         Will remove this file - 
         If you want to keep old densities, please start your calculation with a different basename. 


================================================================================
                                       INPUT FILE
================================================================================
NAME = inpS
|  1> ! wb97x-d4
|  2> ! def2-svp
|  3> ! def2/J RIJCOSX
|  4> ! DEFGRID2
|  5> ! scfconv7
|  6> ! smallprint printgap noloewdin
|  7> ! NOSOSCF
|  8> %MaxCore 8000
|  9> %output
| 10>        print[P_BondOrder_M] 1
| 11>        print[P_Mayer] 1
| 12>        print[P_basis] 2
| 13> end
| 14> %pal
| 15>     nprocs 4
| 16> end
| 17> ! CPCM(chloroform)
| 18> *xyz 0 1
| 19> C   -5.1587378800   0.1551366700  -0.7021546900
| 20> C   -6.5848268800  -0.2961683800  -0.9089598300
| 21> C   -7.5540069100   0.6427075300  -0.1790760800
| 22> H   -6.7220044700  -1.3248794500  -0.5569754500
| 23> H   -6.8331958500  -0.2680874700  -1.9802930900
| 24> C   -4.9179699700   1.5667794200  -1.0763056700
| 25> C   -5.9027981200   2.5468520900  -0.4786230800
| 26> C   -7.3553263100   2.0820378300  -0.6561276200
| 27> H   -5.7599428400   3.5411983700  -0.9148268100
| 28> H   -5.6911128800   2.6355816900   0.5979252500
| 29> H   -7.6308085600   2.1342619600  -1.7183392200
| 30> H   -8.0326689300   2.7464781700  -0.1072069900
| 31> O   -7.3955059900   0.5277749800   1.2448409500
| 32> H   -8.5863901100   0.3304516600  -0.3797259900
| 33> C   -4.2336140600  -0.6668072800  -0.1519189300
| 34> C   -3.9400466300   1.9470562200  -1.9053933800
| 35> H   -3.2532375800   1.2247078700  -2.3383326700
| 36> H   -3.8111634900   2.9921928800  -2.1768736200
| 37> C   -2.8745269100  -0.3112678400   0.1849002900
| 38> H   -4.5644320100  -1.6782406300   0.0811958400
| 39> C   -1.9180088600  -1.1412484300   0.6528598000
| 40> H   -2.6145542800   0.7366741600   0.0537382100
| 41> C   -2.0726193900  -2.6227170800   0.8840374800
| 42> C   -0.9815169000  -3.4307056000   0.1547045200
| 43> H   -3.0605881700  -2.9880268200   0.5908671400
| 44> H   -1.9686978000  -2.8080024700   1.9651554900
| 45> C    0.4325852200  -2.9093764500   0.4436551100
| 46> H   -1.1748638800  -3.4001079400  -0.9250520400
| 47> H   -1.0538441800  -4.4834763900   0.4540244700
| 48> C    0.5594012800  -1.4091501200   0.1462592700
| 49> H    1.1532347400  -3.4938860100  -0.1376833700
| 50> H    0.6696088100  -3.0726358700   1.5058439400
| 51> C   -0.5342349500  -0.6727209800   0.9831693200
| 52> H   -0.3401241400  -0.9822719600   2.0270923600
| 53> C   -0.1527338700   0.7984226600   0.8686217400
| 54> H   -6.4467156300   0.4866036800   1.4315759900
| 55> C    1.3941800800   0.7693909600   0.9130882300
| 56> H   -0.5884224400   1.4044560400   1.6699751900
| 57> H   -0.5046065600   1.2166092700  -0.0811335100
| 58> C    1.8354732500  -0.7130346300   0.7009130200
| 59> H    1.7664945000   1.1538087600   1.8665434400
| 60> H    1.8267750900   1.4068191600   0.1329394300
| 61> H    2.0252273500  -1.1720921000   1.6841348200
| 62> C    3.1255064700  -0.8123298200  -0.1244294600
| 63> C    0.3763674800  -1.1261800100  -1.3518357700
| 64> H    0.5977218900  -0.0827830100  -1.5975948600
| 65> H   -0.6515976200  -1.3245500500  -1.6708038600
| 66> H    1.0417886200  -1.7563503700  -1.9514403700
| 67> H    2.9370207400  -0.3148157100  -1.0890298500
| 68> C    3.5683557500  -2.2549265200  -0.4318343000
| 69> C    4.3074376900  -0.1065650300   0.5050976000
| 70> C    4.4766850900   0.1853309800   1.7948304100
| 71> H    5.1172945700   0.1056548800  -0.1944841300
| 72> H    3.6711541800  -0.0372157600   2.4936795400
| 73> C    5.6966605600   0.8090907000   2.4212600100
| 74> C    6.7363957500   1.2942721700   1.4125621800
| 75> C    6.3311398600  -0.1224835000   3.4949925200
| 76> H    5.3431513100   1.6919135800   2.9807417900
| 77> H    7.1751731400   0.4431269700   3.9185136100
| 78> C    6.8800717000  -1.4228229000   2.9041633800
| 79> C    5.3590723000  -0.4287598700   4.6380702300
| 80> H    7.1198026800   0.4762683700   0.7943708300
| 81> H    7.5866403100   1.7451061000   1.9357268500
| 82> H    6.3103300600   2.0468414900   0.7407154800
| 83> H    7.6574324200  -1.2411761500   2.1554662900
| 84> H    6.0779793800  -1.9985387200   2.4264905000
| 85> H    7.3171963900  -2.0446421200   3.6934087900
| 86> H    4.8955993700   0.4857074400   5.0265081800
| 87> H    5.8834794200  -0.9208525100   5.4644436300
| 88> H    4.5587774000  -1.1025291400   4.3109669900
| 89> H    2.8783125800  -2.7617770300  -1.1111200600
| 90> H    3.6379465600  -2.8372385700   0.4947044000
| 91> H    4.5586176000  -2.2566548300  -0.9012025700
| 92> *
| 93> %eprnmr
| 94>  Nuclei = all C { shift }
| 95>  origin giao
| 96>  giao_2el giao_2el_same_as_scf
| 97>  giao_1el giao_1el_analytic
| 98> end
| 99> 
|100>                          ****END OF INPUT****
================================================================================

                       ****************************
                       * Single Point Calculation *
                       ****************************

---------------------------------
CARTESIAN COORDINATES (ANGSTROEM)
---------------------------------
  C     -5.158738    0.155137   -0.702155
  C     -6.584827   -0.296168   -0.908960
  C     -7.554007    0.642708   -0.179076
  H     -6.722004   -1.324879   -0.556975
  H     -6.833196   -0.268087   -1.980293
  C     -4.917970    1.566779   -1.076306
  C     -5.902798    2.546852   -0.478623
  C     -7.355326    2.082038   -0.656128
  H     -5.759943    3.541198   -0.914827
  H     -5.691113    2.635582    0.597925
  H     -7.630809    2.134262   -1.718339
  H     -8.032669    2.746478   -0.107207
  O     -7.395506    0.527775    1.244841
  H     -8.586390    0.330452   -0.379726
  C     -4.233614   -0.666807   -0.151919
  C     -3.940047    1.947056   -1.905393
  H     -3.253238    1.224708   -2.338333
  H     -3.811163    2.992193   -2.176874
  C     -2.874527   -0.311268    0.184900
  H     -4.564432   -1.678241    0.081196
  C     -1.918009   -1.141248    0.652860
  H     -2.614554    0.736674    0.053738
  C     -2.072619   -2.622717    0.884037
  C     -0.981517   -3.430706    0.154705
  H     -3.060588   -2.988027    0.590867
  H     -1.968698   -2.808002    1.965155
  C      0.432585   -2.909376    0.443655
  H     -1.174864   -3.400108   -0.925052
  H     -1.053844   -4.483476    0.454024
  C      0.559401   -1.409150    0.146259
  H      1.153235   -3.493886   -0.137683
  H      0.669609   -3.072636    1.505844
  C     -0.534235   -0.672721    0.983169
  H     -0.340124   -0.982272    2.027092
  C     -0.152734    0.798423    0.868622
  H     -6.446716    0.486604    1.431576
  C      1.394180    0.769391    0.913088
  H     -0.588422    1.404456    1.669975
  H     -0.504607    1.216609   -0.081134
  C      1.835473   -0.713035    0.700913
  H      1.766494    1.153809    1.866543
  H      1.826775    1.406819    0.132939
  H      2.025227   -1.172092    1.684135
  C      3.125506   -0.812330   -0.124429
  C      0.376367   -1.126180   -1.351836
  H      0.597722   -0.082783   -1.597595
  H     -0.651598   -1.324550   -1.670804
  H      1.041789   -1.756350   -1.951440
  H      2.937021   -0.314816   -1.089030
  C      3.568356   -2.254927   -0.431834
  C      4.307438   -0.106565    0.505098
  C      4.476685    0.185331    1.794830
  H      5.117295    0.105655   -0.194484
  H      3.671154   -0.037216    2.493680
  C      5.696661    0.809091    2.421260
  C      6.736396    1.294272    1.412562
  C      6.331140   -0.122483    3.494993
  H      5.343151    1.691914    2.980742
  H      7.175173    0.443127    3.918514
  C      6.880072   -1.422823    2.904163
  C      5.359072   -0.428760    4.638070
  H      7.119803    0.476268    0.794371
  H      7.586640    1.745106    1.935727
  H      6.310330    2.046841    0.740715
  H      7.657432   -1.241176    2.155466
  H      6.077979   -1.998539    2.426490
  H      7.317196   -2.044642    3.693409
  H      4.895599    0.485707    5.026508
  H      5.883479   -0.920853    5.464444
  H      4.558777   -1.102529    4.310967
  H      2.878313   -2.761777   -1.111120
  H      3.637947   -2.837239    0.494704
  H      4.558618   -2.256655   -0.901203

----------------------------
CARTESIAN COORDINATES (A.U.)
----------------------------
  NO LB      ZA    FRAG     MASS         X           Y           Z
   0 C     6.0000    0    12.011   -9.748602    0.293166   -1.326880
   1 C     6.0000    0    12.011  -12.443519   -0.559677   -1.717685
   2 C     6.0000    0    12.011  -14.275004    1.214541   -0.338405
   3 H     1.0000    0     1.008  -12.702748   -2.503659   -1.052531
   4 H     1.0000    0     1.008  -12.912869   -0.506612   -3.742212
   5 C     6.0000    0    12.011   -9.293616    2.960784   -2.033923
   6 C     6.0000    0    12.011  -11.154672    4.812853   -0.904467
   7 C     6.0000    0    12.011  -13.899552    3.934481   -1.239902
   8 H     1.0000    0     1.008  -10.884715    6.691895   -1.728772
   9 H     1.0000    0     1.008  -10.754645    4.980528    1.129915
  10 H     1.0000    0     1.008  -14.420138    4.033171   -3.247191
  11 H     1.0000    0     1.008  -15.179544    5.190092   -0.202592
  12 O     8.0000    0    15.999  -13.975481    0.997350    2.352408
  13 H     1.0000    0     1.008  -16.225926    0.624463   -0.717578
  14 C     6.0000    0    12.011   -8.000371   -1.260083   -0.287085
  15 C     6.0000    0    12.011   -7.445609    3.679403   -3.600672
  16 H     1.0000    0     1.008   -6.147728    2.314362   -4.418808
  17 H     1.0000    0     1.008   -7.202055    5.654425   -4.113695
  18 C     6.0000    0    12.011   -5.432069   -0.588211    0.349411
  19 H     1.0000    0     1.008   -8.625526   -3.171415    0.153438
  20 C     6.0000    0    12.011   -3.624511   -2.156647    1.233726
  21 H     1.0000    0     1.008   -4.940792    1.392112    0.101550
  22 C     6.0000    0    12.011   -3.916683   -4.956217    1.670589
  23 C     6.0000    0    12.011   -1.854798   -6.483094    0.292349
  24 H     1.0000    0     1.008   -5.783673   -5.646552    1.116577
  25 H     1.0000    0     1.008   -3.720300   -5.306356    3.713606
  26 C     6.0000    0    12.011    0.817468   -5.497925    0.838387
  27 H     1.0000    0     1.008   -2.220171   -6.425273   -1.748095
  28 H     1.0000    0     1.008   -1.991477   -8.472543    0.857982
  29 C     6.0000    0    12.011    1.057115   -2.662908    0.276390
  30 H     1.0000    0     1.008    2.179298   -6.602488   -0.260184
  31 H     1.0000    0     1.008    1.265377   -5.806440    2.845633
  32 C     6.0000    0    12.011   -1.009558   -1.271258    1.857921
  33 H     1.0000    0     1.008   -0.642741   -1.856225    3.830649
  34 C     6.0000    0    12.011   -0.288625    1.508800    1.641457
  35 H     1.0000    0     1.008  -12.182527    0.919548    2.705287
  36 C     6.0000    0    12.011    2.634619    1.453938    1.725487
  37 H     1.0000    0     1.008   -1.111957    2.654037    3.155796
  38 H     1.0000    0     1.008   -0.953568    2.299058   -0.153320
  39 C     6.0000    0    12.011    3.468542   -1.347440    1.324534
  40 H     1.0000    0     1.008    3.338191    2.180383    3.527256
  41 H     1.0000    0     1.008    3.452105    2.658503    0.251219
  42 H     1.0000    0     1.008    3.827125   -2.214933    3.182554
  43 C     6.0000    0    12.011    5.906351   -1.535081   -0.235138
  44 C     6.0000    0    12.011    0.711231   -2.128172   -2.554599
  45 H     1.0000    0     1.008    1.129531   -0.156437   -3.019017
  46 H     1.0000    0     1.008   -1.231341   -2.503037   -3.157362
  47 H     1.0000    0     1.008    1.968695   -3.319021   -3.687688
  48 H     1.0000    0     1.008    5.550165   -0.594915   -2.057968
  49 C     6.0000    0    12.011    6.743215   -4.261194   -0.816049
  50 C     6.0000    0    12.011    8.139878   -0.201379    0.954496
  51 C     6.0000    0    12.011    8.459709    0.350225    3.391738
  52 H     1.0000    0     1.008    9.670285    0.199659   -0.367522
  53 H     1.0000    0     1.008    6.937476   -0.070328    4.712371
  54 C     6.0000    0    12.011   10.765128    1.528960    4.575518
  55 C     6.0000    0    12.011   12.729943    2.445820    2.669356
  56 C     6.0000    0    12.011   11.964120   -0.231460    6.604579
  57 H     1.0000    0     1.008   10.097093    3.197253    5.632786
  58 H     1.0000    0     1.008   13.559112    0.837389    7.404918
  59 C     6.0000    0    12.011   13.001451   -2.688746    5.488073
  60 C     6.0000    0    12.011   10.127179   -0.810239    8.764683
  61 H     1.0000    0     1.008   13.454477    0.900017    1.501143
  62 H     1.0000    0     1.008   14.336672    3.297773    3.657994
  63 H     1.0000    0     1.008   11.924796    3.867970    1.399749
  64 H     1.0000    0     1.008   14.470450   -2.345483    4.073241
  65 H     1.0000    0     1.008   11.485716   -3.776691    4.585403
  66 H     1.0000    0     1.008   13.827497   -3.863814    6.979531
  67 H     1.0000    0     1.008    9.251342    0.917854    9.498724
  68 H     1.0000    0     1.008   11.118165   -1.740159   10.326302
  69 H     1.0000    0     1.008    8.614841   -2.083478    8.146547
  70 H     1.0000    0     1.008    5.439223   -5.219002   -2.099713
  71 H     1.0000    0     1.008    6.874723   -5.361604    0.934856
  72 H     1.0000    0     1.008    8.614539   -4.264460   -1.703026

--------------------------------
INTERNAL COORDINATES (ANGSTROEM)
--------------------------------
 C      0   0   0     0.000000000000     0.00000000     0.00000000
 C      1   0   0     1.510024652119     0.00000000     0.00000000
 C      2   1   0     1.534121309885   110.39961525     0.00000000
 H      2   1   3     1.095881909926   110.78013736   237.85461568
 H      2   1   3     1.100104829890   109.81370824   118.68254746
 C      1   2   3     1.480099116934   113.83204246   305.79780455
 C      6   1   2     1.512499058480   114.34319523    50.17939134
 C      3   2   1     1.529288679462   110.21285670    56.79363011
 H      7   6   1     1.095173890138   110.24288159   188.59297834
 H      7   6   1     1.100745151966   108.26968370    71.93471766
 H      8   3   2     1.098595154274   108.28690557    64.69093517
 H      8   3   2     1.096169625709   109.51198183   181.61265198
 O      3   2   1     1.437314071807   110.65427236   292.72966622
 H      3   2   1     1.097077566253   109.46861608   177.23278090
 C      1   2   3     1.354328368918   121.29017979   122.35411746
 C      6   1   2     1.337284911456   123.15406571   232.16629388
 H     16   6   1     1.086706141850   121.34223814   358.95782962
 H     16   6   1     1.087484722910   120.97941096   178.38163388
 C     15   1   2     1.444636065468   126.01490462   184.99725699
 H     15   1   2     1.089394526114   116.29375067     3.06246648
 C     19  15   1     1.350103945166   126.58668331   184.59067325
 H     19  15   1     1.087645022488   115.71395813     5.35160297
 C     21  19  15     1.507347636297   125.78094284     1.69312260
 C     23  21  19     1.541193258056   111.71975981   126.04455907
 H     23  21  19     1.093381161649   112.32957748     2.22771204
 H     23  21  19     1.101792414279   107.82404446   244.59451891
 C     24  23  21     1.534588326519   112.65420798    50.78203495
 H     24  23  21     1.097357507987   109.04315341   288.66103332
 H     24  23  21     1.096881946327   109.10868595   172.73858303
 C     27  24  23     1.534667924975   111.82378374   306.15870354
 H     27  24  23     1.094961910176   108.97528940   182.58753352
 H     27  24  23     1.100490313911   109.25727110    66.05901068
 C     21  19  15     1.497815938092   122.59331925   180.43176973
 H     33  21  19     1.106018141452   106.42379386   125.67045183
 C     33  21  19     1.524115425956   121.10530722     3.00898051
 H     13   3   2     0.967867862023   107.61622208    42.23775991
 C     35  33  21     1.547825208815   103.29111292   194.96667044
 H     35  33  21     1.095111108304   112.30787812    73.18320353
 H     35  33  21     1.095778018421   110.67907324   313.44600273
 C     30  27  24     1.555820436434   115.85380519   166.64090159
 H     37  35  33     1.093376380654   111.02498439   252.27404050
 H     37  35  33     1.096396508100   111.28343525   134.00242484
 H     40  30  27     1.101574095204   105.84456800   322.32072872
 C     40  30  27     1.534677638057   117.95450941    83.20942097
 C     30  27  24     1.535533198589   111.06066011   294.88378566
 H     45  30  27     1.094565029933   111.75345897   187.71535658
 H     45  30  27     1.094442123653   111.27809777    67.78817408
 H     45  30  27     1.095182931077   110.83539301   307.75347029
 H     44  40  30     1.101590247075   107.32961720    62.44569029
 C     44  40  30     1.540031966974   114.18442088   303.64708851
 C     44  40  30     1.513727078071   113.73550501   180.21085038
 C     51  44  40     1.333138659049   127.12463124    23.23704767
 H     51  44  40     1.091017897760   113.80418762   198.60622247
 H     52  51  44     1.089402223677   118.81673094   355.81599468
 C     52  51  44     1.506595625725   126.56302867   175.78199584
 C     55  52  51     1.527717786897   114.08295454     8.13385293
 C     55  52  51     1.556693924722   111.65842115   240.45078283
 H     55  52  51     1.103342598398   106.41936664   126.35404643
 H     57  55  52     1.100762233725   105.68869566   182.66006363
 C     57  55  52     1.530126724435   112.85787611    64.75452215
 C     57  55  52     1.531452646060   112.07412371   299.57814582
 H     56  55  52     1.094665079374   111.95789376   299.20567270
 H     56  55  52     1.095385008198   110.09842498   179.32617933
 H     56  55  52     1.095112113850   111.00990304    59.54993066
 H     60  57  55     1.094455372941   112.20423347    59.85225764
 H     60  57  55     1.096800882334   110.60287231   299.21797515
 H     60  57  55     1.095739683581   110.31964248   179.90475102
 H     61  57  55     1.096330998787   111.46751354   310.89668818
 H     61  57  55     1.095468388442   110.42848006   190.78434385
 H     61  57  55     1.096099213475   111.32321551    71.61826835
 H     50  44  40     1.092925505096   112.14311389    67.68114193
 H     50  44  40     1.096541913020   110.30591975   306.49900588
 H     50  44  40     1.095868647012   110.29284150   187.67634473

---------------------------
INTERNAL COORDINATES (A.U.)
---------------------------
 C      0   0   0     0.000000000000     0.00000000     0.00000000
 C      1   0   0     2.853533047975     0.00000000     0.00000000
 C      2   1   0     2.899069131895   110.39961525     0.00000000
 H      2   1   3     2.070916684878   110.78013736   237.85461568
 H      2   1   3     2.078896847096   109.81370824   118.68254746
 C      1   2   3     2.796981982064   113.83204246   305.79780455
 C      6   1   2     2.858208998341   114.34319523    50.17939134
 C      3   2   1     2.889936783889   110.21285670    56.79363011
 H      7   6   1     2.069578721382   110.24288159   188.59297834
 H      7   6   1     2.080106880457   108.26968370    71.93471766
 H      8   3   2     2.076043973630   108.28690557    64.69093517
 H      8   3   2     2.071460388913   109.51198183   181.61265198
 O      3   2   1     2.716129964146   110.65427236   292.72966622
 H      3   2   1     2.073176147886   109.46861608   177.23278090
 C      1   2   3     2.559309712655   121.29017979   122.35411746
 C      6   1   2     2.527102245677   123.15406571   232.16629388
 H     16   6   1     2.053576996147   121.34223814   358.95782962
 H     16   6   1     2.055048301123   120.97941096   178.38163388
 C     15   1   2     2.729966526921   126.01490462   184.99725699
 H     15   1   2     2.058657306148   116.29375067     3.06246648
 C     19  15   1     2.551326708690   126.58668331   184.59067325
 H     19  15   1     2.055351223425   115.71395813     5.35160297
 C     21  19  15     2.848474221215   125.78094284     1.69312260
 C     23  21  19     2.912433177172   111.71975981   126.04455907
 H     23  21  19     2.066190955506   112.32957748     2.22771204
 H     23  21  19     2.082085919419   107.82404446   244.59451891
 C     24  23  21     2.899951665434   112.65420798    50.78203495
 H     24  23  21     2.073705161098   109.04315341   288.66103332
 H     24  23  21     2.072806479800   109.10868595   172.73858303
 C     27  24  23     2.900102084717   111.82378374   306.15870354
 H     27  24  23     2.069178137308   108.97528940   182.58753352
 H     27  24  23     2.079625306325   109.25727110    66.05901068
 C     21  19  15     2.830461922016   122.59331925   180.43176973
 H     33  21  19     2.090071386493   106.42379386   125.67045183
 C     33  21  19     2.880160751542   121.10530722     3.00898051
 H     13   3   2     1.829005193047   107.61622208    42.23775991
 C     35  33  21     2.924965747839   103.29111292   194.96667044
 H     35  33  21     2.069460080909   112.30787812    73.18320353
 H     35  33  21     2.070720358386   110.67907324   313.44600273
 C     30  27  24     2.940074538419   115.85380519   166.64090159
 H     37  35  33     2.066181920735   111.02498439   252.27404050
 H     37  35  33     2.071889134496   111.28343525   134.00242484
 H     40  30  27     2.081673356158   105.84456800   322.32072872
 C     40  30  27     2.900120439781   117.95450941    83.20942097
 C     30  27  24     2.901737214877   111.06066011   294.88378566
 H     45  30  27     2.068428142341   111.75345897   187.71535658
 H     45  30  27     2.068195883131   111.27809777    67.78817408
 H     45  30  27     2.069595806281   110.83539301   307.75347029
 H     44  40  30     2.081703878770   107.32961720    62.44569029
 C     44  40  30     2.910238655066   114.18442088   303.64708851
 C     44  40  30     2.860529619056   113.73550501   180.21085038
 C     51  44  40     2.519266964146   127.12463124    23.23704767
 H     51  44  40     2.061725033974   113.80418762   198.60622247
 H     52  51  44     2.058671852434   118.81673094   355.81599468
 C     52  51  44     2.847053127183   126.56302867   175.78199584
 C     55  52  51     2.886968227156   114.08295454     8.13385293
 C     55  52  51     2.941725192063   111.65842115   240.45078283
 H     55  52  51     2.085015342861   106.41936664   126.35404643
 H     57  55  52     2.080139160304   105.68869566   182.66006363
 C     57  55  52     2.891520459377   112.85787611    64.75452215
 C     57  55  52     2.894026088122   112.07412371   299.57814582
 H     56  55  52     2.068617208384   111.95789376   299.20567270
 H     56  55  52     2.069977676697   110.09842498   179.32617933
 H     56  55  52     2.069461981116   111.00990304    59.54993066
 H     60  57  55     2.068220920657   112.20423347    59.85225764
 H     60  57  55     2.072653291055   110.60287231   299.21797515
 H     60  57  55     2.070647916038   110.31964248   179.90475102
 H     61  57  55     2.071765339836   111.46751354   310.89668818
 H     61  57  55     2.070135242524   110.42848006   190.78434385
 H     61  57  55     2.071327329075   111.32321551    71.61826835
 H     50  44  40     2.065329889409   112.14311389    67.68114193
 H     50  44  40     2.072163909974   110.30591975   306.49900588
 H     50  44  40     2.070891621603   110.29284150   187.67634473

---------------------
BASIS SET INFORMATION
---------------------
There are 3 groups of distinct atoms

 Group   1 Type C   : 7s4p1d contracted to 3s2p1d pattern {511/31/1}
 Group   2 Type H   : 4s1p contracted to 2s1p pattern {31/1}
 Group   3 Type O   : 7s4p1d contracted to 3s2p1d pattern {511/31/1}

Atom   0C    basis set group =>   1
Atom   1C    basis set group =>   1
Atom   2C    basis set group =>   1
Atom   3H    basis set group =>   2
Atom   4H    basis set group =>   2
Atom   5C    basis set group =>   1
Atom   6C    basis set group =>   1
Atom   7C    basis set group =>   1
Atom   8H    basis set group =>   2
Atom   9H    basis set group =>   2
Atom  10H    basis set group =>   2
Atom  11H    basis set group =>   2
Atom  12O    basis set group =>   3
Atom  13H    basis set group =>   2
Atom  14C    basis set group =>   1
Atom  15C    basis set group =>   1
Atom  16H    basis set group =>   2
Atom  17H    basis set group =>   2
Atom  18C    basis set group =>   1
Atom  19H    basis set group =>   2
Atom  20C    basis set group =>   1
Atom  21H    basis set group =>   2
Atom  22C    basis set group =>   1
Atom  23C    basis set group =>   1
Atom  24H    basis set group =>   2
Atom  25H    basis set group =>   2
Atom  26C    basis set group =>   1
Atom  27H    basis set group =>   2
Atom  28H    basis set group =>   2
Atom  29C    basis set group =>   1
Atom  30H    basis set group =>   2
Atom  31H    basis set group =>   2
Atom  32C    basis set group =>   1
Atom  33H    basis set group =>   2
Atom  34C    basis set group =>   1
Atom  35H    basis set group =>   2
Atom  36C    basis set group =>   1
Atom  37H    basis set group =>   2
Atom  38H    basis set group =>   2
Atom  39C    basis set group =>   1
Atom  40H    basis set group =>   2
Atom  41H    basis set group =>   2
Atom  42H    basis set group =>   2
Atom  43C    basis set group =>   1
Atom  44C    basis set group =>   1
Atom  45H    basis set group =>   2
Atom  46H    basis set group =>   2
Atom  47H    basis set group =>   2
Atom  48H    basis set group =>   2
Atom  49C    basis set group =>   1
Atom  50C    basis set group =>   1
Atom  51C    basis set group =>   1
Atom  52H    basis set group =>   2
Atom  53H    basis set group =>   2
Atom  54C    basis set group =>   1
Atom  55C    basis set group =>   1
Atom  56C    basis set group =>   1
Atom  57H    basis set group =>   2
Atom  58H    basis set group =>   2
Atom  59C    basis set group =>   1
Atom  60C    basis set group =>   1
Atom  61H    basis set group =>   2
Atom  62H    basis set group =>   2
Atom  63H    basis set group =>   2
Atom  64H    basis set group =>   2
Atom  65H    basis set group =>   2
Atom  66H    basis set group =>   2
Atom  67H    basis set group =>   2
Atom  68H    basis set group =>   2
Atom  69H    basis set group =>   2
Atom  70H    basis set group =>   2
Atom  71H    basis set group =>   2
Atom  72H    basis set group =>   2

-------------------------
BASIS SET IN INPUT FORMAT
-------------------------

 # Basis set for element : H 
 NewGTO H 
 S 3 
   1      13.0107010000      0.0334854848
   2       1.9622572000      0.2347218709
   3       0.4445379600      0.8137702853
 S 1 
   1       0.1219496200      1.0000000000
 P 1 
   1       0.8000000000      1.0000000000
  end;

 # Basis set for element : C 
 NewGTO C 
 S 5 
   1    1238.4016938000      0.0055173650
   2     186.2900499200      0.0410888285
   3      42.2511763460      0.1822538213
   4      11.6765579320      0.4682845944
   5       3.5930506482      0.4457581734
 S 1 
   1       0.4024514736      1.0000000000
 S 1 
   1       0.1309018267      1.0000000000
 P 3 
   1       9.4680970621      0.0568883320
   2       2.0103545142      0.3129405934
   3       0.5477100471      0.7606501651
 P 1 
   1       0.1526861379      1.0000000000
 D 1 
   1       0.8000000000      1.0000000000
  end;

 # Basis set for element : O 
 NewGTO O 
 S 5 
   1    2266.1767785000     -0.0053893504
   2     340.8701019100     -0.0402347214
   3      77.3631351670     -0.1800818421
   4      21.4796449400     -0.4682885766
   5       6.6589433124     -0.4469261716
 S 1 
   1       0.8097597567      1.0000000000
 S 1 
   1       0.2553077223      1.0000000000
 P 3 
   1      17.7215043170      0.0626302488
   2       3.8635505440      0.3333113849
   3       1.0480920883      0.7414863830
 P 1 
   1       0.2764154441      1.0000000000
 D 1 
   1       1.2000000000      1.0000000000
  end;

---------------------------------
AUXILIARY/J BASIS SET INFORMATION
---------------------------------
There are 3 groups of distinct atoms

 Group   1 Type C   : 12s5p4d2f1g contracted to 6s4p3d1f1g pattern {711111/2111/211/2/1}
 Group   2 Type H   : 5s2p1d contracted to 3s1p1d pattern {311/2/1}
 Group   3 Type O   : 12s5p4d2f1g contracted to 6s4p3d1f1g pattern {711111/2111/211/2/1}

Atom   0C    basis set group =>   1
Atom   1C    basis set group =>   1
Atom   2C    basis set group =>   1
Atom   3H    basis set group =>   2
Atom   4H    basis set group =>   2
Atom   5C    basis set group =>   1
Atom   6C    basis set group =>   1
Atom   7C    basis set group =>   1
Atom   8H    basis set group =>   2
Atom   9H    basis set group =>   2
Atom  10H    basis set group =>   2
Atom  11H    basis set group =>   2
Atom  12O    basis set group =>   3
Atom  13H    basis set group =>   2
Atom  14C    basis set group =>   1
Atom  15C    basis set group =>   1
Atom  16H    basis set group =>   2
Atom  17H    basis set group =>   2
Atom  18C    basis set group =>   1
Atom  19H    basis set group =>   2
Atom  20C    basis set group =>   1
Atom  21H    basis set group =>   2
Atom  22C    basis set group =>   1
Atom  23C    basis set group =>   1
Atom  24H    basis set group =>   2
Atom  25H    basis set group =>   2
Atom  26C    basis set group =>   1
Atom  27H    basis set group =>   2
Atom  28H    basis set group =>   2
Atom  29C    basis set group =>   1
Atom  30H    basis set group =>   2
Atom  31H    basis set group =>   2
Atom  32C    basis set group =>   1
Atom  33H    basis set group =>   2
Atom  34C    basis set group =>   1
Atom  35H    basis set group =>   2
Atom  36C    basis set group =>   1
Atom  37H    basis set group =>   2
Atom  38H    basis set group =>   2
Atom  39C    basis set group =>   1
Atom  40H    basis set group =>   2
Atom  41H    basis set group =>   2
Atom  42H    basis set group =>   2
Atom  43C    basis set group =>   1
Atom  44C    basis set group =>   1
Atom  45H    basis set group =>   2
Atom  46H    basis set group =>   2
Atom  47H    basis set group =>   2
Atom  48H    basis set group =>   2
Atom  49C    basis set group =>   1
Atom  50C    basis set group =>   1
Atom  51C    basis set group =>   1
Atom  52H    basis set group =>   2
Atom  53H    basis set group =>   2
Atom  54C    basis set group =>   1
Atom  55C    basis set group =>   1
Atom  56C    basis set group =>   1
Atom  57H    basis set group =>   2
Atom  58H    basis set group =>   2
Atom  59C    basis set group =>   1
Atom  60C    basis set group =>   1
Atom  61H    basis set group =>   2
Atom  62H    basis set group =>   2
Atom  63H    basis set group =>   2
Atom  64H    basis set group =>   2
Atom  65H    basis set group =>   2
Atom  66H    basis set group =>   2
Atom  67H    basis set group =>   2
Atom  68H    basis set group =>   2
Atom  69H    basis set group =>   2
Atom  70H    basis set group =>   2
Atom  71H    basis set group =>   2
Atom  72H    basis set group =>   2

-------------------------------------
AUXILIARY/J BASIS SET IN INPUT FORMAT
-------------------------------------

 # Auxiliary/J basis set for element : H 
 NewAuxJGTO H 
 S 3 
   1      15.6752927000      0.1007184237
   2       3.6063578000      0.3404257499
   3       1.2080016000      0.6491996172
 S 1 
   1       0.4726794000      1.0000000000
 S 1 
   1       0.2018100000      1.0000000000
 P 2 
   1       2.0281365000      0.5596620919
   2       0.5358730000      0.5596620919
 D 1 
   1       2.2165124000      1.0000000000
  end;

 # Auxiliary/J basis set for element : C 
 NewAuxJGTO C 
 S 7 
   1    1861.0916331000      0.0134602335
   2     642.9939764000      0.0299160374
   3     235.1105725000      0.1008649584
   4      90.7028894000      0.2370970548
   5      36.7794552000      0.3924037254
   6      15.6046273000      0.3195862154
   7       6.8907294000      0.0530104441
 S 1 
   1       3.1478850000     -1.0000000000
 S 1 
   1       1.4777287000      1.0000000000
 S 1 
   1       0.7076466000      1.0000000000
 S 1 
   1       0.3430122000      1.0000000000
 S 1 
   1       0.1669453000      1.0000000000
 P 2 
   1      13.5472892000     -0.6769313712
   2       5.4669419000     -0.3779500978
 P 1 
   1       2.1751721000      1.0000000000
 P 1 
   1       0.8582194000      1.0000000000
 P 1 
   1       0.3376720000      1.0000000000
 D 2 
   1       5.9287253000     -0.3533329857
   2       1.9809209000     -0.7456525731
 D 1 
   1       0.8055417000     -1.0000000000
 D 1 
   1       0.3531244000     -1.0000000000
 F 2 
   1       1.6755626000      0.6311076882
   2       0.5997536000      0.4968166032
 G 1 
   1       1.0024600000     -1.0000000000
  end;

 # Auxiliary/J basis set for element : O 
 NewAuxJGTO O 
 S 7 
   1    2876.8216605000      0.0168151159
   2    1004.7443032000      0.0340137548
   3     369.7579954000      0.1194951309
   4     142.9442404000      0.2664627624
   5      57.8366425000      0.4202764046
   6      24.3864983000      0.2765077335
   7      10.6622662000      0.0057008815
 S 1 
   1       4.8070437000     -1.0000000000
 S 1 
   1       2.2210770000      1.0000000000
 S 1 
   1       1.0447795000      1.0000000000
 S 1 
   1       0.4968425000      1.0000000000
 S 1 
   1       0.2371384000      1.0000000000
 P 2 
   1      64.2613382000     -0.2731534179
   2      16.3006076000     -0.8168011598
 P 1 
   1       4.3550542000      1.0000000000
 P 1 
   1       1.2019554000      1.0000000000
 P 1 
   1       0.3354196000      1.0000000000
 D 2 
   1       9.2146611000     -0.4661230638
   2       2.8435251000     -0.6600908911
 D 1 
   1       0.9955759000     -1.0000000000
 D 1 
   1       0.3649441000     -1.0000000000
 F 2 
   1       2.6420115000      0.5931563945
   2       0.7345613000      0.5931563945
 G 1 
   1       1.3931000000     -1.0000000000
  end;


Checking for AutoStart:
The File: inpS.gbw exists
Trying to determine its content:
     ... Fine, the file contains calculation information
     ... Fine, the calculation information was read
     ... Fine, the file contains a basis set
     ... Fine, the basis set was read
     ... Fine, the file contains a geometry
     ... Fine, the geometry was read
     ... Fine, the file contains a set of orbitals
     ... Fine, the orbitals can be read
     => possible old guess file was deleted
     => GBW file was renamed to GES file
     => GES file is set as startup file
     => Guess is set to MORead
     ... now leaving AutoStart



           ************************************************************
           *        Program running with 4 parallel MPI-processes     *
           *              working on a common directory               *
           ************************************************************
------------------------------------------------------------------------------
                             ORCA STARTUP CALCULATIONS
                           -- RI-GTO INTEGRALS CHOSEN --
------------------------------------------------------------------------------
------------------------------------------------------------------------------
                   ___                                                        
                  /   \      - P O W E R E D   B Y -                         
                 /     \                                                     
                 |  |  |   _    _      __       _____    __    __             
                 |  |  |  | |  | |    /  \     |  _  \  |  |  /  |          
                  \  \/   | |  | |   /    \    | | | |  |  | /  /          
                 / \  \   | |__| |  /  /\  \   | |_| |  |  |/  /          
                |  |  |   |  __  | /  /__\  \  |    /   |      \           
                |  |  |   | |  | | |   __   |  |    \   |  |\   \          
                \     /   | |  | | |  |  |  |  | |\  \  |  | \   \       
                 \___/    |_|  |_| |__|  |__|  |_| \__\ |__|  \__/        
                                                                              
                      - O R C A' S   B I G   F R I E N D -                    
                                      &                                       
                       - I N T E G R A L  F E E D E R -                       
                                                                              
 v1 FN, 2020, v2 2021, v3 2022-2024                                           
------------------------------------------------------------------------------


----------------------
SHARK INTEGRAL PACKAGE
----------------------

Number of atoms                             ...     73
Number of basis functions                   ...    626
Number of shells                            ...    306
Maximum angular momentum                    ...      2
Integral batch strategy                     ... SHARK/LIBINT Hybrid
RI-J (if used) integral strategy            ... SPLIT-RIJ (Revised 2003 algorithm where possible)
Printlevel                                  ...      1
Contraction scheme used                     ... SEGMENTED contraction
Prescreening option                         ... SCHWARTZ
   Thresh                                   ... 3.000e-11
   Tcut                                     ... 1.000e-12
   Tpresel                                  ... 1.000e-12 
Coulomb Range Separation                    ... NOT USED
Exchange Range Separation                   ... Long Range
   Mu parameter                             ... 3.000e-01
   Scaling (regular/separated)              ... 1.670e-01 8.330e-01
Multipole approximations                    ... NOT USED
Finite Nucleus Model                        ... NOT USED
CABS basis                                  ... NOT available
Auxiliary Coulomb fitting basis             ... AVAILABLE
   # of basis functions in Aux-J            ...   1905
   # of shells in Aux-J                     ...    655
   Maximum angular momentum in Aux-J        ...      4
Auxiliary J/K fitting basis                 ... NOT available
Auxiliary Correlation fitting basis         ... NOT available
Auxiliary 'external' fitting basis          ... NOT available

Checking pre-screening integrals            ... done (  0.0 sec) Dimension = 306
Check shell pair data                       ... done (  0.0 sec)
Shell pair information
Shell pair cut-off parameter TPreSel        ...   1.0e-12
Total number of shell pairs                 ...     46971
Shell pairs after pre-screening             ...     27995
Total number of primitive shell pairs       ...    162105
Primitive shell pairs kept                  ...     61734
          la=0 lb=0:   9806 shell pairs
          la=1 lb=0:  10731 shell pairs
          la=1 lb=1:   2968 shell pairs
          la=2 lb=0:   2808 shell pairs
          la=2 lb=1:   1484 shell pairs
          la=2 lb=2:    198 shell pairs

Calculating one electron integrals          ... done (  0.1 sec)
Calculating RI/J V-Matrix + Cholesky decomp.... done (  0.2 sec)
Calculating Nuclear repulsion               ... done (  0.0 sec) ENN=   2804.540045457210 Eh

Diagonalization of the overlap matrix:
Smallest eigenvalue                        ... 4.523e-04
Time for diagonalization                   ...    0.043 sec
Threshold for overlap eigenvalues          ... 1.000e-07
Number of eigenvalues below threshold      ... 0
Time for construction of square roots      ...    0.024 sec
Total time needed                          ...    0.070 sec

-------------------
DFT GRID GENERATION
-------------------

General Integration Accuracy     IntAcc      ... 4.388
Radial Grid Type                 RadialGrid  ... OptM3 with GC (2021)
Angular Grid (max. ang.)         AngularGrid ... 4 (Lebedev-302)
Angular grid pruning method      GridPruning ... 4 (adaptive)
Weight generation scheme         WeightScheme... mBecke (2022)
Basis function cutoff            BFCut       ... 1.0000e-11
Integration weight cutoff        WCut        ... 1.0000e-14
Partially contracted basis set               ... off
Rotationally invariant grid construction     ... off
Angular grids for H and He will be reduced by one unit

Total number of grid points                  ...   309734
Total number of batches                      ...     4878
Average number of points per batch           ...       63
Average number of grid points per atom       ...     4243

--------------------
COSX GRID GENERATION
--------------------

GRIDX 1
-------
General Integration Accuracy     IntAcc      ... 3.816
Radial Grid Type                 RadialGrid  ... OptM3 with GC (2021)
Angular Grid (max. ang.)         AngularGrid ... 1 (Lebedev-50)
Angular grid pruning method      GridPruning ... 4 (adaptive)
Weight generation scheme         WeightScheme... mBecke (2022)
Basis function cutoff            BFCut       ... 1.0000e-11
Integration weight cutoff        WCut        ... 1.0000e-14
Partially contracted basis set               ... on
Rotationally invariant grid construction     ... off
Angular grids for H and He will be reduced by one unit

Total number of grid points                  ...    39381
Total number of batches                      ...      353
Average number of points per batch           ...      111
Average number of grid points per atom       ...      539
UseSFitting                                  ... on

GRIDX 2
-------
General Integration Accuracy     IntAcc      ... 4.020
Radial Grid Type                 RadialGrid  ... OptM3 with GC (2021)
Angular Grid (max. ang.)         AngularGrid ... 2 (Lebedev-110)
Angular grid pruning method      GridPruning ... 4 (adaptive)
Weight generation scheme         WeightScheme... mBecke (2022)
Basis function cutoff            BFCut       ... 1.0000e-11
Integration weight cutoff        WCut        ... 1.0000e-14
Partially contracted basis set               ... on
Rotationally invariant grid construction     ... off
Angular grids for H and He will be reduced by one unit

Total number of grid points                  ...    81362
Total number of batches                      ...      675
Average number of points per batch           ...      120
Average number of grid points per atom       ...     1115
UseSFitting                                  ... on

GRIDX 3
-------
General Integration Accuracy     IntAcc      ... 4.338
Radial Grid Type                 RadialGrid  ... OptM3 with GC (2021)
Angular Grid (max. ang.)         AngularGrid ... 3 (Lebedev-194)
Angular grid pruning method      GridPruning ... 4 (adaptive)
Weight generation scheme         WeightScheme... mBecke (2022)
Basis function cutoff            BFCut       ... 1.0000e-11
Integration weight cutoff        WCut        ... 1.0000e-14
Partially contracted basis set               ... on
Rotationally invariant grid construction     ... off
Angular grids for H and He will be reduced by one unit

Total number of grid points                  ...   176031
Total number of batches                      ...     1418
Average number of points per batch           ...      124
Average number of grid points per atom       ...     2411
UseSFitting                                  ... on
Initializing property integral containers    ... done (  0.0 sec)

SHARK setup successfully completed in   4.3 seconds

Maximum memory used throughout the entire STARTUP-calculation: 96.3 MB


           ************************************************************
           *        Program running with 4 parallel MPI-processes     *
           *              working on a common directory               *
           ************************************************************
-------------------------------------------------------------------------------
                                 ORCA GUESS
                   Start orbitals & Density for SCF / CASSCF
-------------------------------------------------------------------------------

------------
SCF SETTINGS
------------
Hamiltonian:
 Density Functional     Method          .... DFT(GTOs)
 Exchange Functional    Exchange        .... WB97X-V
 Correlation Functional Correlation     .... WB97X-V
 Gradients option       PostSCFGGA      .... off
 Hybrid DFT is turned on
   Fraction HF Exchange ScalHFX         ....  0.167000
   Scaling of DF-GGA-X  ScalDFX         ....  0.000000
   Scaling of DF-GGA-C  ScalDFC         ....  1.000000
   Scaling of DF-LDA-C  ScalLDAC        ....  1.000000
   Perturbative correction              ....  0.000000
 Long-range corrected/Screened/Range-Separated Hybrid DFT is turned on
   Amount of maximum screened exact exchange              ....  0.833000
   Range separation parameter mu (erf(mu*r12)/r12)        ....  0.300000
 RI-approximation to the Coulomb term is turned on
   Number of AuxJ basis functions       .... 1905
   RIJ-COSX (HFX calculated with COS-X)).... on


General Settings:
 Integral files         IntName         .... inpS
 Hartree-Fock type      HFTyp           .... RHF
 Total Charge           Charge          ....    0
 Multiplicity           Mult            ....    1
 Number of Electrons    NEL             ....  220
 Basis Dimension        Dim             ....  626
 Nuclear Repulsion      ENuc            ....   2804.5400454572 Eh

Convergence Acceleration:
 AO-DIIS                CNVDIIS         .... on
   Start iteration      DIISMaxIt       ....    12
   Startup error        DIISStart       ....  0.200000
   # of expansion vecs  DIISMaxEq       ....     5
   Bias factor          DIISBfac        ....   1.050
   Max. coefficient     DIISMaxC        ....  10.000
 MO-DIIS                CNVKDIIS        .... off
 Trust-Rad. Augm. Hess. CNVTRAH         .... auto
   Auto Start mean grad. ratio tolernc. ....  1.125000
   Auto Start start iteration           ....     1
   Auto Start num. interpolation iter.  ....    10
   Max. Number of Micro iterations      ....    24
   Max. Number of Macro iterations      .... Maxiter - #DIIS iter
   Number of Davidson start vectors     ....     2
   Converg. threshold    (grad. norm)   ....   1.000e-04
   Grad. Scal. Fac. for Micro threshold ....   0.100
   Minimum threshold for Micro iter.    ....   1.000e-02
   NR start threshold (gradient norm)   ....   1.000e-04
   Initial trust radius                 ....   0.400
   Minimum AH scaling param. (alpha)    ....   1.000
   Maximum AH scaling param. (alpha)    .... 1000.000
   Quad. conv. algorithm                .... NR
   White noise on init. David. guess    .... on
   Maximum white noise                  ....   0.010
   Pseudo random numbers                .... off
   Inactive MOs                         .... canonical
   Orbital update algorithm             .... Taylor
   Preconditioner                       .... Diag
   Full preconditioner red. dimension   ....   250
 SOSCF                  CNVSOSCF        .... off
 Level Shifting         CNVShift        .... on
   Level shift para.    LevelShift      ....    0.2500
   Turn off err/grad.   ShiftErr        ....    0.0010
 Zerner damping         CNVZerner       .... off
 Static damping         CNVDamp         .... on
   Fraction old density DampFac         ....    0.7000
   Max. Damping (<1)    DampMax         ....    0.9800
   Min. Damping (>=0)   DampMin         ....    0.0000
   Turn off err/grad.   DampErr         ....    0.1000

SCF Procedure:
 Maximum # iterations   MaxIter         ....   125
 SCF integral mode      SCFMode         .... Direct
   Integral package                     .... SHARK and LIBINT hybrid scheme
 Reset frequency        DirectResetFreq ....    20
 Integral Threshold     Thresh          ....  3.000e-11 Eh
 Primitive CutOff       TCut            ....  1.000e-12 Eh

Convergence Tolerance:
 Convergence Check Mode ConvCheckMode   .... Total+1el-Energy
 Convergence forced     ConvForced      .... 0
 Energy Change          TolE            ....  1.000e-07 Eh
 1-El. energy change                    ....  1.000e-04 Eh
 DIIS Error             TolErr          ....  1.000e-07

---------------------
INITIAL GUESS: MOREAD
---------------------
Guess MOs are being read from file: inpS.ges
Input Geometry matches current geometry (good)
Input basis set matches current basis set (good)
Occupation numbers will be reassigned to an Aufbau configuration
MOs were renormalized
MOs were reorthogonalized (Cholesky)
                      ------------------
                      INITIAL GUESS DONE (   0.2 sec)
                      ------------------
             **** ENERGY FILE WAS UPDATED (inpS.en.tmp) ****
Finished Guess after   0.3 sec
Maximum memory used throughout the entire GUESS-calculation: 53.0 MB


           ************************************************************
           *        Program running with 4 parallel MPI-processes     *
           *              working on a common directory               *
           ************************************************************

-------------------------------------------------------------------------------------------
                                      ORCA LEAN-SCF
                              memory conserving SCF solver
-------------------------------------------------------------------------------------------

--------------------
CPCM SOLVATION MODEL
--------------------
CPCM parameters:
  Epsilon                                         ...       4.8030
  Refrac                                          ...       1.4459
  Rsolv                                           ...       1.3000
  Surface type                                    ... GAUSSIAN VDW
  Discretization scheme                           ... Constant charge density
    Threshold for H atoms                         ...       5.0000 (charges/Ang^2)
    Threshold for non-H atoms                     ...       5.0000 (charges/Ang^2)
  Epsilon function type                           ...         CPCM
Solvent:                                          ... CHLOROFORM
Radii:
  Scheme                                          ... Element-dependent radii
  Radius for C  used is    3.8550 Bohr (=   2.0400 Ang.)
  Radius for H  used is    2.4944 Bohr (=   1.3200 Ang.)
  Radius for O  used is    3.4469 Bohr (=   1.8240 Ang.)
Calculating surface                               ...        done! (  0.0s)
Cavity surface points                             ...         5377
Cavity Volume                                     ...    3598.9944
Cavity Surface-area                               ...    1778.9560
Calculating surface distance matrix               ...        done! (  0.2s)
Performing Cholesky decomposition & store         ...        done! (  0.9s)
Overall time for CPCM initialization              ...                 1.1s

----------------------------------------D-I-I-S--------------------------------------------
Iteration    Energy (Eh)           Delta-E    RMSDP     MaxDP     DIISErr   Damp  Time(sec)
-------------------------------------------------------------------------------------------
               ***  Starting incremental Fock matrix formation  ***
    1    -1168.3601168832242365     0.00e+00  3.08e-08  1.95e-06  4.33e-06  0.700  23.7

  HOMO= 109 E= -7.964 eV LUMO=  8.076 eV gap=  16.039 eV
    2    -1168.3601168555205732     2.77e-08  2.64e-08  1.25e-06  2.29e-06  0.700   4.8
                 **** Energy Check signals convergence ****

  HOMO= 109 E= -7.964 eV LUMO=  8.076 eV gap=  16.039 eV

               *****************************************************
               *                     SUCCESS                       *
               *           SCF CONVERGED AFTER   2 CYCLES          *
               *****************************************************

Recomputing exchange energy using gridx3       ... done (   41.245 sec)
Old exchange energy                            :    -56.783310894 Eh
New exchange energy                            :    -56.783244792 Eh
Exchange energy change after final integration :      0.000066102 Eh
Total energy after final integration           :  -1168.360050754 Eh
             **** ENERGY FILE WAS UPDATED (inpS.en.tmp) ****

----------------
TOTAL SCF ENERGY
----------------

Total Energy       :      -1168.36005075369803 Eh          -31792.69329 eV

Components:
Nuclear Repulsion  :       2804.54004545720954 Eh           76315.41444 eV
Electronic Energy  :      -3972.89090334305229 Eh         -108107.85758 eV
One Electron Energy:      -7154.12936034166523 Eh         -194673.75692 eV
Two Electron Energy:       3181.23845699861295 Eh           86565.89934 eV
CPCM Dielectric    :         -0.00925896967762 Eh              -0.25195 eV

Virial components:
Potential Energy   :      -2321.65872111615636 Eh          -63175.54558 eV
Kinetic Energy     :       1153.29867036245832 Eh           31382.85229 eV
Virial Ratio       :          2.01305939283404

DFT components:
N(Alpha)           :      109.999954989406 electrons
N(Beta)            :      109.999954989406 electrons
N(Total)           :      219.999909978812 electrons
E(X)               :     -111.770361051084 Eh       
E(C)               :       -8.953088811922 Eh       
E(XC)              :     -120.723449863006 Eh       

CPCM Solvation Model Properties:
Surface-charge          :         -0.04150529278916
Corrected charge        :          0.00000000000000
Outlying charge corr.   :          0.00006078843662 Eh               0.00165 eV
Free-energy (cav+disp)  :  This term is not implemented in the current solvation scheme

---------------
SCF CONVERGENCE
---------------

  Last Energy change         ...   -2.7704e-08  Tolerance :   1.0000e-07
  Last MAX-Density change    ...    1.2488e-06  Tolerance :   1.0000e-05
  Last RMS-Density change    ...    2.6411e-08  Tolerance :   1.0000e-06
  Last DIIS Error            ...    2.2865e-06  Tolerance :   1.0000e-07


----------------
ORBITAL ENERGIES
----------------

  NO   OCC          E(Eh)            E(eV) 
   0   2.0000     -19.212278      -522.7927 
   1   2.0000     -10.330300      -281.1017 
   2   2.0000     -10.294202      -280.1195 
   3   2.0000     -10.292069      -280.0614 
   4   2.0000     -10.287476      -279.9365 
   5   2.0000     -10.286564      -279.9116 
   6   2.0000     -10.285420      -279.8805 
   7   2.0000     -10.284125      -279.8453 
   8   2.0000     -10.282977      -279.8140 
   9   2.0000     -10.282973      -279.8139 
  10   2.0000     -10.282419      -279.7989 
  11   2.0000     -10.281947      -279.7860 
  12   2.0000     -10.279330      -279.7148 
  13   2.0000     -10.278058      -279.6802 
  14   2.0000     -10.277352      -279.6610 
  15   2.0000     -10.277270      -279.6587 
  16   2.0000     -10.276893      -279.6485 
  17   2.0000     -10.276724      -279.6439 
  18   2.0000     -10.273526      -279.5568 
  19   2.0000     -10.272875      -279.5391 
  20   2.0000     -10.271899      -279.5126 
  21   2.0000     -10.271828      -279.5107 
  22   2.0000     -10.270867      -279.4845 
  23   2.0000     -10.270384      -279.4714 
  24   2.0000     -10.269799      -279.4554 
  25   2.0000     -10.268807      -279.4285 
  26   2.0000     -10.268642      -279.4239 
  27   2.0000     -10.266982      -279.3788 
  28   2.0000     -10.266844      -279.3750 
  29   2.0000      -1.130808       -30.7708 
  30   2.0000      -0.998681       -27.1755 
  31   2.0000      -0.977331       -26.5945 
  32   2.0000      -0.957670       -26.0595 
  33   2.0000      -0.942463       -25.6457 
  34   2.0000      -0.917326       -24.9617 
  35   2.0000      -0.910851       -24.7855 
  36   2.0000      -0.889940       -24.2165 
  37   2.0000      -0.888040       -24.1648 
  38   2.0000      -0.872805       -23.7502 
  39   2.0000      -0.853516       -23.2254 
  40   2.0000      -0.833602       -22.6835 
  41   2.0000      -0.828175       -22.5358 
  42   2.0000      -0.809359       -22.0238 
  43   2.0000      -0.801144       -21.8002 
  44   2.0000      -0.797468       -21.7002 
  45   2.0000      -0.791544       -21.5390 
  46   2.0000      -0.760526       -20.6950 
  47   2.0000      -0.758590       -20.6423 
  48   2.0000      -0.726756       -19.7760 
  49   2.0000      -0.712993       -19.4015 
  50   2.0000      -0.705214       -19.1898 
  51   2.0000      -0.700249       -19.0547 
  52   2.0000      -0.689169       -18.7532 
  53   2.0000      -0.675597       -18.3839 
  54   2.0000      -0.654957       -17.8223 
  55   2.0000      -0.630919       -17.1682 
  56   2.0000      -0.620358       -16.8808 
  57   2.0000      -0.618773       -16.8377 
  58   2.0000      -0.607399       -16.5282 
  59   2.0000      -0.600328       -16.3358 
  60   2.0000      -0.589595       -16.0437 
  61   2.0000      -0.584733       -15.9114 
  62   2.0000      -0.579500       -15.7690 
  63   2.0000      -0.570109       -15.5134 
  64   2.0000      -0.563541       -15.3347 
  65   2.0000      -0.558840       -15.2068 
  66   2.0000      -0.555515       -15.1163 
  67   2.0000      -0.550097       -14.9689 
  68   2.0000      -0.548840       -14.9347 
  69   2.0000      -0.540986       -14.7210 
  70   2.0000      -0.539013       -14.6673 
  71   2.0000      -0.532891       -14.5007 
  72   2.0000      -0.526402       -14.3241 
  73   2.0000      -0.522911       -14.2291 
  74   2.0000      -0.519762       -14.1434 
  75   2.0000      -0.513838       -13.9822 
  76   2.0000      -0.507717       -13.8157 
  77   2.0000      -0.502951       -13.6860 
  78   2.0000      -0.498304       -13.5595 
  79   2.0000      -0.492804       -13.4099 
  80   2.0000      -0.488513       -13.2931 
  81   2.0000      -0.486873       -13.2485 
  82   2.0000      -0.484877       -13.1942 
  83   2.0000      -0.477741       -13.0000 
  84   2.0000      -0.472117       -12.8470 
  85   2.0000      -0.467452       -12.7200 
  86   2.0000      -0.462250       -12.5785 
  87   2.0000      -0.459513       -12.5040 
  88   2.0000      -0.455352       -12.3908 
  89   2.0000      -0.451638       -12.2897 
  90   2.0000      -0.449126       -12.2213 
  91   2.0000      -0.444466       -12.0945 
  92   2.0000      -0.442997       -12.0545 
  93   2.0000      -0.434681       -11.8283 
  94   2.0000      -0.428688       -11.6652 
  95   2.0000      -0.424004       -11.5377 
  96   2.0000      -0.422471       -11.4960 
  97   2.0000      -0.419728       -11.4214 
  98   2.0000      -0.418172       -11.3790 
  99   2.0000      -0.413597       -11.2545 
 100   2.0000      -0.410567       -11.1721 
 101   2.0000      -0.406319       -11.0565 
 102   2.0000      -0.405422       -11.0321 
 103   2.0000      -0.399962       -10.8835 
 104   2.0000      -0.392083       -10.6691 
 105   2.0000      -0.380953       -10.3662 
 106   2.0000      -0.372636       -10.1399 
 107   2.0000      -0.355275        -9.6675 
 108   2.0000      -0.336364        -9.1529 
 109   2.0000      -0.292660        -7.9637 
 110   0.0000       0.046775         1.2728 
 111   0.0000       0.099471         2.7068 
 112   0.0000       0.107679         2.9301 
 113   0.0000       0.129635         3.5275 
 114   0.0000       0.142634         3.8813 
 115   0.0000       0.143653         3.9090 
 116   0.0000       0.150724         4.1014 
 117   0.0000       0.152800         4.1579 
 118   0.0000       0.160125         4.3572 
 119   0.0000       0.162278         4.4158 
 120   0.0000       0.168551         4.5865 
*Only the first 10 virtual orbitals were printed.

                    ********************************
                    * MULLIKEN POPULATION ANALYSIS *
                    ********************************

-----------------------
MULLIKEN ATOMIC CHARGES
-----------------------
   0 C :   -0.174452
   1 C :    0.142062
   2 C :    0.068254
   3 H :    0.017370
   4 H :    0.030533
   5 C :   -0.171657
   6 C :    0.096584
   7 C :    0.024111
   8 H :    0.013562
   9 H :    0.027281
  10 H :    0.019782
  11 H :    0.022550
  12 O :   -0.359335
  13 H :    0.018139
  14 C :   -0.007574
  15 C :   -0.045557
  16 H :    0.035163
  17 H :    0.029362
  18 C :   -0.063170
  19 H :   -0.002805
  20 C :   -0.113998
  21 H :    0.003424
  22 C :    0.115394
  23 C :   -0.002509
  24 H :    0.014266
  25 H :    0.017270
  26 C :    0.107400
  27 H :    0.013190
  28 H :    0.015481
  29 C :   -0.421079
  30 H :    0.008894
  31 H :   -0.002201
  32 C :   -0.038922
  33 H :    0.010038
  34 C :    0.110590
  35 H :    0.179113
  36 C :    0.072123
  37 H :    0.007584
  38 H :    0.015070
  39 C :   -0.037433
  40 H :    0.010389
  41 H :    0.000061
  42 H :   -0.000825
  43 C :   -0.000574
  44 C :    0.093856
  45 H :    0.020743
  46 H :    0.024587
  47 H :    0.016772
  48 H :    0.005682
  49 C :    0.050407
  50 C :   -0.096482
  51 C :   -0.076251
  52 H :    0.009720
  53 H :    0.019729
  54 C :   -0.062101
  55 C :    0.051624
  56 C :   -0.167242
  57 H :    0.013551
  58 H :    0.012187
  59 C :    0.020225
  60 C :    0.026836
  61 H :    0.025084
  62 H :    0.016520
  63 H :    0.020368
  64 H :    0.020144
  65 H :    0.016498
  66 H :    0.017778
  67 H :    0.016777
  68 H :    0.020088
  69 H :    0.020261
  70 H :    0.030575
  71 H :    0.016117
  72 H :    0.012996
Sum of atomic charges:    0.0000000

--------------------------------
MULLIKEN REDUCED ORBITAL CHARGES
--------------------------------
  0 C s       :     3.102550  s :     3.102550
      pz      :     1.013754  p :     3.028851
      px      :     1.004024
      py      :     1.011072
      dz2     :     0.005989  d :     0.043051
      dxz     :     0.006427
      dyz     :     0.005890
      dx2y2   :     0.013399
      dxy     :     0.011347

  1 C s       :     2.939758  s :     2.939758
      pz      :     0.991246  p :     2.883775
      px      :     0.928433
      py      :     0.964096
      dz2     :     0.008389  d :     0.034404
      dxz     :     0.005942
      dyz     :     0.003820
      dx2y2   :     0.009639
      dxy     :     0.006613

  2 C s       :     3.085043  s :     3.085043
      pz      :     0.731670  p :     2.776032
      px      :     1.048875
      py      :     0.995488
      dz2     :     0.023449  d :     0.070671
      dxz     :     0.011255
      dyz     :     0.017472
      dx2y2   :     0.010692
      dxy     :     0.007803

  3 H s       :     0.959974  s :     0.959974
      pz      :     0.005383  p :     0.022656
      px      :     0.003672
      py      :     0.013601

  4 H s       :     0.946155  s :     0.946155
      pz      :     0.014652  p :     0.023312
      px      :     0.004340
      py      :     0.004321

  5 C s       :     3.109096  s :     3.109096
      pz      :     0.972186  p :     3.017740
      px      :     0.990443
      py      :     1.055112
      dz2     :     0.009212  d :     0.044821
      dxz     :     0.005580
      dyz     :     0.008463
      dx2y2   :     0.011206
      dxy     :     0.010360

  6 C s       :     2.954445  s :     2.954445
      pz      :     1.004771  p :     2.913521
      px      :     0.942449
      py      :     0.966301
      dz2     :     0.009007  d :     0.035450
      dxz     :     0.005592
      dyz     :     0.004478
      dx2y2   :     0.008579
      dxy     :     0.007793

  7 C s       :     3.002157  s :     3.002157
      pz      :     0.984607  p :     2.938944
      px      :     0.982416
      py      :     0.971921
      dz2     :     0.008120  d :     0.034788
      dxz     :     0.005627
      dyz     :     0.004425
      dx2y2   :     0.008170
      dxy     :     0.008445

  8 H s       :     0.963603  s :     0.963603
      pz      :     0.006131  p :     0.022835
      px      :     0.003742
      py      :     0.012961

  9 H s       :     0.949326  s :     0.949326
      pz      :     0.014588  p :     0.023393
      px      :     0.004332
      py      :     0.004473

 10 H s       :     0.957390  s :     0.957390
      pz      :     0.014384  p :     0.022828
      px      :     0.004428
      py      :     0.004016

 11 H s       :     0.954819  s :     0.954819
      pz      :     0.007222  p :     0.022632
      px      :     0.007851
      py      :     0.007558

 12 O s       :     3.713400  s :     3.713400
      pz      :     1.378321  p :     4.633801
      px      :     1.360973
      py      :     1.894507
      dz2     :     0.005324  d :     0.012134
      dxz     :     0.001509
      dyz     :     0.001524
      dx2y2   :     0.003193
      dxy     :     0.000583

 13 H s       :     0.961514  s :     0.961514
      pz      :     0.001973  p :     0.020347
      px      :     0.013813
      py      :     0.004561

 14 C s       :     3.194582  s :     3.194582
      pz      :     0.992554  p :     2.776629
      px      :     0.874724
      py      :     0.909351
      dz2     :     0.004838  d :     0.036362
      dxz     :     0.007486
      dyz     :     0.003342
      dx2y2   :     0.010637
      dxy     :     0.010059

 15 C s       :     3.123482  s :     3.123482
      pz      :     1.011441  p :     2.895803
      px      :     0.978959
      py      :     0.905404
      dz2     :     0.005161  d :     0.026272
      dxz     :     0.004108
      dyz     :     0.004224
      dx2y2   :     0.006551
      dxy     :     0.006228

 16 H s       :     0.940294  s :     0.940294
      pz      :     0.006159  p :     0.024543
      px      :     0.008947
      py      :     0.009437

 17 H s       :     0.946022  s :     0.946022
      pz      :     0.005152  p :     0.024617
      px      :     0.004320
      py      :     0.015145

 18 C s       :     3.200582  s :     3.200582
      pz      :     1.029329  p :     2.827401
      px      :     0.887424
      py      :     0.910648
      dz2     :     0.004232  d :     0.035187
      dxz     :     0.006697
      dyz     :     0.003217
      dx2y2   :     0.011672
      dxy     :     0.009369

 19 H s       :     0.978494  s :     0.978494
      pz      :     0.004847  p :     0.024311
      px      :     0.004762
      py      :     0.014702

 20 C s       :     3.099437  s :     3.099437
      pz      :     0.960635  p :     2.970442
      px      :     0.980906
      py      :     1.028901
      dz2     :     0.005486  d :     0.044119
      dxz     :     0.006878
      dyz     :     0.006803
      dx2y2   :     0.013485
      dxy     :     0.011467

 21 H s       :     0.972016  s :     0.972016
      pz      :     0.004718  p :     0.024560
      px      :     0.004293
      py      :     0.015549

 22 C s       :     2.924805  s :     2.924805
      pz      :     1.002999  p :     2.924297
      px      :     0.977501
      py      :     0.943796
      dz2     :     0.010119  d :     0.035505
      dxz     :     0.003812
      dyz     :     0.004977
      dx2y2   :     0.009481
      dxy     :     0.007116

 23 C s       :     3.001410  s :     3.001410
      pz      :     1.011541  p :     2.964654
      px      :     0.961638
      py      :     0.991476
      dz2     :     0.010344  d :     0.036445
      dxz     :     0.006459
      dyz     :     0.003107
      dx2y2   :     0.009945
      dxy     :     0.006590

 24 H s       :     0.962534  s :     0.962534
      pz      :     0.005256  p :     0.023200
      px      :     0.012920
      py      :     0.005023

 25 H s       :     0.959448  s :     0.959448
      pz      :     0.014463  p :     0.023283
      px      :     0.004522
      py      :     0.004298

 26 C s       :     2.969194  s :     2.969194
      pz      :     0.971696  p :     2.888070
      px      :     0.975373
      py      :     0.941000
      dz2     :     0.008450  d :     0.035336
      dxz     :     0.005628
      dyz     :     0.004843
      dx2y2   :     0.008095
      dxy     :     0.008321

 27 H s       :     0.963954  s :     0.963954
      pz      :     0.014420  p :     0.022856
      px      :     0.003914
      py      :     0.004522

 28 H s       :     0.961877  s :     0.961877
      pz      :     0.005212  p :     0.022642
      px      :     0.003731
      py      :     0.013699

 29 C s       :     3.260123  s :     3.260123
      pz      :     1.057534  p :     3.109966
      px      :     0.998596
      py      :     1.053836
      dz2     :     0.012258  d :     0.050989
      dxz     :     0.010073
      dyz     :     0.009105
      dx2y2   :     0.010181
      dxy     :     0.009372

 30 H s       :     0.968060  s :     0.968060
      pz      :     0.007545  p :     0.023046
      px      :     0.008736
      py      :     0.006765

 31 H s       :     0.979673  s :     0.979673
      pz      :     0.014044  p :     0.022528
      px      :     0.004467
      py      :     0.004018

 32 C s       :     3.033179  s :     3.033179
      pz      :     0.996370  p :     2.961914
      px      :     0.939964
      py      :     1.025580
      dz2     :     0.009942  d :     0.043828
      dxz     :     0.006479
      dyz     :     0.006729
      dx2y2   :     0.011072
      dxy     :     0.009607

 33 H s       :     0.968692  s :     0.968692
      pz      :     0.013532  p :     0.021270
      px      :     0.003820
      py      :     0.003918

 34 C s       :     2.905533  s :     2.905533
      pz      :     0.990554  p :     2.948854
      px      :     0.983434
      py      :     0.974866
      dz2     :     0.005939  d :     0.035023
      dxz     :     0.005956
      dyz     :     0.007627
      dx2y2   :     0.009150
      dxy     :     0.006351

 35 H s       :     0.752106  s :     0.752106
[...]
 Total          138.371          176.378          190.789  iso=     168.513

 Orientation: 
  X           0.1831868   -0.5776966    0.7954302
  Y           0.0172621   -0.8071071   -0.5901526
  Z           0.9829266    0.1218390   -0.1378791

 --------------
 Nucleus  39C :
 --------------

Diamagnetic contribution to the shielding tensor (ppm) : 
           266.946          4.846        -6.397
             2.367        270.269         6.189
            -5.296          3.821       255.978

Paramagnetic contribution to the shielding tensor (ppm): 
          -103.540         -6.002        11.985
             7.315       -122.192         2.616
            17.792         -0.308      -125.975

Total shielding tensor (ppm): 
           163.407         -1.157         5.588
             9.681        148.077         8.805
            12.496          3.513       130.003


 Diagonalized sT*s matrix:
 
 sDSO           257.527          269.565          266.101  iso=     264.398
 sPSO          -130.983         -122.013          -98.711  iso=    -117.236
        ---------------  ---------------  ---------------
 Total          126.544          147.552          167.390  iso=     147.162

 Orientation: 
  X          -0.1999743   -0.3189623   -0.9264304
  Y          -0.2379963    0.9330238   -0.2698598
  Z           0.9504568    0.1665220   -0.2624926

 --------------
 Nucleus  43C :
 --------------

Diamagnetic contribution to the shielding tensor (ppm) : 
           260.353          0.147        -3.602
            -4.388        257.950         7.031
            -0.343          7.778       240.209

Paramagnetic contribution to the shielding tensor (ppm): 
           -90.372         -8.337        -1.288
             0.578        -97.330        -4.612
             0.009        -10.179       -92.451

Total shielding tensor (ppm): 
           169.981         -8.190        -4.890
            -3.810        160.620         2.420
            -0.334         -2.401       147.758


 Diagonalized sT*s matrix:
 
 sDSO           240.775          255.378          262.359  iso=     252.837
 sPSO           -93.356          -97.563          -89.234  iso=     -93.384
        ---------------  ---------------  ---------------
 Total          147.418          157.815          173.126  iso=     159.453

 Orientation: 
  X           0.1364327   -0.4272396    0.8937854
  Y           0.0484622   -0.8982632   -0.4367776
  Z           0.9894632    0.1029056   -0.1018475

 --------------
 Nucleus  44C :
 --------------

Diamagnetic contribution to the shielding tensor (ppm) : 
           250.588          0.733        -0.353
            -0.208        257.122        -0.132
            -0.536          4.480       270.386

Paramagnetic contribution to the shielding tensor (ppm): 
           -71.460         -4.567        -0.769
            -2.910        -78.454        -1.632
             0.157         -6.434       -76.551

Total shielding tensor (ppm): 
           179.128         -3.834        -1.122
            -3.118        178.668        -1.764
            -0.379         -1.954       193.835


 Diagonalized sT*s matrix:
 
 sDSO           254.810          253.560          269.726  iso=     259.365
 sPSO           -79.584          -71.222          -75.659  iso=     -75.489
        ---------------  ---------------  ---------------
 Total          175.226          182.338          194.067  iso=     183.877

 Orientation: 
  X           0.6732876    0.7390432   -0.0223386
  Y           0.7326040   -0.6708933   -0.1148637
  Z           0.0998761   -0.0609709    0.9931301

 --------------
 Nucleus  49C :
 --------------

Diamagnetic contribution to the shielding tensor (ppm) : 
           244.320         -6.730        -2.443
           -18.740        259.463         1.078
            -3.956          6.605       241.543

Paramagnetic contribution to the shielding tensor (ppm): 
           -75.983          1.062         1.304
            17.298        -73.563         7.731
             6.074         -1.076       -71.692

Total shielding tensor (ppm): 
           168.336         -5.669        -1.140
            -1.443        185.900         8.809
             2.118          5.529       169.852


 Diagonalized sT*s matrix:
 
 sDSO           240.110          242.035          263.180  iso=     248.442
 sPSO           -74.370          -72.802          -74.066  iso=     -73.746
        ---------------  ---------------  ---------------
 Total          165.740          169.233          189.114  iso=     174.696

 Orientation: 
  X           0.6194971    0.7717164   -0.1437956
  Y           0.3573578   -0.1141462    0.9269660
  Z          -0.6989412    0.6256392    0.3464921

 --------------
 Nucleus  50C :
 --------------

Diamagnetic contribution to the shielding tensor (ppm) : 
           268.684          9.474         1.720
            17.504        234.418         6.061
            -2.023         11.998       272.808

Paramagnetic contribution to the shielding tensor (ppm): 
          -274.157        -76.737        43.785
           -84.492        -97.212        -1.702
            35.700         -7.516      -217.798

Total shielding tensor (ppm): 
            -5.473        -67.263        45.505
           -66.988        137.205         4.359
            33.677          4.482        55.010


 Diagonalized sT*s matrix:
 
 sDSO           272.442          274.940          228.528  iso=     258.637
 sPSO          -313.175         -212.318          -63.674  iso=    -196.389
        ---------------  ---------------  ---------------
 Total          -40.733           62.622          164.854  iso=      62.248

 Orientation: 
  X           0.9226704    0.0816066    0.3768550
  Y           0.3616036    0.1561997   -0.9191542
  Z          -0.1338737    0.9843485    0.1146116

 --------------
 Nucleus  51C :
 --------------

Diamagnetic contribution to the shielding tensor (ppm) : 
           269.916         13.398        -1.771
             5.247        258.802         2.200
             2.532         -3.575       287.485

Paramagnetic contribution to the shielding tensor (ppm): 
          -266.864        -82.293        39.134
           -82.341       -119.570       -18.549
            30.898         -3.601      -221.137

Total shielding tensor (ppm): 
             3.052        -68.896        37.363
           -77.094        139.231       -16.349
            33.430         -7.175        66.348


 Diagonalized sT*s matrix:
 
 sDSO           275.673          284.564          255.965  iso=     272.068
 sPSO          -311.959         -216.292          -79.320  iso=    -202.524
        ---------------  ---------------  ---------------
 Total          -36.286           68.273          176.645  iso=      69.544

 Orientation: 
  X           0.8913114    0.1250707    0.4357996
  Y           0.3775302    0.3275340   -0.8661365
  Z          -0.2510675    0.9365249    0.2447168

 --------------
 Nucleus  54C :
 --------------

Diamagnetic contribution to the shielding tensor (ppm) : 
           255.942          5.702         2.658
             8.205        232.994        -2.428
            -0.358         -5.551       252.686

Paramagnetic contribution to the shielding tensor (ppm): 
           -98.276        -10.128         2.424
            -9.408        -65.573        -4.353
             1.928         -2.401       -98.482

Total shielding tensor (ppm): 
           157.666         -4.426         5.082
            -1.203        167.420        -6.781
             1.570         -7.951       154.204


 Diagonalized sT*s matrix:
 
 sDSO           246.274          257.429          237.918  iso=     247.207
 sPSO           -95.904         -100.320          -66.108  iso=     -87.444
        ---------------  ---------------  ---------------
 Total          150.370          157.110          171.810  iso=     159.763

 Orientation: 
  X          -0.2803984   -0.9229000    0.2638794
  Y           0.3422273   -0.3529604   -0.8708039
  Z           0.8968039   -0.1538653    0.4148111

 --------------
 Nucleus  55C :
 --------------

Diamagnetic contribution to the shielding tensor (ppm) : 
           255.954          3.968        -2.649
            20.159        225.544         6.201
           -19.049          0.113       240.324

Paramagnetic contribution to the shielding tensor (ppm): 
           -70.369          5.043        -0.487
           -13.137        -50.500       -14.518
            18.539        -10.363       -60.518

Total shielding tensor (ppm): 
           185.585          9.011        -3.136
             7.022        175.044        -8.317
            -0.510        -10.249       179.807


 Diagonalized sT*s matrix:
 
 sDSO           232.316          231.735          257.771  iso=     240.607
 sPSO           -66.041          -50.764          -64.580  iso=     -60.462
        ---------------  ---------------  ---------------
 Total          166.275          180.971          193.190  iso=     180.145

 Orientation: 
  X          -0.2866387    0.6677865    0.6869494
  Y           0.8054024   -0.2203353    0.5502538
  Z           0.5188113    0.7109947   -0.4746802

 --------------
 Nucleus  56C :
 --------------

Diamagnetic contribution to the shielding tensor (ppm) : 
           243.212         -5.437        -3.588
            -8.296        241.231        -5.861
             2.074         -5.737       250.977

Paramagnetic contribution to the shielding tensor (ppm): 
           -78.050          4.965         9.686
             8.715        -80.950        -6.119
             1.414          0.457       -80.319

Total shielding tensor (ppm): 
           165.163         -0.472         6.098
             0.419        160.281       -11.979
             3.489         -5.280       170.658


 Diagonalized sT*s matrix:
 
 sDSO           241.889          239.516          254.015  iso=     245.140
 sPSO           -87.062          -75.284          -76.973  iso=     -79.773
        ---------------  ---------------  ---------------
 Total          154.827          164.232          177.042  iso=     165.367

 Orientation: 
  X          -0.2390475    0.9118075    0.3338614
  Y           0.8261926    0.3716406   -0.4234254
  Z           0.5101589   -0.1746150    0.8421683

 --------------
 Nucleus  59C :
 --------------

Diamagnetic contribution to the shielding tensor (ppm) : 
           245.034         -8.615         1.316
           -22.974        239.912        -4.812
             2.023          4.399       239.758

Paramagnetic contribution to the shielding tensor (ppm): 
           -65.133          3.593        -5.963
            14.114        -53.294        13.858
            -6.630          1.519       -59.834

Total shielding tensor (ppm): 
           179.901         -5.022        -4.646
            -8.860        186.617         9.046
            -4.607          5.917       179.924


 Diagonalized sT*s matrix:
 
 sDSO           243.421          230.298          250.984  iso=     241.568
 sPSO           -68.366          -54.744          -55.152  iso=     -59.421
        ---------------  ---------------  ---------------
 Total          175.056          175.554          195.833  iso=     182.147

 Orientation: 
  X          -0.1900068    0.8632419   -0.4676653
  Y           0.4541401    0.4995971    0.7376717
  Z          -0.8704333    0.0722229    0.4869596

 --------------
 Nucleus  60C :
 --------------

Diamagnetic contribution to the shielding tensor (ppm) : 
           242.457          1.497        -9.366
            -3.035        240.269        -4.746
             6.218         -4.666       259.695

Paramagnetic contribution to the shielding tensor (ppm): 
           -69.681         -8.107        -8.692
            -0.815        -70.186        -0.187
           -22.806          6.440       -76.782

Total shielding tensor (ppm): 
           172.776         -6.610       -18.057
            -3.850        170.083        -4.933
           -16.588          1.774       182.912


 Diagonalized sT*s matrix:
 
 sDSO           243.390          244.800          254.231  iso=     247.474
 sPSO           -85.729          -72.718          -58.201  iso=     -72.216
        ---------------  ---------------  ---------------
 Total          157.661          172.081          196.030  iso=     175.257

 Orientation: 
  X           0.7529577    0.2609686   -0.6041110
  Y           0.3854490   -0.9189483    0.0834451
  Z           0.5333702    0.2956846    0.7925193



--------------------------------
CHEMICAL SHIELDING SUMMARY (ppm)
--------------------------------


  Nucleus  Element    Isotropic     Anisotropy
  -------  -------  ------------   ------------
      0       C           61.290        152.004 
      1       C          154.516         11.995 
      2       C          132.354         50.782 
      5       C           50.740        177.623 
      6       C          167.924         31.929 
      7       C          164.906         17.296 
     14       C           71.957        133.285 
     15       C           83.893        119.477 
     18       C           79.930        133.627 
     20       C           52.073        175.728 
     22       C          169.348          6.936 
     23       C          174.323         12.936 
     26       C          158.713         24.145 
     29       C          154.445         16.857 
     32       C          143.078         27.345 
     34       C          174.071         23.188 
     36       C          168.513         33.414 
     39       C          147.162         30.342 
     43       C          159.453         20.509 
     44       C          183.877         15.285 
     49       C          174.696         21.628 
     50       C           62.248        153.909 
     51       C           69.544        160.652 
     54       C          159.763         18.071 
     55       C          180.145         19.567 
     56       C          165.367         17.513 
     59       C          182.147         20.528 
     60       C          175.257         31.159 


NMR shielding tensor and spin rotation calculation done in   1.1 sec 

Maximum memory used throughout the entire PROP-calculation: 52.4 MB

--------------------------------
SUGGESTED CITATIONS FOR THIS RUN
--------------------------------

Below you find a list of papers that are relevant to this ORCA run
We neither can nor want to force you to cite these papers, but we appreciate if you do
You receive ORCA, which is the product of decades of hard work by many enthusiastic individuals, for free
The only thing we kindly ask in return is that you cite our papers,
We deeply appreciate it, if you show your appreciation for ORCA by not just citing the generic ORCA reference.

Please note that relegating all ORCA citations to the supporting information does *not* help us.
SI sections are not indexed - citations you put there will not count into any citation statistics
But we need these citations in order to attract the funding resources that allow us to do what we are doing

Therefore, if you are a happy ORCA user, please consider citing a few of the papers listed below in the main body of your paper

In addition to the list printed below, the program has created the file inpS.bibtex that contains the list in bibtex format
You can import this file easily into all common literature databanks and citation aid programs


List of essential papers. We consider these as the minimum necessary citations

  1. Neese,F.
     Software update: the ORCA program system, version 5.0
     WIRES Comput. Molec. Sci., 2022 12(1)e1606
     doi.org/10.1002/wcms.1606

List of papers to cite with high priority. The work reported in these papers was absolutely
necessary for this run to complete.
Our perspective: the developers of density functionals and basis sets usually get cited in chemistry papers
Good! But without the algorithms to do something with them, the functionals or basis sets would not do anything.
Hence, in our opinion, the algorithm design and method developments papers are equally worthy of getting cited

  1. Neese,F.
     An improvement of the resolution of the identity approximation for the formation of the Coulomb matrix
     J. Comp. Chem., 2003 24(14)1740-1747
     doi.org/10.1002/jcc.10318
  2. Neese,F.; Wennmohs,F.; Hansen,A.; Becker,U.
     Efficient, approximate and parallel Hartree-Fock and hybrid DFT calculations. A 'chain-of-spheres' algorithm for the Hartree-Fock exchange
     Chem. Phys., 2009 356(1-3)98-109
     doi.org/10.1016/j.chemphys.2008.10.036
  3. Stoychev,G.L.; Auer,A.A.; Izsak,R.; Neese,F.
     Self-Consistent Field Calculation of Nuclear Magnetic Resonance Chemical Shielding Constants Using Gauge-Including Atomic Orbitals and Approximate Two-Electron Integrals
     J. Chem. Theory Comput., 2018 14(2)619-637
     doi.org/10.1021/acs.jctc.7b01006
  4. Garcia-Rates,M.; Neese,F.
     Effect of the Solute Cavity on the Solvation Energy and its Derivatives within the Framework of the Gaussian Charge Scheme
     J. Comput. Chem., 2020 41 922-939
     doi.org/10.1002/jcc.26139
  5. Helmich-Paris,B.; de Souza,B.; Neese,F.; Izsák,R.
     An improved chain of spheres for exchange algorithm
     J. Chem. Phys., 2021 155 104109
     doi.org/doi: 10.1063/5.0058766.
  6. Neese,F.
     The SHARK Integral Generation and Digestion System
     J. Comp. Chem., 2022  1-16
     doi.org/10.1002/jcc.26942
  7. Caldeweyher,E.; Bannwarth,C.; Grimme,S.
     Extension of the D3 dispersion coefficient model
     J. Chem. Phys., 2017 147 034112-XXXX
     doi.org/10.1063/1.4993215
  8. Caldeweyher,E.; Ehlert,S.; Hansen,A.; Neugebauer,H.; Spicher,S.; Bannwarth,C.; Grimme,S.
     A generally applicable atomic-charge dependent London dispersion correction
     J. Chem. Phys., 2019 150 154122-XXXX
     doi.org/10.1063/1.5090222
  9. Caldeweyher,E.; Mewes,J.; Ehlert,S.; Grimme,S.
     Extension and evaluation of the D4 London-dispersion model for periodic systems
     Phys. Chem. Chem. Phys., 2020 22(16)8499-8512
     doi.org/10.1039/D0CP00502A

List of suggested additional citations. These are papers that are important in the 'surrounding' of 
of this run, or papers that preceded the highly important papers. If you like your results we are grateful for a citation.

  1. Izsak,R.; Neese,F.
     An overlap fitted chain of spheres exchange method
     J. Chem. Phys., 2011 135 144105
     doi.org/10.1063/1.3646921
  2. Izsak,R.; Hansen,A.; Neese,F.
     The resolution of identity and chain of spheres approximations for the LPNO-CCSD singles Fock term
     Molec. Phys., 2012 110 2413-2417
     doi.org/10.1080/00268976.2012.687466
  3. Neese,F.
     The ORCA program system
     WIRES Comput. Molec. Sci., 2012 2(1)73-78
     doi.org/10.1002/wcms.81
  4. Izsak,R.; Neese,F.; Klopper,W.
     Robust fitting techniques in the chain of spheres approximation to the Fock exchange: The role of the complementary space
     J. Chem. Phys., 2013 139 
     doi.org/10.1063/1.4819264
  5. Neese,F.
     Software update: the ORCA program system, version 4.0
     WIRES Comput. Molec. Sci., 2018 8(1)1-6
     doi.org/10.1002/wcms.1327
  6. Neese,F.; Wennmohs,F.; Becker,U.; Riplinger,C.
     The ORCA quantum chemistry program package
     J. Chem. Phys., 2020 152 Art. No. L224108
     doi.org/10.1063/5.0004608

Timings for individual modules:

Sum of individual times          ...      179.999 sec (=   3.000 min)
Startup calculation              ...        4.487 sec (=   0.075 min)   2.5 %
SCF iterations                   ...       72.221 sec (=   1.204 min)  40.1 %
Property integrals               ...       61.843 sec (=   1.031 min)  34.4 %
SCF Response                     ...       40.051 sec (=   0.668 min)  22.3 %
Property calculations            ...        1.398 sec (=   0.023 min)   0.8 %
                             ****ORCA TERMINATED NORMALLY****
TOTAL RUN TIME: 0 days 0 hours 3 minutes 0 seconds 270 msec
