
                                 *****************
                                 * O   R   C   A *
                                 *****************

                                            #,                                       
                                            ###                                      
                                            ####                                     
                                            #####                                    
                                            ######                                   
                                           ########,                                 
                                     ,,################,,,,,                         
                               ,,#################################,,                 
                          ,,##########################################,,             
                       ,#########################################, ''#####,          
                    ,#############################################,,   '####,        
                  ,##################################################,,,,####,       
                ,###########''''           ''''###############################       
              ,#####''   ,,,,##########,,,,          '''####'''          '####       
            ,##' ,,,,###########################,,,                        '##       
           ' ,,###''''                  '''############,,,                           
         ,,##''                                '''############,,,,        ,,,,,,###''
      ,#''                                            '''#######################'''  
     '                                                          ''''####''''         
             ,#######,   #######,   ,#######,      ##                                
            ,#'     '#,  ##    ##  ,#'     '#,    #''#        ,####,   ,####,        
            ##       ##  ##   ,#'  ##            #'  '#       #'       #'  '#        
            ##       ##  #######   ##           ,######,      #####,   #    #        
            '#,     ,#'  ##    ##  '#,     ,#' ,#      #,     #,   #   #,  ,#        
             '#######'   ##     ##  '#######'  #'      '#     '####' # '####'        



                #########################################################
                #                        -***-                          #
                #          Department of theory and spectroscopy        #
                #                                                       #
                #                      Frank Neese                      #
                #                                                       #
                #     Directorship, Architecture, Infrastructure        #
                #                    SHARK, DRIVERS                     #
                #        Core code/Algorithms in most modules           #
                #                                                       #
                #        Max Planck Institute fuer Kohlenforschung      #
                #                Kaiser Wilhelm Platz 1                 #
                #                 D-45470 Muelheim/Ruhr                 #
                #                      Germany                          #
                #                                                       #
                #                  All rights reserved                  #
                #                        -***-                          #
                #########################################################


                         Program Version 6.0.0  -   RELEASE  -


 With contributions from (in alphabetic order):
   Daniel Aravena         : Magnetic Suceptibility
   Michael Atanasov       : Ab Initio Ligand Field Theory (pilot matlab implementation)
   Alexander A. Auer      : GIAO ZORA, VPT2 properties, NMR spectrum
   Ute Becker             : All parallelization in ORCA, NUMFREQ, NUMCALC
   Giovanni Bistoni       : ED, misc. LED, open-shell LED, HFLD
   Martin Brehm           : Molecular dynamics
   Dmytro Bykov           : pre 5.0 version of the SCF Hessian
   Marcos Casanova-Páez   : Triplet and SCS-CIS(D). UHF-(DLPNO)-IP/EA/STEOM-CCSD. UHF-CVS-IP/STEOM-CCSD
   Vijay G. Chilkuri      : MRCI spin determinant printing, contributions to CSF-ICE
   Pauline Colinet        : FMM embedding
   Dipayan Datta          : RHF DLPNO-CCSD density
   Achintya Kumar Dutta   : EOM-CC, STEOM-CC
   Nicolas Foglia         : Exact transition moments, OPA infrastructure, MCD improvements
   Dmitry Ganyushin       : Spin-Orbit,Spin-Spin,Magnetic field MRCI
   Miquel Garcia          : C-PCM and meta-GGA Hessian, CCSD/C-PCM, Gaussian charge scheme
   Tiago L. C. Gouveia    : GS-ROHF, GS-ROCIS
   Yang Guo               : DLPNO-NEVPT2, F12-NEVPT2, CIM, IAO-localization
   Andreas Hansen         : Spin unrestricted coupled pair/coupled cluster methods
   Ingolf Harden          : AUTO-CI MPn and infrastructure 
   Benjamin Helmich-Paris : MC-RPA, TRAH-(SCF,CASSCF), AVAS, COSX integrals, SCF dyn. polar.
   Lee Huntington         : MR-EOM, pCC
   Robert Izsak           : Overlap fitted RIJCOSX, COSX-SCS-MP3, EOM
   Riya Kayal             : Wick's Theorem for AUTO-CI, AUTO-CI UHF-CCSDT
   Emily Kempfer          : AUTO-CI, RHF CISDT and CCSDT
   Christian Kollmar      : KDIIS, OOCD, Brueckner-CCSD(T), CCSD density, CASPT2, CASPT2-K, improved NEVPT2
   Axel Koslowski         : Symmetry handling
   Simone Kossmann        : Meta GGA functionals, TD-DFT gradient, OOMP2, (MP2 Hessian; deprecated post 5.0)
   Lucas Lang             : DCDCAS
   Marvin Lechner         : AUTO-CI (C++ implementation), FIC-MRCC
   Spencer Leger          : CASSCF response
   Dagmar Lenk            : GEPOL surface, SMD, ORCA-2-JSON
   Dimitrios Liakos       : Extrapolation schemes; Compound Job, initial MDCI parallelization
   Dimitrios Manganas     : Further ROCIS development; embedding schemes. LFT, Crystal Embedding
   Dimitrios Pantazis     : SARC Basis sets
   Anastasios Papadopoulos: AUTO-CI, single reference methods and gradients
   Taras Petrenko         : pre 6.0 DFT Hessian and TD-DFT gradient, (ASA, deprecated), ECA, 1-Electron XAS/XES, NRVS
   Peter Pinski           : DLPNO-MP2, DLPNO-MP2 Gradient
   Christoph Reimann      : Effective Core Potentials
   Marius Retegan         : Local ZFS, SOC
   Christoph Riplinger    : Optimizer, TS searches, QM/MM, DLPNO-CCSD(T), (RO)-DLPNO pert. Triples
   Michael Roemelt        : Original ROCIS implementation
   Masaaki Saitow         : Open-shell DLPNO-CCSD energy and density
   Barbara Sandhoefer     : DKH picture change effects
   Kantharuban Sivalingam : CASSCF convergence/infrastructure, NEVPT2 and variants, FIC-MRCI
   Bernardo de Souza      : ESD, SOC TD-DFT
   Georgi Stoychev        : AutoAux, RI-MP2 NMR, DLPNO-MP2 response, X2C
   Van Anh Tran           : RI-MP2 g-tensors
   Willem Van den Heuvel  : Paramagnetic NMR
   Zikuan Wang            : NOTCH, Electric field optimization 
   Frank Wennmohs         : Technical directorship and infrastructure
   Hang Xu                : AUTO-CI-Response properties 


 We gratefully acknowledge several colleagues who have allowed us to
 interface, adapt or use parts of their codes:
   Stefan Grimme, W. Hujo, H. Kruse, P. Pracht,  : VdW corrections, initial TS optimization,
                  C. Bannwarth, S. Ehlert,         DFT functionals, gCP, sTDA/sTD-DF
                  L. Wittmann, M. Mueller
   Ed Valeev, F. Pavosevic, A. Kumar             : LibInt (2-el integral package), F12 methods
   Garnet Chan, S. Sharma, J. Yang, R. Olivares  : DMRG
   Ulf Ekstrom                                   : XCFun DFT Library
   Mihaly Kallay                                 : mrcc  (arbitrary order and MRCC methods)
   Frank Weinhold                                : gennbo (NPA and NBO analysis)
   Simon Mueller                                 : openCOSMO-RS
   Christopher J. Cramer and Donald G. Truhlar   : smd solvation model
   Lars Goerigk                                  : TD-DFT with DH, B97 family of functionals
   V. Asgeirsson, H. Jonsson                     : NEB implementation
   FAccTs GmbH                                   : IRC, NEB, NEB-TS, DLPNO-Multilevel, CI-OPT
                                                   MM, QMMM, 2- and 3-layer-ONIOM, Crystal-QMMM,
                                                   LR-CPCM, SF, NACMEs, symmetry and pop. for TD-DFT,
                                                   nearIR, NL-DFT gradient (VV10), updates on ESD,
                                                   ML-optimized integration grids, MBIS, APM,
                                                   GOAT, DOCKER, SOLVATOR, interface openCOSMO-RS
   S Lehtola, MJT Oliveira, MAL Marques          : LibXC Library
   Liviu Ungur et al                             : ANISO software


 Your calculation uses the libint2 library for the computation of 2-el integrals
 For citations please refer to: http://libint.valeyev.net

 Your ORCA version has been built with support for libXC version: 6.2.2
 For citations please refer to: https://libxc.gitlab.io

 This ORCA versions uses:
   CBLAS   interface :  Fast vector & matrix operations
   LAPACKE interface :  Fast linear algebra routines
   SCALAPACK package :  Parallel linear algebra routines
   Shared memory     :  Shared parallel matrices
   BLAS/LAPACK       :  OpenBLAS 0.3.27  USE64BITINT DYNAMIC_ARCH NO_AFFINITY Zen SINGLE_THREADED
        Core in use  :  Zen
   Copyright (c) 2011-2014, The OpenBLAS Project


NOTE: MaxCore=8000 MB was set to SCF,MP2,MDCI,CIPSI,MRCI and CIS
      => If you want to overwrite this, your respective input block should be placed after the MaxCore statement
Your calculation utilizes the atom-pairwise dispersion correction
based on EEQ partial charges (D4)


================================================================================

----- Orbital basis set information -----
Your calculation utilizes the basis: pcJ-0
   F. Jensen, Theor. Chem. Acc. 126, 371 (2010).

----- AuxJ basis set information -----
Your calculation utilizes the auxiliary basis: def2/J
   F. Weigend, Phys. Chem. Chem. Phys. 8, 1057 (2006).

================================================================================
                                        WARNINGS
                       Please study these warnings very carefully!
================================================================================

WARNING: Old DensityContainer found on disk!
         Will remove this file - 
         If you want to keep old densities, please start your calculation with a different basename. 


================================================================================
                                       INPUT FILE
================================================================================
NAME = inpJ
|  1> ! pbe0
|  2> ! D4
|  3> ! pcJ-0
|  4> ! def2/J RIJCOSX
|  5> ! DEFGRID2
|  6> ! scfconv7
|  7> ! smallprint printgap noloewdin
|  8> ! NOSOSCF
|  9> %MaxCore 8000
| 10> %output
| 11>        print[P_BondOrder_M] 1
| 12>        print[P_Mayer] 1
| 13>        print[P_basis] 2
| 14> end
| 15> %pal
| 16>     nprocs 4
| 17> end
| 18> ! CPCM(chloroform)
| 19> *xyz 0 1
| 20> C   -5.1587378800   0.1551366700  -0.7021546900
| 21> C   -6.5848268800  -0.2961683800  -0.9089598300
| 22> C   -7.5540069100   0.6427075300  -0.1790760800
| 23> H   -6.7220044700  -1.3248794500  -0.5569754500
| 24> H   -6.8331958500  -0.2680874700  -1.9802930900
| 25> C   -4.9179699700   1.5667794200  -1.0763056700
| 26> C   -5.9027981200   2.5468520900  -0.4786230800
| 27> C   -7.3553263100   2.0820378300  -0.6561276200
| 28> H   -5.7599428400   3.5411983700  -0.9148268100
| 29> H   -5.6911128800   2.6355816900   0.5979252500
| 30> H   -7.6308085600   2.1342619600  -1.7183392200
| 31> H   -8.0326689300   2.7464781700  -0.1072069900
| 32> O   -7.3955059900   0.5277749800   1.2448409500
| 33> H   -8.5863901100   0.3304516600  -0.3797259900
| 34> C   -4.2336140600  -0.6668072800  -0.1519189300
| 35> C   -3.9400466300   1.9470562200  -1.9053933800
| 36> H   -3.2532375800   1.2247078700  -2.3383326700
| 37> H   -3.8111634900   2.9921928800  -2.1768736200
| 38> C   -2.8745269100  -0.3112678400   0.1849002900
| 39> H   -4.5644320100  -1.6782406300   0.0811958400
| 40> C   -1.9180088600  -1.1412484300   0.6528598000
| 41> H   -2.6145542800   0.7366741600   0.0537382100
| 42> C   -2.0726193900  -2.6227170800   0.8840374800
| 43> C   -0.9815169000  -3.4307056000   0.1547045200
| 44> H   -3.0605881700  -2.9880268200   0.5908671400
| 45> H   -1.9686978000  -2.8080024700   1.9651554900
| 46> C    0.4325852200  -2.9093764500   0.4436551100
| 47> H   -1.1748638800  -3.4001079400  -0.9250520400
| 48> H   -1.0538441800  -4.4834763900   0.4540244700
| 49> C    0.5594012800  -1.4091501200   0.1462592700
| 50> H    1.1532347400  -3.4938860100  -0.1376833700
| 51> H    0.6696088100  -3.0726358700   1.5058439400
| 52> C   -0.5342349500  -0.6727209800   0.9831693200
| 53> H   -0.3401241400  -0.9822719600   2.0270923600
| 54> C   -0.1527338700   0.7984226600   0.8686217400
| 55> H   -6.4467156300   0.4866036800   1.4315759900
| 56> C    1.3941800800   0.7693909600   0.9130882300
| 57> H   -0.5884224400   1.4044560400   1.6699751900
| 58> H   -0.5046065600   1.2166092700  -0.0811335100
| 59> C    1.8354732500  -0.7130346300   0.7009130200
| 60> H    1.7664945000   1.1538087600   1.8665434400
| 61> H    1.8267750900   1.4068191600   0.1329394300
| 62> H    2.0252273500  -1.1720921000   1.6841348200
| 63> C    3.1255064700  -0.8123298200  -0.1244294600
| 64> C    0.3763674800  -1.1261800100  -1.3518357700
| 65> H    0.5977218900  -0.0827830100  -1.5975948600
| 66> H   -0.6515976200  -1.3245500500  -1.6708038600
| 67> H    1.0417886200  -1.7563503700  -1.9514403700
| 68> H    2.9370207400  -0.3148157100  -1.0890298500
| 69> C    3.5683557500  -2.2549265200  -0.4318343000
| 70> C    4.3074376900  -0.1065650300   0.5050976000
| 71> C    4.4766850900   0.1853309800   1.7948304100
| 72> H    5.1172945700   0.1056548800  -0.1944841300
| 73> H    3.6711541800  -0.0372157600   2.4936795400
| 74> C    5.6966605600   0.8090907000   2.4212600100
| 75> C    6.7363957500   1.2942721700   1.4125621800
| 76> C    6.3311398600  -0.1224835000   3.4949925200
| 77> H    5.3431513100   1.6919135800   2.9807417900
| 78> H    7.1751731400   0.4431269700   3.9185136100
| 79> C    6.8800717000  -1.4228229000   2.9041633800
| 80> C    5.3590723000  -0.4287598700   4.6380702300
| 81> H    7.1198026800   0.4762683700   0.7943708300
| 82> H    7.5866403100   1.7451061000   1.9357268500
| 83> H    6.3103300600   2.0468414900   0.7407154800
| 84> H    7.6574324200  -1.2411761500   2.1554662900
| 85> H    6.0779793800  -1.9985387200   2.4264905000
| 86> H    7.3171963900  -2.0446421200   3.6934087900
| 87> H    4.8955993700   0.4857074400   5.0265081800
| 88> H    5.8834794200  -0.9208525100   5.4644436300
| 89> H    4.5587774000  -1.1025291400   4.3109669900
| 90> H    2.8783125800  -2.7617770300  -1.1111200600
| 91> H    3.6379465600  -2.8372385700   0.4947044000
| 92> H    4.5586176000  -2.2566548300  -0.9012025700
| 93> *
| 94> %eprnmr
| 95>  Nuclei = all C { ssfc }
| 96>  SpinSpinRThresh 8.0
| 97> end
| 98> 
| 99>                          ****END OF INPUT****
================================================================================

                       ****************************
                       * Single Point Calculation *
                       ****************************

---------------------------------
CARTESIAN COORDINATES (ANGSTROEM)
---------------------------------
  C     -5.158738    0.155137   -0.702155
  C     -6.584827   -0.296168   -0.908960
  C     -7.554007    0.642708   -0.179076
  H     -6.722004   -1.324879   -0.556975
  H     -6.833196   -0.268087   -1.980293
  C     -4.917970    1.566779   -1.076306
  C     -5.902798    2.546852   -0.478623
  C     -7.355326    2.082038   -0.656128
  H     -5.759943    3.541198   -0.914827
  H     -5.691113    2.635582    0.597925
  H     -7.630809    2.134262   -1.718339
  H     -8.032669    2.746478   -0.107207
  O     -7.395506    0.527775    1.244841
  H     -8.586390    0.330452   -0.379726
  C     -4.233614   -0.666807   -0.151919
  C     -3.940047    1.947056   -1.905393
  H     -3.253238    1.224708   -2.338333
  H     -3.811163    2.992193   -2.176874
  C     -2.874527   -0.311268    0.184900
  H     -4.564432   -1.678241    0.081196
  C     -1.918009   -1.141248    0.652860
  H     -2.614554    0.736674    0.053738
  C     -2.072619   -2.622717    0.884037
  C     -0.981517   -3.430706    0.154705
  H     -3.060588   -2.988027    0.590867
  H     -1.968698   -2.808002    1.965155
  C      0.432585   -2.909376    0.443655
  H     -1.174864   -3.400108   -0.925052
  H     -1.053844   -4.483476    0.454024
  C      0.559401   -1.409150    0.146259
  H      1.153235   -3.493886   -0.137683
  H      0.669609   -3.072636    1.505844
  C     -0.534235   -0.672721    0.983169
  H     -0.340124   -0.982272    2.027092
  C     -0.152734    0.798423    0.868622
  H     -6.446716    0.486604    1.431576
  C      1.394180    0.769391    0.913088
  H     -0.588422    1.404456    1.669975
  H     -0.504607    1.216609   -0.081134
  C      1.835473   -0.713035    0.700913
  H      1.766494    1.153809    1.866543
  H      1.826775    1.406819    0.132939
  H      2.025227   -1.172092    1.684135
  C      3.125506   -0.812330   -0.124429
  C      0.376367   -1.126180   -1.351836
  H      0.597722   -0.082783   -1.597595
  H     -0.651598   -1.324550   -1.670804
  H      1.041789   -1.756350   -1.951440
  H      2.937021   -0.314816   -1.089030
  C      3.568356   -2.254927   -0.431834
  C      4.307438   -0.106565    0.505098
  C      4.476685    0.185331    1.794830
  H      5.117295    0.105655   -0.194484
  H      3.671154   -0.037216    2.493680
  C      5.696661    0.809091    2.421260
  C      6.736396    1.294272    1.412562
  C      6.331140   -0.122483    3.494993
  H      5.343151    1.691914    2.980742
  H      7.175173    0.443127    3.918514
  C      6.880072   -1.422823    2.904163
  C      5.359072   -0.428760    4.638070
  H      7.119803    0.476268    0.794371
  H      7.586640    1.745106    1.935727
  H      6.310330    2.046841    0.740715
  H      7.657432   -1.241176    2.155466
  H      6.077979   -1.998539    2.426490
  H      7.317196   -2.044642    3.693409
  H      4.895599    0.485707    5.026508
  H      5.883479   -0.920853    5.464444
  H      4.558777   -1.102529    4.310967
  H      2.878313   -2.761777   -1.111120
  H      3.637947   -2.837239    0.494704
  H      4.558618   -2.256655   -0.901203

----------------------------
CARTESIAN COORDINATES (A.U.)
----------------------------
  NO LB      ZA    FRAG     MASS         X           Y           Z
   0 C     6.0000    0    12.011   -9.748602    0.293166   -1.326880
   1 C     6.0000    0    12.011  -12.443519   -0.559677   -1.717685
   2 C     6.0000    0    12.011  -14.275004    1.214541   -0.338405
   3 H     1.0000    0     1.008  -12.702748   -2.503659   -1.052531
   4 H     1.0000    0     1.008  -12.912869   -0.506612   -3.742212
   5 C     6.0000    0    12.011   -9.293616    2.960784   -2.033923
   6 C     6.0000    0    12.011  -11.154672    4.812853   -0.904467
   7 C     6.0000    0    12.011  -13.899552    3.934481   -1.239902
   8 H     1.0000    0     1.008  -10.884715    6.691895   -1.728772
   9 H     1.0000    0     1.008  -10.754645    4.980528    1.129915
  10 H     1.0000    0     1.008  -14.420138    4.033171   -3.247191
  11 H     1.0000    0     1.008  -15.179544    5.190092   -0.202592
  12 O     8.0000    0    15.999  -13.975481    0.997350    2.352408
  13 H     1.0000    0     1.008  -16.225926    0.624463   -0.717578
  14 C     6.0000    0    12.011   -8.000371   -1.260083   -0.287085
  15 C     6.0000    0    12.011   -7.445609    3.679403   -3.600672
  16 H     1.0000    0     1.008   -6.147728    2.314362   -4.418808
  17 H     1.0000    0     1.008   -7.202055    5.654425   -4.113695
  18 C     6.0000    0    12.011   -5.432069   -0.588211    0.349411
  19 H     1.0000    0     1.008   -8.625526   -3.171415    0.153438
  20 C     6.0000    0    12.011   -3.624511   -2.156647    1.233726
  21 H     1.0000    0     1.008   -4.940792    1.392112    0.101550
  22 C     6.0000    0    12.011   -3.916683   -4.956217    1.670589
  23 C     6.0000    0    12.011   -1.854798   -6.483094    0.292349
  24 H     1.0000    0     1.008   -5.783673   -5.646552    1.116577
  25 H     1.0000    0     1.008   -3.720300   -5.306356    3.713606
  26 C     6.0000    0    12.011    0.817468   -5.497925    0.838387
  27 H     1.0000    0     1.008   -2.220171   -6.425273   -1.748095
  28 H     1.0000    0     1.008   -1.991477   -8.472543    0.857982
  29 C     6.0000    0    12.011    1.057115   -2.662908    0.276390
  30 H     1.0000    0     1.008    2.179298   -6.602488   -0.260184
  31 H     1.0000    0     1.008    1.265377   -5.806440    2.845633
  32 C     6.0000    0    12.011   -1.009558   -1.271258    1.857921
  33 H     1.0000    0     1.008   -0.642741   -1.856225    3.830649
  34 C     6.0000    0    12.011   -0.288625    1.508800    1.641457
  35 H     1.0000    0     1.008  -12.182527    0.919548    2.705287
  36 C     6.0000    0    12.011    2.634619    1.453938    1.725487
  37 H     1.0000    0     1.008   -1.111957    2.654037    3.155796
  38 H     1.0000    0     1.008   -0.953568    2.299058   -0.153320
  39 C     6.0000    0    12.011    3.468542   -1.347440    1.324534
  40 H     1.0000    0     1.008    3.338191    2.180383    3.527256
  41 H     1.0000    0     1.008    3.452105    2.658503    0.251219
  42 H     1.0000    0     1.008    3.827125   -2.214933    3.182554
  43 C     6.0000    0    12.011    5.906351   -1.535081   -0.235138
  44 C     6.0000    0    12.011    0.711231   -2.128172   -2.554599
  45 H     1.0000    0     1.008    1.129531   -0.156437   -3.019017
  46 H     1.0000    0     1.008   -1.231341   -2.503037   -3.157362
  47 H     1.0000    0     1.008    1.968695   -3.319021   -3.687688
  48 H     1.0000    0     1.008    5.550165   -0.594915   -2.057968
  49 C     6.0000    0    12.011    6.743215   -4.261194   -0.816049
  50 C     6.0000    0    12.011    8.139878   -0.201379    0.954496
  51 C     6.0000    0    12.011    8.459709    0.350225    3.391738
  52 H     1.0000    0     1.008    9.670285    0.199659   -0.367522
  53 H     1.0000    0     1.008    6.937476   -0.070328    4.712371
  54 C     6.0000    0    12.011   10.765128    1.528960    4.575518
  55 C     6.0000    0    12.011   12.729943    2.445820    2.669356
  56 C     6.0000    0    12.011   11.964120   -0.231460    6.604579
  57 H     1.0000    0     1.008   10.097093    3.197253    5.632786
  58 H     1.0000    0     1.008   13.559112    0.837389    7.404918
  59 C     6.0000    0    12.011   13.001451   -2.688746    5.488073
  60 C     6.0000    0    12.011   10.127179   -0.810239    8.764683
  61 H     1.0000    0     1.008   13.454477    0.900017    1.501143
  62 H     1.0000    0     1.008   14.336672    3.297773    3.657994
  63 H     1.0000    0     1.008   11.924796    3.867970    1.399749
  64 H     1.0000    0     1.008   14.470450   -2.345483    4.073241
  65 H     1.0000    0     1.008   11.485716   -3.776691    4.585403
  66 H     1.0000    0     1.008   13.827497   -3.863814    6.979531
  67 H     1.0000    0     1.008    9.251342    0.917854    9.498724
  68 H     1.0000    0     1.008   11.118165   -1.740159   10.326302
  69 H     1.0000    0     1.008    8.614841   -2.083478    8.146547
  70 H     1.0000    0     1.008    5.439223   -5.219002   -2.099713
  71 H     1.0000    0     1.008    6.874723   -5.361604    0.934856
  72 H     1.0000    0     1.008    8.614539   -4.264460   -1.703026

--------------------------------
INTERNAL COORDINATES (ANGSTROEM)
--------------------------------
 C      0   0   0     0.000000000000     0.00000000     0.00000000
 C      1   0   0     1.510024652119     0.00000000     0.00000000
 C      2   1   0     1.534121309885   110.39961525     0.00000000
 H      2   1   3     1.095881909926   110.78013736   237.85461568
 H      2   1   3     1.100104829890   109.81370824   118.68254746
 C      1   2   3     1.480099116934   113.83204246   305.79780455
 C      6   1   2     1.512499058480   114.34319523    50.17939134
 C      3   2   1     1.529288679462   110.21285670    56.79363011
 H      7   6   1     1.095173890138   110.24288159   188.59297834
 H      7   6   1     1.100745151966   108.26968370    71.93471766
 H      8   3   2     1.098595154274   108.28690557    64.69093517
 H      8   3   2     1.096169625709   109.51198183   181.61265198
 O      3   2   1     1.437314071807   110.65427236   292.72966622
 H      3   2   1     1.097077566253   109.46861608   177.23278090
 C      1   2   3     1.354328368918   121.29017979   122.35411746
 C      6   1   2     1.337284911456   123.15406571   232.16629388
 H     16   6   1     1.086706141850   121.34223814   358.95782962
 H     16   6   1     1.087484722910   120.97941096   178.38163388
 C     15   1   2     1.444636065468   126.01490462   184.99725699
 H     15   1   2     1.089394526114   116.29375067     3.06246648
 C     19  15   1     1.350103945166   126.58668331   184.59067325
 H     19  15   1     1.087645022488   115.71395813     5.35160297
 C     21  19  15     1.507347636297   125.78094284     1.69312260
 C     23  21  19     1.541193258056   111.71975981   126.04455907
 H     23  21  19     1.093381161649   112.32957748     2.22771204
 H     23  21  19     1.101792414279   107.82404446   244.59451891
 C     24  23  21     1.534588326519   112.65420798    50.78203495
 H     24  23  21     1.097357507987   109.04315341   288.66103332
 H     24  23  21     1.096881946327   109.10868595   172.73858303
 C     27  24  23     1.534667924975   111.82378374   306.15870354
 H     27  24  23     1.094961910176   108.97528940   182.58753352
 H     27  24  23     1.100490313911   109.25727110    66.05901068
 C     21  19  15     1.497815938092   122.59331925   180.43176973
 H     33  21  19     1.106018141452   106.42379386   125.67045183
 C     33  21  19     1.524115425956   121.10530722     3.00898051
 H     13   3   2     0.967867862023   107.61622208    42.23775991
 C     35  33  21     1.547825208815   103.29111292   194.96667044
 H     35  33  21     1.095111108304   112.30787812    73.18320353
 H     35  33  21     1.095778018421   110.67907324   313.44600273
 C     30  27  24     1.555820436434   115.85380519   166.64090159
 H     37  35  33     1.093376380654   111.02498439   252.27404050
 H     37  35  33     1.096396508100   111.28343525   134.00242484
 H     40  30  27     1.101574095204   105.84456800   322.32072872
 C     40  30  27     1.534677638057   117.95450941    83.20942097
 C     30  27  24     1.535533198589   111.06066011   294.88378566
 H     45  30  27     1.094565029933   111.75345897   187.71535658
 H     45  30  27     1.094442123653   111.27809777    67.78817408
 H     45  30  27     1.095182931077   110.83539301   307.75347029
 H     44  40  30     1.101590247075   107.32961720    62.44569029
 C     44  40  30     1.540031966974   114.18442088   303.64708851
 C     44  40  30     1.513727078071   113.73550501   180.21085038
 C     51  44  40     1.333138659049   127.12463124    23.23704767
 H     51  44  40     1.091017897760   113.80418762   198.60622247
 H     52  51  44     1.089402223677   118.81673094   355.81599468
 C     52  51  44     1.506595625725   126.56302867   175.78199584
 C     55  52  51     1.527717786897   114.08295454     8.13385293
 C     55  52  51     1.556693924722   111.65842115   240.45078283
 H     55  52  51     1.103342598398   106.41936664   126.35404643
 H     57  55  52     1.100762233725   105.68869566   182.66006363
 C     57  55  52     1.530126724435   112.85787611    64.75452215
 C     57  55  52     1.531452646060   112.07412371   299.57814582
 H     56  55  52     1.094665079374   111.95789376   299.20567270
 H     56  55  52     1.095385008198   110.09842498   179.32617933
 H     56  55  52     1.095112113850   111.00990304    59.54993066
 H     60  57  55     1.094455372941   112.20423347    59.85225764
 H     60  57  55     1.096800882334   110.60287231   299.21797515
 H     60  57  55     1.095739683581   110.31964248   179.90475102
 H     61  57  55     1.096330998787   111.46751354   310.89668818
 H     61  57  55     1.095468388442   110.42848006   190.78434385
 H     61  57  55     1.096099213475   111.32321551    71.61826835
 H     50  44  40     1.092925505096   112.14311389    67.68114193
 H     50  44  40     1.096541913020   110.30591975   306.49900588
 H     50  44  40     1.095868647012   110.29284150   187.67634473

---------------------------
INTERNAL COORDINATES (A.U.)
---------------------------
 C      0   0   0     0.000000000000     0.00000000     0.00000000
 C      1   0   0     2.853533047975     0.00000000     0.00000000
 C      2   1   0     2.899069131895   110.39961525     0.00000000
 H      2   1   3     2.070916684878   110.78013736   237.85461568
 H      2   1   3     2.078896847096   109.81370824   118.68254746
 C      1   2   3     2.796981982064   113.83204246   305.79780455
 C      6   1   2     2.858208998341   114.34319523    50.17939134
 C      3   2   1     2.889936783889   110.21285670    56.79363011
 H      7   6   1     2.069578721382   110.24288159   188.59297834
 H      7   6   1     2.080106880457   108.26968370    71.93471766
 H      8   3   2     2.076043973630   108.28690557    64.69093517
 H      8   3   2     2.071460388913   109.51198183   181.61265198
 O      3   2   1     2.716129964146   110.65427236   292.72966622
 H      3   2   1     2.073176147886   109.46861608   177.23278090
 C      1   2   3     2.559309712655   121.29017979   122.35411746
 C      6   1   2     2.527102245677   123.15406571   232.16629388
 H     16   6   1     2.053576996147   121.34223814   358.95782962
 H     16   6   1     2.055048301123   120.97941096   178.38163388
 C     15   1   2     2.729966526921   126.01490462   184.99725699
 H     15   1   2     2.058657306148   116.29375067     3.06246648
 C     19  15   1     2.551326708690   126.58668331   184.59067325
 H     19  15   1     2.055351223425   115.71395813     5.35160297
 C     21  19  15     2.848474221215   125.78094284     1.69312260
 C     23  21  19     2.912433177172   111.71975981   126.04455907
 H     23  21  19     2.066190955506   112.32957748     2.22771204
 H     23  21  19     2.082085919419   107.82404446   244.59451891
 C     24  23  21     2.899951665434   112.65420798    50.78203495
 H     24  23  21     2.073705161098   109.04315341   288.66103332
 H     24  23  21     2.072806479800   109.10868595   172.73858303
 C     27  24  23     2.900102084717   111.82378374   306.15870354
 H     27  24  23     2.069178137308   108.97528940   182.58753352
 H     27  24  23     2.079625306325   109.25727110    66.05901068
 C     21  19  15     2.830461922016   122.59331925   180.43176973
 H     33  21  19     2.090071386493   106.42379386   125.67045183
 C     33  21  19     2.880160751542   121.10530722     3.00898051
 H     13   3   2     1.829005193047   107.61622208    42.23775991
 C     35  33  21     2.924965747839   103.29111292   194.96667044
 H     35  33  21     2.069460080909   112.30787812    73.18320353
 H     35  33  21     2.070720358386   110.67907324   313.44600273
 C     30  27  24     2.940074538419   115.85380519   166.64090159
 H     37  35  33     2.066181920735   111.02498439   252.27404050
 H     37  35  33     2.071889134496   111.28343525   134.00242484
 H     40  30  27     2.081673356158   105.84456800   322.32072872
 C     40  30  27     2.900120439781   117.95450941    83.20942097
 C     30  27  24     2.901737214877   111.06066011   294.88378566
 H     45  30  27     2.068428142341   111.75345897   187.71535658
 H     45  30  27     2.068195883131   111.27809777    67.78817408
 H     45  30  27     2.069595806281   110.83539301   307.75347029
 H     44  40  30     2.081703878770   107.32961720    62.44569029
 C     44  40  30     2.910238655066   114.18442088   303.64708851
 C     44  40  30     2.860529619056   113.73550501   180.21085038
 C     51  44  40     2.519266964146   127.12463124    23.23704767
 H     51  44  40     2.061725033974   113.80418762   198.60622247
 H     52  51  44     2.058671852434   118.81673094   355.81599468
 C     52  51  44     2.847053127183   126.56302867   175.78199584
 C     55  52  51     2.886968227156   114.08295454     8.13385293
 C     55  52  51     2.941725192063   111.65842115   240.45078283
 H     55  52  51     2.085015342861   106.41936664   126.35404643
 H     57  55  52     2.080139160304   105.68869566   182.66006363
 C     57  55  52     2.891520459377   112.85787611    64.75452215
 C     57  55  52     2.894026088122   112.07412371   299.57814582
 H     56  55  52     2.068617208384   111.95789376   299.20567270
 H     56  55  52     2.069977676697   110.09842498   179.32617933
 H     56  55  52     2.069461981116   111.00990304    59.54993066
 H     60  57  55     2.068220920657   112.20423347    59.85225764
 H     60  57  55     2.072653291055   110.60287231   299.21797515
 H     60  57  55     2.070647916038   110.31964248   179.90475102
 H     61  57  55     2.071765339836   111.46751354   310.89668818
 H     61  57  55     2.070135242524   110.42848006   190.78434385
 H     61  57  55     2.071327329075   111.32321551    71.61826835
 H     50  44  40     2.065329889409   112.14311389    67.68114193
 H     50  44  40     2.072163909974   110.30591975   306.49900588
 H     50  44  40     2.070891621603   110.29284150   187.67634473

---------------------
BASIS SET INFORMATION
---------------------
There are 3 groups of distinct atoms

 Group   1 Type C   : 7s4p contracted to 4s3p pattern {4111/211}
 Group   2 Type H   : 5s contracted to 3s pattern {311}
 Group   3 Type O   : 7s4p contracted to 4s3p pattern {4111/211}

Atom   0C    basis set group =>   1
Atom   1C    basis set group =>   1
Atom   2C    basis set group =>   1
Atom   3H    basis set group =>   2
Atom   4H    basis set group =>   2
Atom   5C    basis set group =>   1
Atom   6C    basis set group =>   1
Atom   7C    basis set group =>   1
Atom   8H    basis set group =>   2
Atom   9H    basis set group =>   2
Atom  10H    basis set group =>   2
Atom  11H    basis set group =>   2
Atom  12O    basis set group =>   3
Atom  13H    basis set group =>   2
Atom  14C    basis set group =>   1
Atom  15C    basis set group =>   1
Atom  16H    basis set group =>   2
Atom  17H    basis set group =>   2
Atom  18C    basis set group =>   1
Atom  19H    basis set group =>   2
Atom  20C    basis set group =>   1
Atom  21H    basis set group =>   2
Atom  22C    basis set group =>   1
Atom  23C    basis set group =>   1
Atom  24H    basis set group =>   2
Atom  25H    basis set group =>   2
Atom  26C    basis set group =>   1
Atom  27H    basis set group =>   2
Atom  28H    basis set group =>   2
Atom  29C    basis set group =>   1
Atom  30H    basis set group =>   2
Atom  31H    basis set group =>   2
Atom  32C    basis set group =>   1
Atom  33H    basis set group =>   2
Atom  34C    basis set group =>   1
Atom  35H    basis set group =>   2
Atom  36C    basis set group =>   1
Atom  37H    basis set group =>   2
Atom  38H    basis set group =>   2
Atom  39C    basis set group =>   1
Atom  40H    basis set group =>   2
Atom  41H    basis set group =>   2
Atom  42H    basis set group =>   2
Atom  43C    basis set group =>   1
Atom  44C    basis set group =>   1
Atom  45H    basis set group =>   2
Atom  46H    basis set group =>   2
Atom  47H    basis set group =>   2
Atom  48H    basis set group =>   2
Atom  49C    basis set group =>   1
Atom  50C    basis set group =>   1
Atom  51C    basis set group =>   1
Atom  52H    basis set group =>   2
Atom  53H    basis set group =>   2
Atom  54C    basis set group =>   1
Atom  55C    basis set group =>   1
Atom  56C    basis set group =>   1
Atom  57H    basis set group =>   2
Atom  58H    basis set group =>   2
Atom  59C    basis set group =>   1
Atom  60C    basis set group =>   1
Atom  61H    basis set group =>   2
Atom  62H    basis set group =>   2
Atom  63H    basis set group =>   2
Atom  64H    basis set group =>   2
Atom  65H    basis set group =>   2
Atom  66H    basis set group =>   2
Atom  67H    basis set group =>   2
Atom  68H    basis set group =>   2
Atom  69H    basis set group =>   2
Atom  70H    basis set group =>   2
Atom  71H    basis set group =>   2
Atom  72H    basis set group =>   2

-------------------------
BASIS SET IN INPUT FORMAT
-------------------------

 # Basis set for element : H 
 NewGTO H 
 S 3 
   1    1357.7500000000      0.0012928364
   2      54.3100000000      0.0588280685
   3       4.3448000000      0.9761499708
 S 1 
   1       0.6604910000      1.0000000000
 S 1 
   1       0.1366870000      1.0000000000
  end;

 # Basis set for element : C 
 NewGTO C 
 S 4 
   1  139534.0000000000      0.0001655246
   2    5581.3600000000      0.0074486101
   3     446.5090000000      0.1285821065
   4      67.4620000000      0.9218029311
 S 1 
   1      15.0674000000      1.0000000000
 S 1 
   1       3.9387600000      1.0000000000
 S 1 
   1       0.2999150000      1.0000000000
 P 2 
   1      28.3900000000      0.0816325586
   2       4.3676900000      0.9660360576
 P 1 
   1       0.8698170000      1.0000000000
 P 1 
   1       0.1889340000      1.0000000000
  end;

 # Basis set for element : O 
 NewGTO O 
 S 4 
   1  253789.0000000000      0.0001641076
   2   10151.6000000000      0.0074010921
   3     812.1250000000      0.1277711901
   4     122.6930000000      0.9223372164
 S 1 
   1      27.5608000000      1.0000000000
 S 1 
   1       7.3172600000      1.0000000000
 S 1 
   1       0.5792400000      1.0000000000
 P 2 
   1      53.4157000000      0.0793786106
   2       8.2177900000      0.9670506337
 P 1 
   1       1.6754400000      1.0000000000
 P 1 
   1       0.3506720000      1.0000000000
  end;

---------------------------------
AUXILIARY/J BASIS SET INFORMATION
---------------------------------
There are 3 groups of distinct atoms

 Group   1 Type C   : 12s5p4d2f1g contracted to 6s4p3d1f1g pattern {711111/2111/211/2/1}
 Group   2 Type H   : 5s2p1d contracted to 3s1p1d pattern {311/2/1}
 Group   3 Type O   : 12s5p4d2f1g contracted to 6s4p3d1f1g pattern {711111/2111/211/2/1}

Atom   0C    basis set group =>   1
Atom   1C    basis set group =>   1
Atom   2C    basis set group =>   1
Atom   3H    basis set group =>   2
Atom   4H    basis set group =>   2
Atom   5C    basis set group =>   1
Atom   6C    basis set group =>   1
Atom   7C    basis set group =>   1
Atom   8H    basis set group =>   2
Atom   9H    basis set group =>   2
Atom  10H    basis set group =>   2
Atom  11H    basis set group =>   2
Atom  12O    basis set group =>   3
Atom  13H    basis set group =>   2
Atom  14C    basis set group =>   1
Atom  15C    basis set group =>   1
Atom  16H    basis set group =>   2
Atom  17H    basis set group =>   2
Atom  18C    basis set group =>   1
Atom  19H    basis set group =>   2
Atom  20C    basis set group =>   1
Atom  21H    basis set group =>   2
Atom  22C    basis set group =>   1
Atom  23C    basis set group =>   1
Atom  24H    basis set group =>   2
Atom  25H    basis set group =>   2
Atom  26C    basis set group =>   1
Atom  27H    basis set group =>   2
Atom  28H    basis set group =>   2
Atom  29C    basis set group =>   1
Atom  30H    basis set group =>   2
Atom  31H    basis set group =>   2
Atom  32C    basis set group =>   1
Atom  33H    basis set group =>   2
Atom  34C    basis set group =>   1
Atom  35H    basis set group =>   2
Atom  36C    basis set group =>   1
Atom  37H    basis set group =>   2
Atom  38H    basis set group =>   2
Atom  39C    basis set group =>   1
Atom  40H    basis set group =>   2
Atom  41H    basis set group =>   2
Atom  42H    basis set group =>   2
Atom  43C    basis set group =>   1
Atom  44C    basis set group =>   1
Atom  45H    basis set group =>   2
Atom  46H    basis set group =>   2
Atom  47H    basis set group =>   2
Atom  48H    basis set group =>   2
Atom  49C    basis set group =>   1
Atom  50C    basis set group =>   1
Atom  51C    basis set group =>   1
Atom  52H    basis set group =>   2
Atom  53H    basis set group =>   2
Atom  54C    basis set group =>   1
Atom  55C    basis set group =>   1
Atom  56C    basis set group =>   1
Atom  57H    basis set group =>   2
Atom  58H    basis set group =>   2
Atom  59C    basis set group =>   1
Atom  60C    basis set group =>   1
Atom  61H    basis set group =>   2
Atom  62H    basis set group =>   2
Atom  63H    basis set group =>   2
Atom  64H    basis set group =>   2
Atom  65H    basis set group =>   2
Atom  66H    basis set group =>   2
Atom  67H    basis set group =>   2
Atom  68H    basis set group =>   2
Atom  69H    basis set group =>   2
Atom  70H    basis set group =>   2
Atom  71H    basis set group =>   2
Atom  72H    basis set group =>   2

-------------------------------------
AUXILIARY/J BASIS SET IN INPUT FORMAT
-------------------------------------

 # Auxiliary/J basis set for element : H 
 NewAuxJGTO H 
 S 3 
   1      15.6752927000      0.1007184237
   2       3.6063578000      0.3404257499
   3       1.2080016000      0.6491996172
 S 1 
   1       0.4726794000      1.0000000000
 S 1 
   1       0.2018100000      1.0000000000
 P 2 
   1       2.0281365000      0.5596620919
   2       0.5358730000      0.5596620919
 D 1 
   1       2.2165124000      1.0000000000
  end;

 # Auxiliary/J basis set for element : C 
 NewAuxJGTO C 
 S 7 
   1    1861.0916331000      0.0134602335
   2     642.9939764000      0.0299160374
   3     235.1105725000      0.1008649584
   4      90.7028894000      0.2370970548
   5      36.7794552000      0.3924037254
   6      15.6046273000      0.3195862154
   7       6.8907294000      0.0530104441
 S 1 
   1       3.1478850000     -1.0000000000
 S 1 
   1       1.4777287000      1.0000000000
 S 1 
   1       0.7076466000      1.0000000000
 S 1 
   1       0.3430122000      1.0000000000
 S 1 
   1       0.1669453000      1.0000000000
 P 2 
   1      13.5472892000     -0.6769313712
   2       5.4669419000     -0.3779500978
 P 1 
   1       2.1751721000      1.0000000000
 P 1 
   1       0.8582194000      1.0000000000
 P 1 
   1       0.3376720000      1.0000000000
 D 2 
   1       5.9287253000     -0.3533329857
   2       1.9809209000     -0.7456525731
 D 1 
   1       0.8055417000     -1.0000000000
 D 1 
   1       0.3531244000     -1.0000000000
 F 2 
   1       1.6755626000      0.6311076882
   2       0.5997536000      0.4968166032
 G 1 
   1       1.0024600000     -1.0000000000
  end;

 # Auxiliary/J basis set for element : O 
 NewAuxJGTO O 
 S 7 
   1    2876.8216605000      0.0168151159
   2    1004.7443032000      0.0340137548
   3     369.7579954000      0.1194951309
   4     142.9442404000      0.2664627624
   5      57.8366425000      0.4202764046
   6      24.3864983000      0.2765077335
   7      10.6622662000      0.0057008815
 S 1 
   1       4.8070437000     -1.0000000000
 S 1 
   1       2.2210770000      1.0000000000
 S 1 
   1       1.0447795000      1.0000000000
 S 1 
   1       0.4968425000      1.0000000000
 S 1 
   1       0.2371384000      1.0000000000
 P 2 
   1      64.2613382000     -0.2731534179
   2      16.3006076000     -0.8168011598
 P 1 
   1       4.3550542000      1.0000000000
 P 1 
   1       1.2019554000      1.0000000000
 P 1 
   1       0.3354196000      1.0000000000
 D 2 
   1       9.2146611000     -0.4661230638
   2       2.8435251000     -0.6600908911
 D 1 
   1       0.9955759000     -1.0000000000
 D 1 
   1       0.3649441000     -1.0000000000
 F 2 
   1       2.6420115000      0.5931563945
   2       0.7345613000      0.5931563945
 G 1 
   1       1.3931000000     -1.0000000000
  end;


Checking for AutoStart:
The File: inpJ.gbw exists
Trying to determine its content:
     ... Fine, the file contains calculation information
     ... Fine, the calculation information was read
     ... Fine, the file contains a basis set
     ... Fine, the basis set was read
     ... Fine, the file contains a geometry
     ... Fine, the geometry was read
     ... Fine, the file contains a set of orbitals
     ... Fine, the orbitals can be read
     => possible old guess file was deleted
     => GBW file was renamed to GES file
     => GES file is set as startup file
     => Guess is set to MORead
     ... now leaving AutoStart



           ************************************************************
           *        Program running with 4 parallel MPI-processes     *
           *              working on a common directory               *
           ************************************************************
------------------------------------------------------------------------------
                             ORCA STARTUP CALCULATIONS
                           -- RI-GTO INTEGRALS CHOSEN --
------------------------------------------------------------------------------
------------------------------------------------------------------------------
                   ___                                                        
                  /   \      - P O W E R E D   B Y -                         
                 /     \                                                     
                 |  |  |   _    _      __       _____    __    __             
                 |  |  |  | |  | |    /  \     |  _  \  |  |  /  |          
                  \  \/   | |  | |   /    \    | | | |  |  | /  /          
                 / \  \   | |__| |  /  /\  \   | |_| |  |  |/  /          
                |  |  |   |  __  | /  /__\  \  |    /   |      \           
                |  |  |   | |  | | |   __   |  |    \   |  |\   \          
                \     /   | |  | | |  |  |  |  | |\  \  |  | \   \       
                 \___/    |_|  |_| |__|  |__|  |_| \__\ |__|  \__/        
                                                                              
                      - O R C A' S   B I G   F R I E N D -                    
                                      &                                       
                       - I N T E G R A L  F E E D E R -                       
                                                                              
 v1 FN, 2020, v2 2021, v3 2022-2024                                           
------------------------------------------------------------------------------


----------------------
SHARK INTEGRAL PACKAGE
----------------------

Number of atoms                             ...     73
Number of basis functions                   ...    509
Number of shells                            ...    335
Maximum angular momentum                    ...      1
Integral batch strategy                     ... SHARK/LIBINT Hybrid
RI-J (if used) integral strategy            ... SPLIT-RIJ (Revised 2003 algorithm where possible)
Printlevel                                  ...      1
Contraction scheme used                     ... SEGMENTED contraction
Prescreening option                         ... SCHWARTZ
   Thresh                                   ... 3.000e-11
   Tcut                                     ... 1.000e-12
   Tpresel                                  ... 1.000e-12 
Coulomb Range Separation                    ... NOT USED
Exchange Range Separation                   ... NOT USED
Multipole approximations                    ... NOT USED
Finite Nucleus Model                        ... NOT USED
CABS basis                                  ... NOT available
Auxiliary Coulomb fitting basis             ... AVAILABLE
   # of basis functions in Aux-J            ...   1905
   # of shells in Aux-J                     ...    655
   Maximum angular momentum in Aux-J        ...      4
Auxiliary J/K fitting basis                 ... NOT available
Auxiliary Correlation fitting basis         ... NOT available
Auxiliary 'external' fitting basis          ... NOT available

Checking pre-screening integrals            ... done (  0.0 sec) Dimension = 335
Check shell pair data                       ... done (  0.0 sec)
Shell pair information
Shell pair cut-off parameter TPreSel        ...   1.0e-12
Total number of shell pairs                 ...     56280
Shell pairs after pre-screening             ...     22184
Total number of primitive shell pairs       ...    145865
Primitive shell pairs kept                  ...     38092
          la=0 lb=0:  11171 shell pairs
          la=1 lb=0:   9119 shell pairs
          la=1 lb=1:   1894 shell pairs

Calculating one electron integrals          ... done (  0.0 sec)
Calculating RI/J V-Matrix + Cholesky decomp.... done (  0.2 sec)
Calculating Nuclear repulsion               ... done (  0.0 sec) ENN=   2804.540045457210 Eh

Diagonalization of the overlap matrix:
Smallest eigenvalue                        ... 7.556e-03
Time for diagonalization                   ...    0.032 sec
Threshold for overlap eigenvalues          ... 1.000e-07
Number of eigenvalues below threshold      ... 0
Time for construction of square roots      ...    0.017 sec
Total time needed                          ...    0.052 sec

-------------------
DFT GRID GENERATION
-------------------

General Integration Accuracy     IntAcc      ... 4.388
Radial Grid Type                 RadialGrid  ... OptM3 with GC (2021)
Angular Grid (max. ang.)         AngularGrid ... 4 (Lebedev-302)
Angular grid pruning method      GridPruning ... 4 (adaptive)
Weight generation scheme         WeightScheme... mBecke (2022)
Basis function cutoff            BFCut       ... 1.0000e-11
Integration weight cutoff        WCut        ... 1.0000e-14
Partially contracted basis set               ... off
Rotationally invariant grid construction     ... off
Angular grids for H and He will be reduced by one unit

Total number of grid points                  ...   309734
Total number of batches                      ...     4878
Average number of points per batch           ...       63
Average number of grid points per atom       ...     4243

--------------------
COSX GRID GENERATION
--------------------

GRIDX 1
-------
General Integration Accuracy     IntAcc      ... 3.816
Radial Grid Type                 RadialGrid  ... OptM3 with GC (2021)
Angular Grid (max. ang.)         AngularGrid ... 1 (Lebedev-50)
Angular grid pruning method      GridPruning ... 4 (adaptive)
Weight generation scheme         WeightScheme... mBecke (2022)
Basis function cutoff            BFCut       ... 1.0000e-11
Integration weight cutoff        WCut        ... 1.0000e-14
Partially contracted basis set               ... on
Rotationally invariant grid construction     ... off
Angular grids for H and He will be reduced by one unit

Total number of grid points                  ...    39381
Total number of batches                      ...      353
Average number of points per batch           ...      111
Average number of grid points per atom       ...      539
UseSFitting                                  ... on

GRIDX 2
-------
General Integration Accuracy     IntAcc      ... 4.020
Radial Grid Type                 RadialGrid  ... OptM3 with GC (2021)
Angular Grid (max. ang.)         AngularGrid ... 2 (Lebedev-110)
Angular grid pruning method      GridPruning ... 4 (adaptive)
Weight generation scheme         WeightScheme... mBecke (2022)
Basis function cutoff            BFCut       ... 1.0000e-11
Integration weight cutoff        WCut        ... 1.0000e-14
Partially contracted basis set               ... on
Rotationally invariant grid construction     ... off
Angular grids for H and He will be reduced by one unit

Total number of grid points                  ...    81362
Total number of batches                      ...      675
Average number of points per batch           ...      120
Average number of grid points per atom       ...     1115
UseSFitting                                  ... on

GRIDX 3
-------
General Integration Accuracy     IntAcc      ... 4.338
Radial Grid Type                 RadialGrid  ... OptM3 with GC (2021)
Angular Grid (max. ang.)         AngularGrid ... 3 (Lebedev-194)
Angular grid pruning method      GridPruning ... 4 (adaptive)
Weight generation scheme         WeightScheme... mBecke (2022)
Basis function cutoff            BFCut       ... 1.0000e-11
Integration weight cutoff        WCut        ... 1.0000e-14
Partially contracted basis set               ... on
Rotationally invariant grid construction     ... off
Angular grids for H and He will be reduced by one unit

Total number of grid points                  ...   176031
Total number of batches                      ...     1418
Average number of points per batch           ...      124
Average number of grid points per atom       ...     2411
UseSFitting                                  ... on
Initializing property integral containers    ... done (  0.0 sec)

SHARK setup successfully completed in   3.9 seconds

Maximum memory used throughout the entire STARTUP-calculation: 85.9 MB


           ************************************************************
           *        Program running with 4 parallel MPI-processes     *
           *              working on a common directory               *
           ************************************************************
-------------------------------------------------------------------------------
                                 ORCA GUESS
                   Start orbitals & Density for SCF / CASSCF
-------------------------------------------------------------------------------

------------
SCF SETTINGS
------------
Hamiltonian:
 Density Functional     Method          .... DFT(GTOs)
 Exchange Functional    Exchange        .... PBE
   PBE kappa parameter   XKappa         ....  0.804000
   PBE mue parameter    XMuePBE         ....  0.219520
 Correlation Functional Correlation     .... PBE
   PBE beta parameter  CBetaPBE         ....  0.066725
 LDA part of GGA corr.  LDAOpt          .... PW91-LDA
 Gradients option       PostSCFGGA      .... off
 Hybrid DFT is turned on
   Fraction HF Exchange ScalHFX         ....  0.250000
   Scaling of DF-GGA-X  ScalDFX         ....  0.750000
   Scaling of DF-GGA-C  ScalDFC         ....  1.000000
   Scaling of DF-LDA-C  ScalLDAC        ....  1.000000
   Perturbative correction              ....  0.000000
   NL short-range parameter             ....  6.900000
 RI-approximation to the Coulomb term is turned on
   Number of AuxJ basis functions       .... 1905
   RIJ-COSX (HFX calculated with COS-X)).... on


General Settings:
 Integral files         IntName         .... inpJ
 Hartree-Fock type      HFTyp           .... RHF
 Total Charge           Charge          ....    0
 Multiplicity           Mult            ....    1
 Number of Electrons    NEL             ....  220
 Basis Dimension        Dim             ....  509
 Nuclear Repulsion      ENuc            ....   2804.5400454572 Eh

Convergence Acceleration:
 AO-DIIS                CNVDIIS         .... on
   Start iteration      DIISMaxIt       ....    12
   Startup error        DIISStart       ....  0.200000
   # of expansion vecs  DIISMaxEq       ....     5
   Bias factor          DIISBfac        ....   1.050
   Max. coefficient     DIISMaxC        ....  10.000
 MO-DIIS                CNVKDIIS        .... off
 Trust-Rad. Augm. Hess. CNVTRAH         .... auto
   Auto Start mean grad. ratio tolernc. ....  1.125000
   Auto Start start iteration           ....     1
   Auto Start num. interpolation iter.  ....    10
   Max. Number of Micro iterations      ....    24
   Max. Number of Macro iterations      .... Maxiter - #DIIS iter
   Number of Davidson start vectors     ....     2
   Converg. threshold    (grad. norm)   ....   1.000e-04
   Grad. Scal. Fac. for Micro threshold ....   0.100
   Minimum threshold for Micro iter.    ....   1.000e-02
   NR start threshold (gradient norm)   ....   1.000e-04
   Initial trust radius                 ....   0.400
   Minimum AH scaling param. (alpha)    ....   1.000
   Maximum AH scaling param. (alpha)    .... 1000.000
   Quad. conv. algorithm                .... NR
   White noise on init. David. guess    .... on
   Maximum white noise                  ....   0.010
   Pseudo random numbers                .... off
   Inactive MOs                         .... canonical
   Orbital update algorithm             .... Taylor
   Preconditioner                       .... Diag
   Full preconditioner red. dimension   ....   250
 SOSCF                  CNVSOSCF        .... off
 Level Shifting         CNVShift        .... on
   Level shift para.    LevelShift      ....    0.2500
   Turn off err/grad.   ShiftErr        ....    0.0010
 Zerner damping         CNVZerner       .... off
 Static damping         CNVDamp         .... on
   Fraction old density DampFac         ....    0.7000
   Max. Damping (<1)    DampMax         ....    0.9800
   Min. Damping (>=0)   DampMin         ....    0.0000
   Turn off err/grad.   DampErr         ....    0.1000

SCF Procedure:
 Maximum # iterations   MaxIter         ....   125
 SCF integral mode      SCFMode         .... Direct
   Integral package                     .... SHARK and LIBINT hybrid scheme
 Reset frequency        DirectResetFreq ....    20
 Integral Threshold     Thresh          ....  3.000e-11 Eh
 Primitive CutOff       TCut            ....  1.000e-12 Eh

Convergence Tolerance:
 Convergence Check Mode ConvCheckMode   .... Total+1el-Energy
 Convergence forced     ConvForced      .... 0
 Energy Change          TolE            ....  1.000e-07 Eh
 1-El. energy change                    ....  1.000e-04 Eh
 DIIS Error             TolErr          ....  1.000e-07

---------------------
INITIAL GUESS: MOREAD
---------------------
Guess MOs are being read from file: inpJ.ges
Input Geometry matches current geometry (good)
Input basis set matches current basis set (good)
Occupation numbers will be reassigned to an Aufbau configuration
MOs were renormalized
MOs were reorthogonalized (Cholesky)
                      ------------------
                      INITIAL GUESS DONE (   0.1 sec)
                      ------------------
             **** ENERGY FILE WAS UPDATED (inpJ.en.tmp) ****
Finished Guess after   0.2 sec
Maximum memory used throughout the entire GUESS-calculation: 37.0 MB


           ************************************************************
           *        Program running with 4 parallel MPI-processes     *
           *              working on a common directory               *
           ************************************************************

-------------------------------------------------------------------------------------------
                                      ORCA LEAN-SCF
                              memory conserving SCF solver
-------------------------------------------------------------------------------------------

--------------------
CPCM SOLVATION MODEL
--------------------
CPCM parameters:
  Epsilon                                         ...       4.8030
  Refrac                                          ...       1.4459
  Rsolv                                           ...       1.3000
  Surface type                                    ... GAUSSIAN VDW
  Discretization scheme                           ... Constant charge density
    Threshold for H atoms                         ...       5.0000 (charges/Ang^2)
    Threshold for non-H atoms                     ...       5.0000 (charges/Ang^2)
  Epsilon function type                           ...         CPCM
Solvent:                                          ... CHLOROFORM
Radii:
  Scheme                                          ... Element-dependent radii
  Radius for C  used is    3.8550 Bohr (=   2.0400 Ang.)
  Radius for H  used is    2.4944 Bohr (=   1.3200 Ang.)
  Radius for O  used is    3.4469 Bohr (=   1.8240 Ang.)
Calculating surface                               ...        done! (  0.0s)
Cavity surface points                             ...         5377
Cavity Volume                                     ...    3598.9944
Cavity Surface-area                               ...    1778.9560
Calculating surface distance matrix               ...        done! (  0.2s)
Performing Cholesky decomposition & store         ...        done! (  1.0s)
Overall time for CPCM initialization              ...                 1.3s

----------------------------------------D-I-I-S--------------------------------------------
Iteration    Energy (Eh)           Delta-E    RMSDP     MaxDP     DIISErr   Damp  Time(sec)
-------------------------------------------------------------------------------------------
               ***  Starting incremental Fock matrix formation  ***
    1    -1165.5101151484950606     0.00e+00  4.26e-08  5.65e-06  6.11e-06  0.700   6.5

  HOMO= 109 E= -6.017 eV LUMO=  5.941 eV gap=  11.958 eV
    2    -1165.5101151797171042    -3.12e-08  2.85e-08  3.38e-06  3.08e-06  0.700   2.0
                 **** Energy Check signals convergence ****

  HOMO= 109 E= -6.016 eV LUMO=  5.941 eV gap=  11.958 eV

               *****************************************************
               *                     SUCCESS                       *
               *           SCF CONVERGED AFTER   2 CYCLES          *
               *****************************************************

Recomputing exchange energy using gridx3       ... done (    8.304 sec)
Old exchange energy                            :    -42.068295807 Eh
New exchange energy                            :    -42.068326277 Eh
Exchange energy change after final integration :     -0.000030470 Eh
Total energy after final integration           :  -1165.510145650 Eh
             **** ENERGY FILE WAS UPDATED (inpJ.en.tmp) ****

----------------
TOTAL SCF ENERGY
----------------

Total Energy       :      -1165.51014564973752 Eh          -31715.14343 eV

Components:
Nuclear Repulsion  :       2804.54004545720954 Eh           76315.41444 eV
Electronic Energy  :      -3970.03654711004674 Eh         -108030.18660 eV
One Electron Energy:      -7150.87276247274167 Eh         -194585.14038 eV
Two Electron Energy:       3180.83621536269493 Eh           86554.95379 eV
CPCM Dielectric    :         -0.01361352687980 Eh              -0.37044 eV

Virial components:
Potential Energy   :      -2322.41097423830797 Eh          -63196.01543 eV
Kinetic Energy     :       1156.90082858857022 Eh           31480.87200 eV
Virial Ratio       :          2.00744170705770

DFT components:
N(Alpha)           :      109.999965652180 electrons
N(Beta)            :      109.999965652180 electrons
N(Total)           :      219.999931304360 electrons
E(X)               :     -125.747066480014 Eh       
E(C)               :       -7.329496733091 Eh       
E(XC)              :     -133.076563213105 Eh       

CPCM Solvation Model Properties:
Surface-charge          :         -0.03304726067823
Corrected charge        :         -0.00000000000000
Outlying charge corr.   :          0.00003853762469 Eh               0.00105 eV
Free-energy (cav+disp)  :  This term is not implemented in the current solvation scheme

---------------
SCF CONVERGENCE
---------------

  Last Energy change         ...    3.1222e-08  Tolerance :   1.0000e-07
  Last MAX-Density change    ...    3.3753e-06  Tolerance :   1.0000e-05
  Last RMS-Density change    ...    2.8513e-08  Tolerance :   1.0000e-06
  Last DIIS Error            ...    3.0762e-06  Tolerance :   1.0000e-07


----------------
ORBITAL ENERGIES
----------------

  NO   OCC          E(Eh)            E(eV) 
   0   2.0000     -19.212378      -522.7954 
   1   2.0000     -10.300506      -280.2910 
   2   2.0000     -10.270521      -279.4751 
   3   2.0000     -10.268435      -279.4183 
   4   2.0000     -10.263819      -279.2927 
   5   2.0000     -10.257581      -279.1230 
   6   2.0000     -10.257041      -279.1083 
   7   2.0000     -10.251606      -278.9604 
   8   2.0000     -10.251075      -278.9459 
   9   2.0000     -10.249603      -278.9059 
  10   2.0000     -10.248226      -278.8684 
  11   2.0000     -10.247705      -278.8542 
  12   2.0000     -10.246040      -278.8089 
  13   2.0000     -10.244586      -278.7694 
  14   2.0000     -10.244417      -278.7648 
  15   2.0000     -10.243385      -278.7367 
  16   2.0000     -10.243086      -278.7285 
  17   2.0000     -10.241839      -278.6946 
  18   2.0000     -10.241595      -278.6880 
  19   2.0000     -10.241483      -278.6849 
  20   2.0000     -10.240151      -278.6487 
  21   2.0000     -10.234121      -278.4846 
  22   2.0000     -10.234019      -278.4818 
  23   2.0000     -10.232890      -278.4511 
  24   2.0000     -10.227149      -278.2949 
  25   2.0000     -10.225274      -278.2439 
  26   2.0000     -10.225167      -278.2409 
  27   2.0000     -10.222255      -278.1617 
  28   2.0000     -10.220716      -278.1198 
  29   2.0000      -1.043177       -28.3863 
  30   2.0000      -0.901657       -24.5353 
  31   2.0000      -0.882347       -24.0099 
  32   2.0000      -0.860183       -23.4068 
  33   2.0000      -0.845831       -23.0162 
  34   2.0000      -0.822271       -22.3751 
  35   2.0000      -0.814304       -22.1584 
  36   2.0000      -0.795979       -21.6597 
  37   2.0000      -0.795090       -21.6355 
  38   2.0000      -0.776816       -21.1382 
  39   2.0000      -0.758366       -20.6362 
  40   2.0000      -0.740429       -20.1481 
  41   2.0000      -0.733368       -19.9560 
  42   2.0000      -0.715306       -19.4645 
  43   2.0000      -0.703229       -19.1358 
  44   2.0000      -0.702998       -19.1295 
  45   2.0000      -0.696081       -18.9413 
  46   2.0000      -0.670664       -18.2497 
  47   2.0000      -0.663820       -18.0635 
  48   2.0000      -0.633897       -17.2492 
  49   2.0000      -0.622331       -16.9345 
  50   2.0000      -0.613108       -16.6835 
  51   2.0000      -0.608173       -16.5492 
  52   2.0000      -0.596849       -16.2411 
  53   2.0000      -0.584845       -15.9145 
  54   2.0000      -0.563953       -15.3459 
  55   2.0000      -0.541130       -14.7249 
  56   2.0000      -0.529824       -14.4172 
  57   2.0000      -0.528659       -14.3855 
  58   2.0000      -0.515213       -14.0197 
  59   2.0000      -0.507505       -13.8099 
  60   2.0000      -0.500711       -13.6250 
  61   2.0000      -0.492072       -13.3900 
  62   2.0000      -0.486006       -13.2249 
  63   2.0000      -0.481856       -13.1120 
  64   2.0000      -0.475088       -12.9278 
  65   2.0000      -0.468556       -12.7500 
  66   2.0000      -0.465097       -12.6559 
  67   2.0000      -0.459346       -12.4994 
  68   2.0000      -0.458543       -12.4776 
  69   2.0000      -0.451513       -12.2863 
  70   2.0000      -0.450557       -12.2603 
  71   2.0000      -0.443643       -12.0721 
  72   2.0000      -0.436838       -11.8870 
  73   2.0000      -0.433880       -11.8065 
  74   2.0000      -0.432573       -11.7709 
  75   2.0000      -0.425385       -11.5753 
  76   2.0000      -0.420586       -11.4447 
  77   2.0000      -0.415055       -11.2942 
  78   2.0000      -0.409423       -11.1410 
  79   2.0000      -0.403730       -10.9861 
  80   2.0000      -0.401800       -10.9335 
  81   2.0000      -0.397843       -10.8259 
  82   2.0000      -0.395486       -10.7617 
  83   2.0000      -0.388214       -10.5638 
  84   2.0000      -0.384996       -10.4763 
  85   2.0000      -0.380972       -10.3668 
  86   2.0000      -0.375128       -10.2077 
  87   2.0000      -0.373137       -10.1536 
  88   2.0000      -0.366976        -9.9859 
  89   2.0000      -0.364051        -9.9063 
  90   2.0000      -0.360875        -9.8199 
  91   2.0000      -0.357222        -9.7205 
  92   2.0000      -0.355869        -9.6837 
  93   2.0000      -0.345511        -9.4018 
  94   2.0000      -0.340999        -9.2790 
  95   2.0000      -0.338985        -9.2242 
  96   2.0000      -0.338025        -9.1981 
  97   2.0000      -0.334923        -9.1137 
  98   2.0000      -0.331964        -9.0332 
  99   2.0000      -0.329451        -8.9648 
 100   2.0000      -0.328113        -8.9284 
 101   2.0000      -0.321852        -8.7580 
 102   2.0000      -0.319177        -8.6853 
 103   2.0000      -0.315546        -8.5864 
 104   2.0000      -0.310453        -8.4479 
 105   2.0000      -0.300781        -8.1847 
 106   2.0000      -0.276550        -7.5253 
 107   2.0000      -0.274992        -7.4829 
 108   2.0000      -0.255537        -6.9535 
 109   2.0000      -0.221102        -6.0165 
 110   0.0000      -0.031658        -0.8615 
 111   0.0000       0.019250         0.5238 
 112   0.0000       0.028187         0.7670 
 113   0.0000       0.080195         2.1822 
 114   0.0000       0.089032         2.4227 
 115   0.0000       0.101969         2.7747 
 116   0.0000       0.104681         2.8485 
 117   0.0000       0.107472         2.9245 
 118   0.0000       0.108591         2.9549 
 119   0.0000       0.114033         3.1030 
 120   0.0000       0.117677         3.2022 
*Only the first 10 virtual orbitals were printed.

                    ********************************
                    * MULLIKEN POPULATION ANALYSIS *
                    ********************************

-----------------------
MULLIKEN ATOMIC CHARGES
-----------------------
   0 C :    0.077746
   1 C :   -0.500697
   2 C :   -0.073985
   3 H :    0.223017
   4 H :    0.219991
   5 C :    0.138392
   6 C :   -0.479551
   7 C :   -0.439832
   8 H :    0.225302
   9 H :    0.207519
  10 H :    0.208737
  11 H :    0.227890
  12 O :   -0.488285
  13 H :    0.247189
  14 C :   -0.280117
  15 C :   -0.513910
  16 H :    0.201091
  17 H :    0.196942
  18 C :   -0.258794
  19 H :    0.219853
  20 C :    0.152542
  21 H :    0.220823
  22 C :   -0.480074
  23 C :   -0.427923
  24 H :    0.211665
  25 H :    0.207059
  26 C :   -0.396777
  27 H :    0.208608
  28 H :    0.217470
  29 C :    0.003895
  30 H :    0.223087
  31 H :    0.194512
  32 C :   -0.229990
  33 H :    0.227700
  34 C :   -0.434039
  35 H :    0.341103
  36 C :   -0.418483
  37 H :    0.208038
  38 H :    0.198180
  39 C :   -0.199952
  40 H :    0.210332
  41 H :    0.204721
  42 H :    0.209271
  43 C :   -0.241406
  44 C :   -0.630173
  45 H :    0.205139
  46 H :    0.209733
  47 H :    0.202237
  48 H :    0.219883
  49 C :   -0.620058
  50 C :   -0.182078
  51 C :   -0.187218
  52 H :    0.217130
  53 H :    0.220777
  54 C :   -0.230205
  55 C :   -0.631324
  56 C :   -0.198927
  57 H :    0.222407
  58 H :    0.219897
  59 C :   -0.615648
  60 C :   -0.612527
  61 H :    0.197650
  62 H :    0.205695
  63 H :    0.203004
  64 H :    0.205496
  65 H :    0.194475
  66 H :    0.200939
  67 H :    0.200969
  68 H :    0.205470
  69 H :    0.198775
  70 H :    0.208468
  71 H :    0.196581
  72 H :    0.204572
Sum of atomic charges:   -0.0000000

--------------------------------
MULLIKEN REDUCED ORBITAL CHARGES
--------------------------------
  0 C s       :     3.354309  s :     3.354309
      pz      :     0.982655  p :     2.567946
      px      :     0.814718
      py      :     0.770573

  1 C s       :     3.377939  s :     3.377939
      pz      :     1.152472  p :     3.122758
      px      :     0.866799
      py      :     1.103487

  2 C s       :     3.312651  s :     3.312651
      pz      :     0.704257  p :     2.761334
      px      :     1.138464
      py      :     0.918613

  3 H s       :     0.776983  s :     0.776983

  4 H s       :     0.780009  s :     0.780009

  5 C s       :     3.341264  s :     3.341264
      pz      :     0.892513  p :     2.520343
      px      :     0.855135
      py      :     0.772696

  6 C s       :     3.367249  s :     3.367249
      pz      :     1.151061  p :     3.112303
      px      :     0.881622
      py      :     1.079620

  7 C s       :     3.338597  s :     3.338597
      pz      :     1.169375  p :     3.101235
      px      :     0.972265
      py      :     0.959595

  8 H s       :     0.774698  s :     0.774698

  9 H s       :     0.792481  s :     0.792481

 10 H s       :     0.791263  s :     0.791263

 11 H s       :     0.772110  s :     0.772110

 12 O s       :     3.685014  s :     3.685014
      pz      :     1.410688  p :     4.803272
      px      :     1.479102
      py      :     1.913482

 13 H s       :     0.752811  s :     0.752811

 14 C s       :     3.394260  s :     3.394260
      pz      :     0.970407  p :     2.885857
      px      :     0.831570
      py      :     1.083881

 15 C s       :     3.384910  s :     3.384910
      pz      :     0.989444  p :     3.129000
      px      :     0.990856
      py      :     1.148700

 16 H s       :     0.798909  s :     0.798909

 17 H s       :     0.803058  s :     0.803058

 18 C s       :     3.396644  s :     3.396644
      pz      :     1.000535  p :     2.862150
      px      :     0.773061
      py      :     1.088554

 19 H s       :     0.780147  s :     0.780147

 20 C s       :     3.351801  s :     3.351801
      pz      :     0.928731  p :     2.495657
      px      :     0.766937
      py      :     0.799990

 21 H s       :     0.779177  s :     0.779177

 22 C s       :     3.372976  s :     3.372976
      pz      :     1.129658  p :     3.107098
      px      :     1.094949
      py      :     0.882491

 23 C s       :     3.327623  s :     3.327623
      pz      :     1.121112  p :     3.100300
      px      :     0.881959
      py      :     1.097229

 24 H s       :     0.788335  s :     0.788335

 25 H s       :     0.792941  s :     0.792941

 26 C s       :     3.349711  s :     3.349711
      pz      :     1.160393  p :     3.047066
      px      :     0.974457
      py      :     0.912216

 27 H s       :     0.791392  s :     0.791392

 28 H s       :     0.782530  s :     0.782530

 29 C s       :     3.317645  s :     3.317645
      pz      :     0.874227  p :     2.678459
      px      :     0.903184
      py      :     0.901048

 30 H s       :     0.776913  s :     0.776913

 31 H s       :     0.805488  s :     0.805488

 32 C s       :     3.362300  s :     3.362300
      pz      :     1.102561  p :     2.867690
      px      :     0.858340
      py      :     0.906789

 33 H s       :     0.772300  s :     0.772300

 34 C s       :     3.343815  s :     3.343815
      pz      :     1.187433  p :     3.090223
      px      :     0.939257
      py      :     0.963533

 35 H s       :     0.658897  s :     0.658897

 36 C s       :     3.338492  s :     3.338492
      pz      :     1.179520  p :     3.079991
      px      :     0.925609
      py      :     0.974863

 37 H s       :     0.791962  s :     0.791962

 38 H s       :     0.801820  s :     0.801820

 39 C s       :     3.342673  s :     3.342673
      pz      :     1.086705  p :     2.857279
      px      :     0.858405
      py      :     0.912170

 40 H s       :     0.789668  s :     0.789668

 41 H s       :     0.795279  s :     0.795279

 42 H s       :     0.790729  s :     0.790729

 43 C s       :     3.347314  s :     3.347314
      pz      :     1.071911  p :     2.894093
      px      :     0.880264
      py      :     0.941918

 44 C s       :     3.366345  s :     3.366345
      pz      :     0.943454  p :     3.263828
      px      :     1.166465
      py      :     1.153909

 45 H s       :     0.794861  s :     0.794861

 46 H s       :     0.790267  s :     0.790267

 47 H s       :     0.797763  s :     0.797763

 48 H s       :     0.780117  s :     0.780117

 49 C s       :     3.348536  s :     3.348536
      pz      :     1.158982  p :     3.271522
      px      :     1.149401
      py      :     0.963140

 50 C s       :     3.348097  s :     3.348097
      pz      :     0.875018  p :     2.833982
      px      :     0.988802
      py      :     0.970161

 51 C s       :     3.355012  s :     3.355012
      pz      :     0.872922  p :     2.832206
      px      :     0.985782
      py      :     0.973502

 52 H s       :     0.782870  s :     0.782870

 53 H s       :     0.779223  s :     0.779223

 54 C s       :     3.339709  s :     3.339709
      pz      :     0.940929  p :     2.890495
      px      :     0.907298
      py      :     1.042269

 55 C s       :     3.347451  s :     3.347451
      pz      :     1.076216  p :     3.283873
      px      :     1.065708
      py      :     1.141949

 56 C s       :     3.312163  s :     3.312163
      pz      :     0.924226  p :     2.886764
      px      :     1.022091
      py      :     0.940447

 57 H s       :     0.777593  s :     0.777593

 58 H s       :     0.780103  s :     0.780103

 59 C s       :     3.344736  s :     3.344736
      pz      :     1.129004  p :     3.270912
      px      :     1.137837
      py      :     1.004071

 60 C s       :     3.341216  s :     3.341216
      pz      :     1.043495  p :     3.271311
      px      :     1.070952
      py      :     1.156864

 61 H s       :     0.802350  s :     0.802350

 62 H s       :     0.794305  s :     0.794305

 63 H s       :     0.796996  s :     0.796996

 64 H s       :     0.794504  s :     0.794504

 65 H s       :     0.805525  s :     0.805525

 66 H s       :     0.799061  s :     0.799061

 67 H s       :     0.799031  s :     0.799031

 68 H s       :     0.794530  s :     0.794530

 69 H s       :     0.801225  s :     0.801225

 70 H s       :     0.791532  s :     0.791532

 71 H s       :     0.803419  s :     0.803419

 72 H s       :     0.795428  s :     0.795428


------------------------
MULLIKEN OVERLAP CHARGES
------------------------
B(  0-C ,  1-C ) :   0.5249 B(  0-C ,  2-C ) :  -0.1805 B(  0-C ,  3-H ) :  -0.0795 
B(  0-C ,  4-H ) :  -0.0863 B(  0-C ,  5-C ) :   0.4158 B(  0-C ,  6-C ) :  -0.1420 
B(  0-C , 14-C ) :   0.9501 B(  0-C , 15-C ) :  -0.2022 B(  0-C , 18-C ) :  -0.1866 
B(  0-C , 19-H ) :  -0.0750 B(  1-C ,  2-C ) :   0.5265 B(  1-C ,  3-H ) :   0.8092 
B(  1-C ,  4-H ) :   0.7736 B(  1-C ,  5-C ) :  -0.1414 B(  1-C ,  7-C ) :  -0.1576 
B(  1-C , 12-O ) :  -0.1099 B(  1-C , 13-H ) :  -0.0572 B(  1-C , 14-C ) :  -0.1138 
B(  2-C ,  3-H ) :  -0.0590 B(  2-C ,  4-H ) :  -0.0538 B(  2-C ,  6-C ) :  -0.1578 
B(  2-C ,  7-C ) :   0.5148 B(  2-C , 10-H ) :  -0.0625 B(  2-C , 11-H ) :  -0.0697 
B(  2-C , 12-O ) :   0.6966 B(  2-C , 13-H ) :   0.8216 B(  2-C , 35-H ) :  -0.1153 
B(  5-C ,  6-C ) :   0.5305 B(  5-C ,  7-C ) :  -0.1575 B(  5-C ,  8-H ) :  -0.0729 
B(  5-C ,  9-H ) :  -0.0939 B(  5-C , 14-C ) :  -0.1988 B(  5-C , 15-C ) :   1.0626 
B(  5-C , 16-H ) :  -0.0996 B(  5-C , 17-H ) :  -0.0951 B(  6-C ,  7-C ) :   0.5527 
B(  6-C ,  8-H ) :   0.8228 B(  6-C ,  9-H ) :   0.7936 B(  6-C , 10-H ) :  -0.0741 
B(  6-C , 11-H ) :  -0.0561 B(  6-C , 15-C ) :  -0.1298 B(  7-C ,  9-H ) :  -0.0777 
B(  7-C , 10-H ) :   0.7762 B(  7-C , 11-H ) :   0.8043 B(  7-C , 12-O ) :  -0.1080 
B(  7-C , 13-H ) :  -0.0829 B( 12-O , 35-H ) :   0.6663 B( 14-C , 18-C ) :   0.6113 
B( 14-C , 19-H ) :   0.8213 B( 14-C , 20-C ) :  -0.1943 B( 14-C , 21-H ) :  -0.0744 
B( 15-C , 16-H ) :   0.8136 B( 15-C , 17-H ) :   0.8066 B( 18-C , 19-H ) :  -0.0600 
B( 18-C , 20-C ) :   0.9195 B( 18-C , 21-H ) :   0.8329 B( 18-C , 22-C ) :  -0.1508 
B( 18-C , 32-C ) :  -0.1496 B( 20-C , 21-H ) :  -0.0831 B( 20-C , 22-C ) :   0.5328 
B( 20-C , 23-C ) :  -0.1711 B( 20-C , 24-H ) :  -0.0674 B( 20-C , 25-H ) :  -0.0923 
B( 20-C , 29-C ) :  -0.1247 B( 20-C , 32-C ) :   0.5188 B( 20-C , 33-H ) :  -0.0918 
[...]
        0.0000         2.9344        0.0000
        0.0000         0.0000        2.9344

 Diagonalized JT*J matrix:
 
 J[55,60](FC)             2.934            2.934            2.934  iso=      2.934
                ---------------  ---------------  ---------------  ---------------
 J[55,60](Total)          2.934            2.934            2.934  iso=      2.934



-----------------------------------------------------------
 NUCLEUS A = C   56 NUCLEUS B = C   59 
 ( 13C  gnA =  1.405  13C  gnB =  1.405) r(AB) =     1.5301
-----------------------------------------------------------

Fermi-contact contribution to J (Hz):
       26.8554         0.0000        0.0000
        0.0000        26.8554        0.0000
        0.0000         0.0000       26.8554

Total spin-spin coupling tensor J (Hz):
       26.8554         0.0000        0.0000
        0.0000        26.8554        0.0000
        0.0000         0.0000       26.8554

 Diagonalized JT*J matrix:
 
 J[56,59](FC)            26.855           26.855           26.855  iso=     26.855
                ---------------  ---------------  ---------------  ---------------
 J[56,59](Total)         26.855           26.855           26.855  iso=     26.855



-----------------------------------------------------------
 NUCLEUS A = C   56 NUCLEUS B = C   60 
 ( 13C  gnA =  1.405  13C  gnB =  1.405) r(AB) =     1.5315
-----------------------------------------------------------

Fermi-contact contribution to J (Hz):
       26.9491         0.0000        0.0000
        0.0000        26.9491        0.0000
        0.0000         0.0000       26.9491

Total spin-spin coupling tensor J (Hz):
       26.9491         0.0000        0.0000
        0.0000        26.9491        0.0000
        0.0000         0.0000       26.9491

 Diagonalized JT*J matrix:
 
 J[56,60](FC)            26.949           26.949           26.949  iso=     26.949
                ---------------  ---------------  ---------------  ---------------
 J[56,60](Total)         26.949           26.949           26.949  iso=     26.949



-----------------------------------------------------------
 NUCLEUS A = C   59 NUCLEUS B = C   60 
 ( 13C  gnA =  1.405  13C  gnB =  1.405) r(AB) =     2.5116
-----------------------------------------------------------

Fermi-contact contribution to J (Hz):
       -0.9130         0.0000        0.0000
        0.0000        -0.9130        0.0000
        0.0000         0.0000       -0.9130

Total spin-spin coupling tensor J (Hz):
       -0.9130         0.0000        0.0000
        0.0000        -0.9130        0.0000
        0.0000         0.0000       -0.9130

 Diagonalized JT*J matrix:
 
 J[59,60](FC)            -0.913           -0.913           -0.913  iso=     -0.913
                ---------------  ---------------  ---------------  ---------------
 J[59,60](Total)         -0.913           -0.913           -0.913  iso=     -0.913



-----------------------------------------------------------------------------
                SUMMARY OF ISOTROPIC COUPLING CONSTANTS J (Hz)                
-----------------------------------------------------------------------------
                  0 C        1 C        2 C        5 C        6 C        7 C  
      0 C        0.000     33.142     -3.797     41.248     -0.912      2.275
      1 C       33.142      0.000     23.410     -1.216      1.451     -0.681
      2 C       -3.797     23.410      0.000      2.293     -2.786     26.006
      5 C       41.248     -1.216      2.293      0.000     30.451     -2.790
      6 C       -0.912      1.451     -2.786     30.451      0.000     24.806
      7 C        2.275     -0.681     26.006     -2.790     24.806      0.000
     14 C       69.342     -0.397      2.840     -3.000      2.174     -0.620
     15 C       -3.415      2.416     -0.872     64.611     -1.112      2.595
     18 C       -2.394      4.168     -1.117      3.199     -0.820      0.194
     20 C        6.826     -1.106      1.107     -1.378      0.609     -0.104
     22 C       -0.934      0.329     -0.335      0.423     -0.184      0.037
     23 C        0.810     -0.282      0.280     -0.334      0.151      0.000
     26 C       -0.090      0.038      0.000      0.046      0.000      0.000
     29 C        1.141     -0.358      0.000     -0.436      0.204      0.000
     32 C       -1.125      0.546     -0.380      0.470     -0.216      0.044
     34 C        0.020     -0.014      0.013     -0.014      0.006     -0.001
     36 C       -0.014      0.000      0.000      0.016     -0.008      0.000
     39 C       -0.071      0.000      0.000      0.030      0.000      0.000
     43 C        0.000      0.000      0.000      0.000      0.000      0.000
     44 C        0.014     -0.005      0.000     -0.005     -0.003      0.000
     49 C        0.000      0.000      0.000      0.000      0.000      0.000
     50 C        0.000      0.000      0.000      0.000      0.000      0.000
     51 C        0.000      0.000      0.000      0.000      0.000      0.000
     54 C        0.000      0.000      0.000      0.000      0.000      0.000
     55 C        0.000      0.000      0.000      0.000      0.000      0.000
     56 C        0.000      0.000      0.000      0.000      0.000      0.000
     59 C        0.000      0.000      0.000      0.000      0.000      0.000
     60 C        0.000      0.000      0.000      0.000      0.000      0.000
                 14 C       15 C       18 C       20 C       22 C       23 C  
      0 C       69.342     -3.415     -2.394      6.826     -0.934      0.810
      1 C       -0.397      2.416      4.168     -1.106      0.329     -0.282
      2 C        2.840     -0.872     -1.117      1.107     -0.335      0.280
      5 C       -3.000     64.611      3.199     -1.378      0.423     -0.334
      6 C        2.174     -1.112     -0.820      0.609     -0.184      0.151
      7 C       -0.620      2.595      0.194     -0.104      0.037      0.000
     14 C        0.000      3.104     54.042     -2.675      3.756     -0.902
     15 C        3.104      0.000     -1.143      1.012     -0.272      0.249
     18 C       54.042     -1.143      0.000     69.966     -2.167      2.364
     20 C       -2.675      1.012     69.966      0.000     32.159     -2.929
     22 C        3.756     -0.272     -2.167     32.159      0.000     24.369
     23 C       -0.902      0.249      2.364     -2.929     24.369      0.000
     26 C        0.130     -0.033     -0.352      1.041     -1.938     25.485
     29 C       -1.099      0.320      2.277     -2.400      1.077     -2.197
     32 C        4.387     -0.316     -1.261     36.875     -0.256      1.526
     34 C        0.079      0.004      2.487     -1.330      1.582     -0.264
     36 C        0.017     -0.014     -0.141      3.570      0.055      0.168
     39 C        0.259     -0.023     -0.039      2.929     -0.336      2.570
     43 C        0.007      0.017      0.282      0.176      0.003     -0.110
     44 C        0.000      0.027     -0.042      0.690     -0.137      0.616
     49 C       -0.001      0.000     -0.010     -0.034      0.139      0.037
     50 C        0.000      0.000      0.030      0.144     -0.009      0.137
     51 C        0.000      0.000     -0.006      0.041     -0.002     -0.007
     54 C        0.000      0.000      0.000      0.000      0.000      0.000
     55 C        0.000      0.000      0.000      0.000      0.000      0.000
     56 C        0.000      0.000      0.000      0.000      0.000      0.000
     59 C        0.000      0.000      0.000      0.000      0.000      0.000
     60 C        0.000      0.000      0.000      0.000      0.000      0.000
                 26 C       29 C       32 C       34 C       36 C       39 C  
      0 C       -0.090      1.141     -1.125      0.020     -0.014     -0.071
      1 C        0.038     -0.358      0.546     -0.014      0.000      0.000
      2 C        0.000      0.000     -0.380      0.013      0.000      0.000
      5 C        0.046     -0.436      0.470     -0.014      0.016      0.030
      6 C        0.000      0.204     -0.216      0.006     -0.008      0.000
      7 C        0.000      0.000      0.044     -0.001      0.000      0.000
     14 C        0.130     -1.099      4.387      0.079      0.017      0.259
     15 C       -0.033      0.320     -0.316      0.004     -0.014     -0.023
     18 C       -0.352      2.277     -1.261      2.487     -0.141     -0.039
     20 C        1.041     -2.400     36.875     -1.330      3.570      2.929
     22 C       -1.938      1.077     -0.256      1.582      0.055     -0.336
     23 C       25.485     -2.197      1.526     -0.264      0.168      2.570
     26 C        0.000     27.828     -0.942      2.302      3.033     -0.569
     29 C       27.828      0.000     23.216      1.002      0.519     29.040
     32 C       -0.942     23.216      0.000     27.913      1.363      3.502
     34 C        2.302      1.002     27.913      0.000     25.841      0.017
     36 C        3.033      0.519      1.363     25.841      0.000     26.387
     39 C       -0.569     29.040      3.502      0.017     26.387      0.000
     43 C       -0.007     -0.697      2.705      1.608      0.217     30.586
     44 C       -0.559     27.263     -0.931      0.860      0.228     -1.245
     49 C        0.360      0.218     -0.001     -0.003      3.205     -1.046
     50 C       -0.087      3.307      0.014     -0.059      0.557     -1.690
     51 C        0.020     -0.117      0.038      0.011      0.097      2.022
     54 C        0.004      0.002     -0.004     -0.003      0.026     -0.133
     55 C       -0.003      0.056      0.002     -0.001      0.009      0.086
     56 C        0.002     -0.029      0.004     -0.000     -0.046      0.079
     59 C       -0.000      0.000      0.000      0.001      0.003     -0.002
     60 C       -0.000      0.000      0.001     -0.001     -0.000      0.004
                 43 C       44 C       49 C       50 C       51 C       54 C  
      0 C        0.000      0.014      0.000      0.000      0.000      0.000
      1 C        0.000     -0.005      0.000      0.000      0.000      0.000
      2 C        0.000      0.000      0.000      0.000      0.000      0.000
      5 C        0.000     -0.005      0.000      0.000      0.000      0.000
      6 C        0.000     -0.003      0.000      0.000      0.000      0.000
      7 C        0.000      0.000      0.000      0.000      0.000      0.000
     14 C        0.007      0.000     -0.001      0.000      0.000      0.000
     15 C        0.017      0.027      0.000      0.000      0.000      0.000
     18 C        0.282     -0.042     -0.010      0.030     -0.006      0.000
     20 C        0.176      0.690     -0.034      0.144      0.041      0.000
     22 C        0.003     -0.137      0.139     -0.009     -0.002      0.000
     23 C       -0.110      0.616      0.037      0.137     -0.007      0.000
     26 C       -0.007     -0.559      0.360     -0.087      0.020      0.004
     29 C       -0.697     27.263      0.218      3.307     -0.117      0.002
     32 C        2.705     -0.931     -0.001      0.014      0.038     -0.004
     34 C        1.608      0.860     -0.003     -0.059      0.011     -0.003
     36 C        0.217      0.228      3.205      0.557      0.097      0.026
     39 C       30.586     -1.245     -1.046     -1.690      2.022     -0.133
     43 C        0.000      1.520     24.929     35.533     -1.549      3.346
     44 C        1.520      0.000     -0.070     -0.147      0.134      0.021
     49 C       24.929     -0.070      0.000     -3.413      3.427     -1.060
     50 C       35.533     -0.147     -3.413      0.000     68.636     -1.652
     51 C       -1.549      0.134      3.427     68.636      0.000     36.073
     54 C        3.346      0.021     -1.060     -1.652     36.073      0.000
     55 C       -0.028     -0.002      0.051      2.932     -1.719     28.309
     56 C       -0.682      0.019      1.513      2.902     -2.885     25.039
     59 C        0.011     -0.001     -0.069     -0.118      1.008     -1.358
     60 C       -0.003     -0.000      0.005      0.035      1.335     -0.736
                 55 C       56 C       59 C       60 C  
      0 C        0.000      0.000      0.000      0.000
      1 C        0.000      0.000      0.000      0.000
      2 C        0.000      0.000      0.000      0.000
      5 C        0.000      0.000      0.000      0.000
      6 C        0.000      0.000      0.000      0.000
      7 C        0.000      0.000      0.000      0.000
     14 C        0.000      0.000      0.000      0.000
     15 C        0.000      0.000      0.000      0.000
     18 C        0.000      0.000      0.000      0.000
     20 C        0.000      0.000      0.000      0.000
     22 C        0.000      0.000      0.000      0.000
     23 C        0.000      0.000      0.000      0.000
     26 C       -0.003      0.002     -0.000     -0.000
     29 C        0.056     -0.029      0.000      0.000
     32 C        0.002      0.004      0.000      0.001
     34 C       -0.001     -0.000      0.001     -0.001
     36 C        0.009     -0.046      0.003     -0.000
     39 C        0.086      0.079     -0.002      0.004
     43 C       -0.028     -0.682      0.011     -0.003
     44 C       -0.002      0.019     -0.001     -0.000
     49 C        0.051      1.513     -0.069      0.005
     50 C        2.932      2.902     -0.118      0.035
     51 C       -1.719     -2.885      1.008      1.335
     54 C       28.309     25.039     -1.358     -0.736
     55 C        0.000     -0.688      1.064      2.934
     56 C       -0.688      0.000     26.855     26.949
     59 C        1.064     26.855      0.000     -0.913
     60 C        2.934     26.949     -0.913      0.000

NMR spin-spin coupling calculation done in   0.3 sec 

Maximum memory used throughout the entire PROP-calculation: 34.5 MB

--------------------------------
SUGGESTED CITATIONS FOR THIS RUN
--------------------------------

Below you find a list of papers that are relevant to this ORCA run
We neither can nor want to force you to cite these papers, but we appreciate if you do
You receive ORCA, which is the product of decades of hard work by many enthusiastic individuals, for free
The only thing we kindly ask in return is that you cite our papers,
We deeply appreciate it, if you show your appreciation for ORCA by not just citing the generic ORCA reference.

Please note that relegating all ORCA citations to the supporting information does *not* help us.
SI sections are not indexed - citations you put there will not count into any citation statistics
But we need these citations in order to attract the funding resources that allow us to do what we are doing

Therefore, if you are a happy ORCA user, please consider citing a few of the papers listed below in the main body of your paper

In addition to the list printed below, the program has created the file inpJ.bibtex that contains the list in bibtex format
You can import this file easily into all common literature databanks and citation aid programs


List of essential papers. We consider these as the minimum necessary citations

  1. Neese,F.
     Software update: the ORCA program system, version 5.0
     WIRES Comput. Molec. Sci., 2022 12(1)e1606
     doi.org/10.1002/wcms.1606

List of papers to cite with high priority. The work reported in these papers was absolutely
necessary for this run to complete.
Our perspective: the developers of density functionals and basis sets usually get cited in chemistry papers
Good! But without the algorithms to do something with them, the functionals or basis sets would not do anything.
Hence, in our opinion, the algorithm design and method developments papers are equally worthy of getting cited

  1. Neese,F.
     An improvement of the resolution of the identity approximation for the formation of the Coulomb matrix
     J. Comp. Chem., 2003 24(14)1740-1747
     doi.org/10.1002/jcc.10318
  2. Neese,F.; Wennmohs,F.; Hansen,A.; Becker,U.
     Efficient, approximate and parallel Hartree-Fock and hybrid DFT calculations. A 'chain-of-spheres' algorithm for the Hartree-Fock exchange
     Chem. Phys., 2009 356(1-3)98-109
     doi.org/10.1016/j.chemphys.2008.10.036
  3. Stoychev,G.L.; Auer,A.A.; Izsak,R.; Neese,F.
     Self-Consistent Field Calculation of Nuclear Magnetic Resonance Chemical Shielding Constants Using Gauge-Including Atomic Orbitals and Approximate Two-Electron Integrals
     J. Chem. Theory Comput., 2018 14(2)619-637
     doi.org/10.1021/acs.jctc.7b01006
  4. Garcia-Rates,M.; Neese,F.
     Effect of the Solute Cavity on the Solvation Energy and its Derivatives within the Framework of the Gaussian Charge Scheme
     J. Comput. Chem., 2020 41 922-939
     doi.org/10.1002/jcc.26139
  5. Helmich-Paris,B.; de Souza,B.; Neese,F.; Izsák,R.
     An improved chain of spheres for exchange algorithm
     J. Chem. Phys., 2021 155 104109
     doi.org/doi: 10.1063/5.0058766.
  6. Neese,F.
     The SHARK Integral Generation and Digestion System
     J. Comp. Chem., 2022  1-16
     doi.org/10.1002/jcc.26942
  7. Grimme,S.; Bannwarth,C.; Dohm,S.; Hansen,A.; Pisarek,J.; Pracht,P.; Seibert,J.; Neese,F.
     Fully Automated Quantum-Chemistry-Based Computation of Spin-Spin-Coupled Nuclear Magnetic Resonance Spectra
     Angew. Chem., Int. Ed., 2017 56 14763-14769
     doi.org/10.1002/anie.201708266
  8. Caldeweyher,E.; Bannwarth,C.; Grimme,S.
     Extension of the D3 dispersion coefficient model
     J. Chem. Phys., 2017 147 034112-XXXX
     doi.org/10.1063/1.4993215
  9. Caldeweyher,E.; Ehlert,S.; Hansen,A.; Neugebauer,H.; Spicher,S.; Bannwarth,C.; Grimme,S.
     A generally applicable atomic-charge dependent London dispersion correction
     J. Chem. Phys., 2019 150 154122-XXXX
     doi.org/10.1063/1.5090222
 10. Caldeweyher,E.; Mewes,J.; Ehlert,S.; Grimme,S.
     Extension and evaluation of the D4 London-dispersion model for periodic systems
     Phys. Chem. Chem. Phys., 2020 22(16)8499-8512
     doi.org/10.1039/D0CP00502A

List of suggested additional citations. These are papers that are important in the 'surrounding' of 
of this run, or papers that preceded the highly important papers. If you like your results we are grateful for a citation.

  1. Izsak,R.; Neese,F.
     An overlap fitted chain of spheres exchange method
     J. Chem. Phys., 2011 135 144105
     doi.org/10.1063/1.3646921
  2. Izsak,R.; Hansen,A.; Neese,F.
     The resolution of identity and chain of spheres approximations for the LPNO-CCSD singles Fock term
     Molec. Phys., 2012 110 2413-2417
     doi.org/10.1080/00268976.2012.687466
  3. Neese,F.
     The ORCA program system
     WIRES Comput. Molec. Sci., 2012 2(1)73-78
     doi.org/10.1002/wcms.81
  4. Izsak,R.; Neese,F.; Klopper,W.
     Robust fitting techniques in the chain of spheres approximation to the Fock exchange: The role of the complementary space
     J. Chem. Phys., 2013 139 
     doi.org/10.1063/1.4819264
  5. Neese,F.
     Software update: the ORCA program system, version 4.0
     WIRES Comput. Molec. Sci., 2018 8(1)1-6
     doi.org/10.1002/wcms.1327
  6. Neese,F.; Wennmohs,F.; Becker,U.; Riplinger,C.
     The ORCA quantum chemistry program package
     J. Chem. Phys., 2020 152 Art. No. L224108
     doi.org/10.1063/5.0004608

Timings for individual modules:

Sum of individual times          ...      137.205 sec (=   2.287 min)
Startup calculation              ...        4.125 sec (=   0.069 min)   3.0 %
SCF iterations                   ...       19.354 sec (=   0.323 min)  14.1 %
Property integrals               ...        0.638 sec (=   0.011 min)   0.5 %
SCF Response                     ...      112.470 sec (=   1.874 min)  82.0 %
Property calculations            ...        0.618 sec (=   0.010 min)   0.5 %
                             ****ORCA TERMINATED NORMALLY****
TOTAL RUN TIME: 0 days 0 hours 2 minutes 17 seconds 516 msec
