
                                 *****************
                                 * O   R   C   A *
                                 *****************

                                            #,                                       
                                            ###                                      
                                            ####                                     
                                            #####                                    
                                            ######                                   
                                           ########,                                 
                                     ,,################,,,,,                         
                               ,,#################################,,                 
                          ,,##########################################,,             
                       ,#########################################, ''#####,          
                    ,#############################################,,   '####,        
                  ,##################################################,,,,####,       
                ,###########''''           ''''###############################       
              ,#####''   ,,,,##########,,,,          '''####'''          '####       
            ,##' ,,,,###########################,,,                        '##       
           ' ,,###''''                  '''############,,,                           
         ,,##''                                '''############,,,,        ,,,,,,###''
      ,#''                                            '''#######################'''  
     '                                                          ''''####''''         
             ,#######,   #######,   ,#######,      ##                                
            ,#'     '#,  ##    ##  ,#'     '#,    #''#        ######   ,####,        
            ##       ##  ##   ,#'  ##            #'  '#       #        #'  '#        
            ##       ##  #######   ##           ,######,      #####,   #    #        
            '#,     ,#'  ##    ##  '#,     ,#' ,#      #,         ##   #,  ,#        
             '#######'   ##     ##  '#######'  #'      '#     #####' # '####'        



                  #######################################################
                  #                        -***-                        #
                  #          Department of theory and spectroscopy      #
                  #    Directorship and core code : Frank Neese         #
                  #        Max Planck Institute fuer Kohlenforschung    #
                  #                Kaiser Wilhelm Platz 1               #
                  #                 D-45470 Muelheim/Ruhr               #
                  #                      Germany                        #
                  #                                                     #
                  #                  All rights reserved                #
                  #                        -***-                        #
                  #######################################################


                         Program Version 5.0.2 -  RELEASE  -


 With contributions from (in alphabetic order):
   Daniel Aravena         : Magnetic Suceptibility
   Michael Atanasov       : Ab Initio Ligand Field Theory (pilot matlab implementation)
   Alexander A. Auer      : GIAO ZORA, VPT2 properties, NMR spectrum
   Ute Becker             : Parallelization
   Giovanni Bistoni       : ED, misc. LED, open-shell LED, HFLD
   Martin Brehm           : Molecular dynamics
   Dmytro Bykov           : SCF Hessian
   Vijay G. Chilkuri      : MRCI spin determinant printing, contributions to CSF-ICE
   Dipayan Datta          : RHF DLPNO-CCSD density
   Achintya Kumar Dutta   : EOM-CC, STEOM-CC
   Dmitry Ganyushin       : Spin-Orbit,Spin-Spin,Magnetic field MRCI
   Miquel Garcia          : C-PCM and meta-GGA Hessian, CC/C-PCM, Gaussian charge scheme
   Yang Guo               : DLPNO-NEVPT2, F12-NEVPT2, CIM, IAO-localization
   Andreas Hansen         : Spin unrestricted coupled pair/coupled cluster methods
   Benjamin Helmich-Paris : MC-RPA, TRAH-SCF, COSX integrals
   Lee Huntington         : MR-EOM, pCC
   Robert Izsak           : Overlap fitted RIJCOSX, COSX-SCS-MP3, EOM
   Marcus Kettner         : VPT2
   Christian Kollmar      : KDIIS, OOCD, Brueckner-CCSD(T), CCSD density, CASPT2, CASPT2-K
   Simone Kossmann        : Meta GGA functionals, TD-DFT gradient, OOMP2, MP2 Hessian
   Martin Krupicka        : Initial AUTO-CI
   Lucas Lang             : DCDCAS
   Marvin Lechner         : AUTO-CI (C++ implementation), FIC-MRCC
   Dagmar Lenk            : GEPOL surface, SMD
   Dimitrios Liakos       : Extrapolation schemes; Compound Job, initial MDCI parallelization
   Dimitrios Manganas     : Further ROCIS development; embedding schemes
   Dimitrios Pantazis     : SARC Basis sets
   Anastasios Papadopoulos: AUTO-CI, single reference methods and gradients
   Taras Petrenko         : DFT Hessian,TD-DFT gradient, ASA, ECA, R-Raman, ABS, FL, XAS/XES, NRVS
   Peter Pinski           : DLPNO-MP2, DLPNO-MP2 Gradient
   Christoph Reimann      : Effective Core Potentials
   Marius Retegan         : Local ZFS, SOC
   Christoph Riplinger    : Optimizer, TS searches, QM/MM, DLPNO-CCSD(T), (RO)-DLPNO pert. Triples
   Tobias Risthaus        : Range-separated hybrids, TD-DFT gradient, RPA, STAB
   Michael Roemelt        : Original ROCIS implementation
   Masaaki Saitow         : Open-shell DLPNO-CCSD energy and density
   Barbara Sandhoefer     : DKH picture change effects
   Avijit Sen             : IP-ROCIS
   Kantharuban Sivalingam : CASSCF convergence, NEVPT2, FIC-MRCI
   Bernardo de Souza      : ESD, SOC TD-DFT
   Georgi Stoychev        : AutoAux, RI-MP2 NMR, DLPNO-MP2 response
   Willem Van den Heuvel  : Paramagnetic NMR
   Boris Wezisla          : Elementary symmetry handling
   Frank Wennmohs         : Technical directorship


 We gratefully acknowledge several colleagues who have allowed us to
 interface, adapt or use parts of their codes:
   Stefan Grimme, W. Hujo, H. Kruse, P. Pracht,  : VdW corrections, initial TS optimization,
                  C. Bannwarth, S. Ehlert          DFT functionals, gCP, sTDA/sTD-DF
   Ed Valeev, F. Pavosevic, A. Kumar             : LibInt (2-el integral package), F12 methods
   Garnet Chan, S. Sharma, J. Yang, R. Olivares  : DMRG
   Ulf Ekstrom                                   : XCFun DFT Library
   Mihaly Kallay                                 : mrcc  (arbitrary order and MRCC methods)
   Jiri Pittner, Ondrej Demel                    : Mk-CCSD
   Frank Weinhold                                : gennbo (NPA and NBO analysis)
   Christopher J. Cramer and Donald G. Truhlar   : smd solvation model
   Lars Goerigk                                  : TD-DFT with DH, B97 family of functionals
   V. Asgeirsson, H. Jonsson                     : NEB implementation
   FAccTs GmbH                                   : IRC, NEB, NEB-TS, DLPNO-Multilevel, CI-OPT
                                                   MM, QMMM, 2- and 3-layer-ONIOM, Crystal-QMMM,
                                                   LR-CPCM, SF, NACMEs, symmetry and pop. for TD-DFT,
                                                   nearIR, NL-DFT gradient (VV10), updates on ESD,
                                                   ML-optimized integration grids
   S Lehtola, MJT Oliveira, MAL Marques          : LibXC Library
   Liviu Ungur et al                             : ANISO software


 Your calculation uses the libint2 library for the computation of 2-el integrals
 For citations please refer to: http://libint.valeyev.net

 Your ORCA version has been built with support for libXC version: 5.1.0
 For citations please refer to: https://tddft.org/programs/libxc/

 This ORCA versions uses:
   CBLAS   interface :  Fast vector & matrix operations
   LAPACKE interface :  Fast linear algebra routines
   SCALAPACK package :  Parallel linear algebra routines
   Shared memory     :  Shared parallel matrices
   BLAS/LAPACK       :  OpenBLAS 0.3.15  USE64BITINT DYNAMIC_ARCH NO_AFFINITY Zen SINGLE_THREADED
        Core in use  :  Zen
   Copyright (c) 2011-2014, The OpenBLAS Project


Your calculation utilizes the atom-pairwise dispersion correction
based on tight binding partial charges (D4)
Cite in your paper:
E.Caldeweyher, C.Bannwarth, S.Grimme, J.Chem.Phys., (2017), 147, 034112.
E.Caldeweyher, S.Ehlert, A.Hansen, H.Neugebauer, S.Grimme, J.Chem.Phys., (2018), in progress.
   

================================================================================

----- Orbital basis set information -----
Your calculation utilizes the basis: pcJ-0
   F. Jensen, Theor. Chem. Acc. 126, 371 (2010).

----- AuxJ basis set information -----
Your calculation utilizes the auxiliary basis: def2/J
   F. Weigend, Phys. Chem. Chem. Phys. 8, 1057 (2006).

================================================================================
                                        WARNINGS
                       Please study these warnings very carefully!
================================================================================


INFO   : the flag for use of the SHARK integral package has been found!

================================================================================
                                       INPUT FILE
================================================================================
NAME = inpJ
|  1> ! pbe0
|  2> ! D4
|  3> ! pcJ-0
|  4> ! def2/J RIJCOSX
|  5> ! DEFGRID2
|  6> ! scfconv7
|  7> ! smallprint printgap noloewdin
|  8> ! NOSOSCF
|  9> %MaxCore 4000
| 10> %output
| 11>        print[P_BondOrder_M] 1
| 12>        print[P_Mayer] 1
| 13>        print[P_basis] 2
| 14> end
| 15> %pal
| 16>     nprocs 4
| 17> end
| 18> ! CPCM(chloroform)
| 19> *xyz 0 1
| 20> C   -5.0319721100   0.2903045500   0.3480283800
| 21> C   -6.4443865200  -0.1274553300   0.0127561600
| 22> C   -7.0090056100   0.6711194200  -1.1684992100
| 23> H   -7.0984415200   0.0663447900   0.8799299700
| 24> H   -6.4890051700  -1.2000028800  -0.2061214100
| 25> C   -4.8519958300   1.7493845600   0.5036458300
| 26> C   -5.4583382800   2.5758344200  -0.6079167200
| 27> C   -6.9101950000   2.1671373500  -0.8915745700
| 28> H   -4.8674769000   2.4143401500  -1.5223052300
| 29> H   -5.3978221500   3.6415636500  -0.3634264000
| 30> H   -7.3023675600   2.7281046000  -1.7480437300
| 31> H   -7.5380764100   2.4061066000  -0.0199523600
| 32> O   -8.3526521100   0.2720027500  -1.4695853900
| 33> H   -6.4333469200   0.4287391400  -2.0727492700
| 34> C   -4.0401825000  -0.6267801500   0.4427651800
| 35> C   -4.2466460500   2.3084684100   1.5577036800
| 36> H   -3.8399564900   1.7037761000   2.3635180400
| 37> H   -4.1551406500   3.3887877900   1.6415984600
| 38> C   -2.6386772700  -0.3561354700   0.6646136600
| 39> H   -4.3317525300  -1.6660108200   0.2971113000
| 40> C   -1.6629045500  -1.2735840700   0.8370411400
| 41> H   -2.3542257600   0.6934289200   0.6833240000
| 42> C   -1.8587480000  -2.7676186000   0.8877897200
| 43> C   -0.9240749100  -3.4995260400  -0.0931657900
| 44> H   -2.8962380900  -3.0574371800   0.7003676300
| 45> H   -1.6152441600  -3.1034608000   1.9085685300
| 46> C    0.5424599100  -3.0723823200   0.0565421100
| 47> H   -1.2625576600  -3.3093226900  -1.1195636400
| 48> H   -1.0092435300  -4.5812706400   0.0675045700
| 49> C    0.7078808600  -1.5500684500  -0.0530920500
| 50> H    1.1423800700  -3.5947524200  -0.6954421600
| 51> H    0.9136858500  -3.3919969900   1.0420202100
| 52> C   -0.2229596800  -0.9022941600   1.0207482400
| 53> H    0.0952566500  -1.3620730600   1.9747467600
| 54> C    0.2129805500   0.5588659700   1.0606403100
| 55> H   -8.8973082500   0.4758798100  -0.6975071500
| 56> C    1.7430544900   0.4876153100   0.8323618500
| 57> H   -0.0541240200   1.0430382900   2.0058155700
| 58> H   -0.2677535800   1.1293856500   0.2581954900
| 59> C    2.0764422600  -0.9760567000   0.4101649200
| 60> H    2.3005705900   0.7679556400   1.7315908400
| 61> H    2.0463180200   1.1874507800   0.0441873900
| 62> H    2.3631739300  -1.5420100400   1.3111869600
| 63> C    3.2822144200  -1.0424912500  -0.5583387100
| 64> C    0.3518441200  -1.0543742400  -1.4609359000
| 65> H   -0.7131550000  -1.1877304300  -1.6746259400
| 66> H    0.9191913100  -1.6041987900  -2.2198331400
| 67> H    0.5779682800   0.0095270400  -1.5839901700
| 68> H    3.0154242900  -0.4394813800  -1.4424951900
| 69> C    3.6058633600  -2.4591296700  -1.0306450600
| 70> C    4.4615289800  -0.3550503600   0.0910390200
| 71> C    5.5942796300  -0.9349951500   0.4902223000
| 72> H    4.3343490900   0.7139027200   0.2561310900
| 73> H    5.7297640000  -2.0057706900   0.3269483300
| 74> C    6.7664404600  -0.2640436000   1.1591238000
| 75> C    6.5618103500   1.2286848600   1.4116495900
| 76> C    8.0727762700  -0.5903773300   0.3818006600
| 77> H    6.8838559200  -0.7525728300   2.1419800700
| 78> H    8.0709946000  -1.6817854100   0.2364668200
| 79> C    9.3264126600  -0.2375582900   1.1854462000
| 80> C    8.1148763400   0.0635439100  -1.0008496600
| 81> H    5.6823578200   1.3961189400   2.0425027500
| 82> H    6.4102475900   1.7814920500   0.4782456400
| 83> H    7.4248314900   1.6620676100   1.9254022700
| 84> H    10.2242039500  -0.6056564700   0.6763605900
| 85> H    9.2971725500  -0.6831448100   2.1865371200
| 86> H    9.4370136400   0.8468174700   1.2989442800
| 87> H    8.2093383500   1.1525423100  -0.9191354600
| 88> H    7.2081168700  -0.1561378600  -1.5752382200
| 89> H    8.9767364900  -0.3002066600  -1.5710743700
| 90> H    4.5379619700  -2.4699528900  -1.6060123100
| 91> H    2.8147737100  -2.8479963500  -1.6748486500
| 92> H    3.7207303800  -3.1469688600  -0.1846224500
| 93> *
| 94> %eprnmr
| 95>  Nuclei = all H { ssfc }
| 96>  SpinSpinRThresh 8.0
| 97> end
| 98> 
| 99>                          ****END OF INPUT****
================================================================================

                       ****************************
                       * Single Point Calculation *
                       ****************************

---------------------------------
CARTESIAN COORDINATES (ANGSTROEM)
---------------------------------
  C     -5.031972    0.290305    0.348028
  C     -6.444387   -0.127455    0.012756
  C     -7.009006    0.671119   -1.168499
  H     -7.098442    0.066345    0.879930
  H     -6.489005   -1.200003   -0.206121
  C     -4.851996    1.749385    0.503646
  C     -5.458338    2.575834   -0.607917
  C     -6.910195    2.167137   -0.891575
  H     -4.867477    2.414340   -1.522305
  H     -5.397822    3.641564   -0.363426
  H     -7.302368    2.728105   -1.748044
  H     -7.538076    2.406107   -0.019952
  O     -8.352652    0.272003   -1.469585
  H     -6.433347    0.428739   -2.072749
  C     -4.040183   -0.626780    0.442765
  C     -4.246646    2.308468    1.557704
  H     -3.839956    1.703776    2.363518
  H     -4.155141    3.388788    1.641598
  C     -2.638677   -0.356135    0.664614
  H     -4.331753   -1.666011    0.297111
  C     -1.662905   -1.273584    0.837041
  H     -2.354226    0.693429    0.683324
  C     -1.858748   -2.767619    0.887790
  C     -0.924075   -3.499526   -0.093166
  H     -2.896238   -3.057437    0.700368
  H     -1.615244   -3.103461    1.908569
  C      0.542460   -3.072382    0.056542
  H     -1.262558   -3.309323   -1.119564
  H     -1.009244   -4.581271    0.067505
  C      0.707881   -1.550068   -0.053092
  H      1.142380   -3.594752   -0.695442
  H      0.913686   -3.391997    1.042020
  C     -0.222960   -0.902294    1.020748
  H      0.095257   -1.362073    1.974747
  C      0.212981    0.558866    1.060640
  H     -8.897308    0.475880   -0.697507
  C      1.743054    0.487615    0.832362
  H     -0.054124    1.043038    2.005816
  H     -0.267754    1.129386    0.258195
  C      2.076442   -0.976057    0.410165
  H      2.300571    0.767956    1.731591
  H      2.046318    1.187451    0.044187
  H      2.363174   -1.542010    1.311187
  C      3.282214   -1.042491   -0.558339
  C      0.351844   -1.054374   -1.460936
  H     -0.713155   -1.187730   -1.674626
  H      0.919191   -1.604199   -2.219833
  H      0.577968    0.009527   -1.583990
  H      3.015424   -0.439481   -1.442495
  C      3.605863   -2.459130   -1.030645
  C      4.461529   -0.355050    0.091039
  C      5.594280   -0.934995    0.490222
  H      4.334349    0.713903    0.256131
  H      5.729764   -2.005771    0.326948
  C      6.766440   -0.264044    1.159124
  C      6.561810    1.228685    1.411650
  C      8.072776   -0.590377    0.381801
  H      6.883856   -0.752573    2.141980
  H      8.070995   -1.681785    0.236467
  C      9.326413   -0.237558    1.185446
  C      8.114876    0.063544   -1.000850
  H      5.682358    1.396119    2.042503
  H      6.410248    1.781492    0.478246
  H      7.424831    1.662068    1.925402
  H     10.224204   -0.605656    0.676361
  H      9.297173   -0.683145    2.186537
  H      9.437014    0.846817    1.298944
  H      8.209338    1.152542   -0.919135
  H      7.208117   -0.156138   -1.575238
  H      8.976736   -0.300207   -1.571074
  H      4.537962   -2.469953   -1.606012
  H      2.814774   -2.847996   -1.674849
  H      3.720730   -3.146969   -0.184622

----------------------------
CARTESIAN COORDINATES (A.U.)
----------------------------
  NO LB      ZA    FRAG     MASS         X           Y           Z
   0 C     6.0000    0    12.011   -9.509049    0.548596    0.657678
   1 C     6.0000    0    12.011  -12.178126   -0.240856    0.024106
   2 C     6.0000    0    12.011  -13.245101    1.268232   -2.208143
   3 H     1.0000    0     1.008  -13.414110    0.125373    1.662827
   4 H     1.0000    0     1.008  -12.262443   -2.267677   -0.389513
   5 C     6.0000    0    12.011   -9.168943    3.305858    0.951753
   6 C     6.0000    0    12.011  -10.314764    4.867622   -1.148796
   7 C     6.0000    0    12.011  -13.058376    4.095296   -1.684832
   8 H     1.0000    0     1.008   -9.198198    4.562442   -2.876740
   9 H     1.0000    0     1.008  -10.200406    6.881558   -0.686776
  10 H     1.0000    0     1.008  -13.799475    5.155371   -3.303324
  11 H     1.0000    0     1.008  -14.244900    4.546883   -0.037704
  12 O     8.0000    0    15.999  -15.784225    0.514011   -2.777114
  13 H     1.0000    0     1.008  -12.157264    0.810200   -3.916928
  14 C     6.0000    0    12.011   -7.634838   -1.184443    0.836705
  15 C     6.0000    0    12.011   -8.024998    4.362373    2.943633
  16 H     1.0000    0     1.008   -7.256466    3.219670    4.466402
  17 H     1.0000    0     1.008   -7.852078    6.403881    3.102172
  18 C     6.0000    0    12.011   -4.986377   -0.672999    1.255938
  19 H     1.0000    0     1.008   -8.185826   -3.148304    0.561459
  20 C     6.0000    0    12.011   -3.142434   -2.406725    1.581779
  21 H     1.0000    0     1.008   -4.448842    1.310391    1.291295
  22 C     6.0000    0    12.011   -3.512525   -5.230041    1.677679
  23 C     6.0000    0    12.011   -1.746249   -6.613146   -0.176058
  24 H     1.0000    0     1.008   -5.473097   -5.777719    1.323503
  25 H     1.0000    0     1.008   -3.052369   -5.864691    3.606672
  26 C     6.0000    0    12.011    1.025101   -5.805961    0.106849
  27 H     1.0000    0     1.008   -2.385888   -6.253714   -2.115669
  28 H     1.0000    0     1.008   -1.907194   -8.657347    0.127565
  29 C     6.0000    0    12.011    1.337701   -2.929205   -0.100329
  30 H     1.0000    0     1.008    2.158785   -6.793098   -1.314195
  31 H     1.0000    0     1.008    1.726616   -6.409945    1.969133
  32 C     6.0000    0    12.011   -0.421333   -1.705089    1.928935
  33 H     1.0000    0     1.008    0.180009   -2.573945    3.731731
  34 C     6.0000    0    12.011    0.402475    1.056104    2.004320
  35 H     1.0000    0     1.008  -16.813476    0.899283   -1.318097
  36 C     6.0000    0    12.011    3.293896    0.921459    1.572936
  37 H     1.0000    0     1.008   -0.102280    1.971057    3.790442
  38 H     1.0000    0     1.008   -0.505981    2.134230    0.487919
  39 C     6.0000    0    12.011    3.923907   -1.844480    0.775099
  40 H     1.0000    0     1.008    4.347448    1.451226    3.272232
  41 H     1.0000    0     1.008    3.866981    2.243957    0.083502
  42 H     1.0000    0     1.008    4.465752   -2.913977    2.477784
  43 C     6.0000    0    12.011    6.202486   -1.970023   -1.055107
  44 C     6.0000    0    12.011    0.664889   -1.992479   -2.760769
  45 H     1.0000    0     1.008   -1.347668   -2.244485   -3.164584
  46 H     1.0000    0     1.008    1.737020   -3.031496   -4.194877
  47 H     1.0000    0     1.008    1.092202    0.018003   -2.993308
  48 H     1.0000    0     1.008    5.698326   -0.830499   -2.725921
  49 C     6.0000    0    12.011    6.814094   -4.647082   -1.947637
  50 C     6.0000    0    12.011    8.431068   -0.670948    0.172039
  51 C     6.0000    0    12.011   10.571656   -1.766885    0.926386
  52 H     1.0000    0     1.008    8.190733    1.349081    0.484018
  53 H     1.0000    0     1.008   10.827685   -3.790357    0.617843
  54 C     6.0000    0    12.011   12.786719   -0.498970    2.190427
  55 C     6.0000    0    12.011   12.400025    2.321878    2.667631
  56 C     6.0000    0    12.011   15.255336   -1.115651    0.721499
  57 H     1.0000    0     1.008   13.008602   -1.422157    4.047756
  58 H     1.0000    0     1.008   15.251969   -3.178114    0.446858
  59 C     6.0000    0    12.011   17.624366   -0.448920    2.240169
  60 C     6.0000    0    12.011   15.334894    0.120081   -1.891332
  61 H     1.0000    0     1.008   10.738100    2.638282    3.859771
  62 H     1.0000    0     1.008   12.113612    3.366532    0.903753
  63 H     1.0000    0     1.008   14.030898    3.140853    3.638483
  64 H     1.0000    0     1.008   19.320945   -1.144525    1.278136
  65 H     1.0000    0     1.008   17.569110   -1.290957    4.131956
  66 H     1.0000    0     1.008   17.833371    1.600253    2.454649
  67 H     1.0000    0     1.008   15.513401    2.177989   -1.736914
  68 H     1.0000    0     1.008   13.621367   -0.295058   -2.976769
  69 H     1.0000    0     1.008   16.963574   -0.567308   -2.968900
  70 H     1.0000    0     1.008    8.575505   -4.667535   -3.034923
  71 H     1.0000    0     1.008    5.319151   -5.381933   -3.165005
  72 H     1.0000    0     1.008    7.031161   -5.946909   -0.348886

--------------------------------
INTERNAL COORDINATES (ANGSTROEM)
--------------------------------
 C      0   0   0     0.000000000000     0.00000000     0.00000000
 C      1   0   0     1.510577784961     0.00000000     0.00000000
 C      2   1   0     1.533584232210   111.78923002     0.00000000
 H      2   1   3     1.103329890054   109.34511900   241.45658436
 H      2   1   3     1.095562166921   110.68127919   122.91042921
 C      1   2   3     1.478351354614   114.21391700    50.35895290
 C      6   1   2     1.512032354260   114.40934821   312.06842025
 C      3   2   1     1.524637806093   110.31520256   305.13507115
 H      7   6   1     1.100592529885   108.37776826   290.11607679
 H      7   6   1     1.095087444107   110.22081834   172.87667263
 H      8   3   2     1.096368092577   109.69317225   179.15213063
 H      8   3   2     1.100484731577   108.66024338   296.61349898
 O      3   2   1     1.433643233521   111.21429177   180.43547927
 H      3   2   1     1.098999225894   109.03050791    65.27262018
 C      1   2   3     1.354129254817   120.86741753   232.44931066
 C      6   1   2     1.337931634510   123.39696120   129.83121600
 H     16   6   1     1.086455692041   121.40689435     0.64286638
 H     16   6   1     1.087428864406   120.93019753   181.34150867
 C     15   1   2     1.444535288807   126.47398870   175.47531082
 H     15   1   2     1.089141184889   116.15402974   358.04084215
 C     19  15   1     1.350398300724   126.39707076   175.82712770
 H     19  15   1     1.087588224982   115.92548428   355.23998031
 C     21  19  15     1.507670140353   125.70997685   357.31548003
 C     23  21  19     1.539992207284   111.75804867   127.94805301
 H     23  21  19     1.093392672365   112.34317139     3.84393422
 H     23  21  19     1.101850027155   107.72920239   246.58767932
 C     24  23  21     1.534792686694   112.67710715    50.97925224
 H     24  23  21     1.097378892126   109.03848470   288.87992216
 H     24  23  21     1.096922986378   109.16346743   172.90637580
 C     27  24  23     1.535194860118   111.83693853   306.03046516
 H     27  24  23     1.094648373715   108.89634334   182.46554224
 H     27  24  23     1.100513208184   109.19830641    65.99982660
 C     21  19  15     1.498347664762   122.80072820   178.08166904
 H     33  21  19     1.105789964562   106.21838129   123.82486335
 C     33  21  19     1.525327567076   121.01368227     1.71739074
 H     13   3   2     0.966602801111   107.55573185    62.73953511
 C     35  33  21     1.548649080237   103.55891853   196.40848217
 H     35  33  21     1.095045185773   112.11141427    74.44199477
 H     35  33  21     1.095680472656   110.74712279   314.81983549
 C     30  27  24     1.554688655314   116.08399307   166.13164122
 H     37  35  33     1.094544507473   111.73809084   248.86561437
 H     37  35  33     1.096794161680   110.47229589   130.33394112
 H     40  30  27     1.101979559794   106.44300522   320.43639092
 C     40  30  27     1.547998492437   118.90757827    80.74206247
 C     30  27  24     1.534437752416   111.15276544   294.24757898
 H     45  30  27     1.094381301105   111.44376759    66.67741103
 H     45  30  27     1.095497553928   110.68855636   306.57542400
 H     45  30  27     1.094605144646   111.66602326   186.67622417
 H     44  40  30     1.102964440909   106.83753719    62.26332651
 C     44  40  30     1.527968042085   113.46389544   303.26260713
 C     44  40  30     1.511637934458   108.62638285   176.82120980
 C     51  44  40     1.333719342874   126.40070758   113.44116498
 H     51  44  40     1.089077960129   114.85842849   294.91291701
 H     52  51  44     1.091592717480   119.15583458     1.60953376
 C     52  51  44     1.507171592930   126.85490057   181.10032877
 C     55  52  51     1.527704491002   113.83905346     1.66225126
 C     55  52  51     1.554746994145   109.76295524   233.07093887
 H     55  52  51     1.103835878331   106.31247237   119.72864848
 H     57  55  52     1.101043458037   105.82455437   310.94174429
 C     57  55  52     1.530337095963   112.17007734   194.11590488
 C     57  55  52     1.530067747328   112.65684393    68.40426039
 H     56  55  52     1.095192509631   110.61923621    58.82590085
 H     56  55  52     1.095358385831   111.76518503   298.93572962
 H     56  55  52     1.093877466763   111.04341771   178.23128125
 H     60  57  55     1.095761666070   110.47264377   172.04561664
 H     60  57  55     1.096168491129   111.34758386    51.99704112
 H     60  57  55     1.095894693762   111.41920917   291.25121261
 H     61  57  55     1.096137672474   111.07582962    68.76282884
 H     61  57  55     1.095625407867   111.42484571   308.25508189
 H     61  57  55     1.095569995586   110.49234382   187.98816012
 H     50  44  40     1.095432532486   110.59441708   187.28026523
 H     50  44  40     1.091805108305   111.04653225    67.83886822
 H     50  44  40     1.096390186117   111.42772327   307.49027587

---------------------------
INTERNAL COORDINATES (A.U.)
---------------------------
 C      0   0   0     0.000000000000     0.00000000     0.00000000
 C      1   0   0     2.854578317561     0.00000000     0.00000000
 C      2   1   0     2.898054202177   111.78923002     0.00000000
 H      2   1   3     2.084991327572   109.34511900   241.45658436
 H      2   1   3     2.070312458165   110.68127919   122.91042921
 C      1   2   3     2.793679189932   114.21391700    50.35895290
 C      6   1   2     2.857327055179   114.40934821   312.06842025
 C      3   2   1     2.881147906939   110.31520256   305.13507115
 H      7   6   1     2.079818466522   108.37776826   290.11607679
 H      7   6   1     2.069415362058   110.22081834   172.87667263
 H      8   3   2     2.071835436940   109.69317225   179.15213063
 H      8   3   2     2.079614757243   108.66024338   296.61349898
 O      3   2   1     2.709193085104   111.21429177   180.43547927
 H      3   2   1     2.076807558331   109.03050791    65.27262018
 C      1   2   3     2.558933441536   120.86741753   232.44931066
 C      6   1   2     2.528324375134   123.39696120   129.83121600
 H     16   6   1     2.053103714597   121.40689435     0.64286638
 H     16   6   1     2.054942743849   120.93019753   181.34150867
 C     15   1   2     2.729776086630   126.47398870   175.47531082
 H     15   1   2     2.058178560615   116.15402974   358.04084215
 C     19  15   1     2.551882960080   126.39707076   175.82712770
 H     19  15   1     2.055243891694   115.92548428   355.23998031
 C     21  19  15     2.849083665558   125.70997685   357.31548003
 C     23  21  19     2.910163520141   111.75804867   127.94805301
 H     23  21  19     2.066212707606   112.34317139     3.84393422
 H     23  21  19     2.082194791976   107.72920239   246.58767932
 C     24  23  21     2.900337850197   112.67710715    50.97925224
 H     24  23  21     2.073745571264   109.03848470   288.87992216
 H     24  23  21     2.072884034257   109.16346743   172.90637580
 C     27  24  23     2.901097847826   111.83693853   306.03046516
 H     27  24  23     2.068585639263   108.89634334   182.46554224
 H     27  24  23     2.079668570231   109.19830641    65.99982660
 C     21  19  15     2.831466739801   122.80072820   178.08166904
 H     33  21  19     2.089640194661   106.21838129   123.82486335
 C     33  21  19     2.882451366295   121.01368227     1.71739074
 H     13   3   2     1.826614574381   107.55573185    62.73953511
 C     35  33  21     2.926522639196   103.55891853   196.40848217
 H     35  33  21     2.069335505380   112.11141427    74.44199477
 H     35  33  21     2.070536023605   110.74712279   314.81983549
 C     30  27  24     2.937935782057   116.08399307   166.13164122
 H     37  35  33     2.068389360512   111.73809084   248.86561437
 H     37  35  33     2.072640590858   110.47229589   130.33394112
 H     40  30  27     2.082439573190   106.44300522   320.43639092
 C     40  30  27     2.925293206429   118.90757827    80.74206247
 C     30  27  24     2.899667121616   111.15276544   294.24757898
 H     45  30  27     2.068080945172   111.44376759    66.67741103
 H     45  30  27     2.070190357305   110.68855636   306.57542400
 H     45  30  27     2.068503948163   111.66602326   186.67622417
 H     44  40  30     2.084300728771   106.83753719    62.26332651
 C     44  40  30     2.887441140925   113.46389544   303.26260713
 C     44  40  30     2.856581709772   108.62638285   176.82120980
 C     51  44  40     2.520364297544   126.40070758   113.44116498
 H     51  44  40     2.058059083133   114.85842849   294.91291701
 H     52  51  44     2.062811285821   119.15583458     1.60953376
 C     52  51  44     2.848141547464   126.85490057   181.10032877
 C     55  52  51     2.886943101555   113.83905346     1.66225126
 C     55  52  51     2.938046026472   109.76295524   233.07093887
 H     55  52  51     2.085947506841   106.31247237   119.72864848
 H     57  55  52     2.080670597236   105.82455437   310.94174429
 C     57  55  52     2.891918003951   112.17007734   194.11590488
 C     57  55  52     2.891409008796   112.65684393    68.40426039
 H     56  55  52     2.069613907124   110.61923621    58.82590085
 H     56  55  52     2.069927367714   111.76518503   298.93572962
 H     56  55  52     2.067128836249   111.04341771   178.23128125
 H     60  57  55     2.070689456921   110.47264377   172.04561664
 H     60  57  55     2.071458244868   111.34758386    51.99704112
 H     60  57  55     2.070940842828   111.41920917   291.25121261
 H     61  57  55     2.071400006050   111.07582962    68.76282884
 H     61  57  55     2.070431966235   111.42484571   308.25508189
 H     61  57  55     2.070327252199   110.49234382   187.98816012
 H     50  44  40     2.070067484585   110.59441708   187.28026523
 H     50  44  40     2.063212646312   111.04653225    67.83886822
 H     50  44  40     2.071877187681   111.42772327   307.49027587

---------------------
BASIS SET INFORMATION
---------------------
There are 3 groups of distinct atoms

 Group   1 Type C   : 7s4p contracted to 4s3p pattern {4111/211}
 Group   2 Type H   : 5s contracted to 3s pattern {311}
 Group   3 Type O   : 7s4p contracted to 4s3p pattern {4111/211}

Atom   0C    basis set group =>   1
Atom   1C    basis set group =>   1
Atom   2C    basis set group =>   1
Atom   3H    basis set group =>   2
Atom   4H    basis set group =>   2
Atom   5C    basis set group =>   1
Atom   6C    basis set group =>   1
Atom   7C    basis set group =>   1
Atom   8H    basis set group =>   2
Atom   9H    basis set group =>   2
Atom  10H    basis set group =>   2
Atom  11H    basis set group =>   2
Atom  12O    basis set group =>   3
Atom  13H    basis set group =>   2
Atom  14C    basis set group =>   1
Atom  15C    basis set group =>   1
Atom  16H    basis set group =>   2
Atom  17H    basis set group =>   2
Atom  18C    basis set group =>   1
Atom  19H    basis set group =>   2
Atom  20C    basis set group =>   1
Atom  21H    basis set group =>   2
Atom  22C    basis set group =>   1
Atom  23C    basis set group =>   1
Atom  24H    basis set group =>   2
Atom  25H    basis set group =>   2
Atom  26C    basis set group =>   1
Atom  27H    basis set group =>   2
Atom  28H    basis set group =>   2
Atom  29C    basis set group =>   1
Atom  30H    basis set group =>   2
Atom  31H    basis set group =>   2
Atom  32C    basis set group =>   1
Atom  33H    basis set group =>   2
Atom  34C    basis set group =>   1
Atom  35H    basis set group =>   2
Atom  36C    basis set group =>   1
Atom  37H    basis set group =>   2
Atom  38H    basis set group =>   2
Atom  39C    basis set group =>   1
Atom  40H    basis set group =>   2
Atom  41H    basis set group =>   2
Atom  42H    basis set group =>   2
Atom  43C    basis set group =>   1
Atom  44C    basis set group =>   1
Atom  45H    basis set group =>   2
Atom  46H    basis set group =>   2
Atom  47H    basis set group =>   2
Atom  48H    basis set group =>   2
Atom  49C    basis set group =>   1
Atom  50C    basis set group =>   1
Atom  51C    basis set group =>   1
Atom  52H    basis set group =>   2
Atom  53H    basis set group =>   2
Atom  54C    basis set group =>   1
Atom  55C    basis set group =>   1
Atom  56C    basis set group =>   1
Atom  57H    basis set group =>   2
Atom  58H    basis set group =>   2
Atom  59C    basis set group =>   1
Atom  60C    basis set group =>   1
Atom  61H    basis set group =>   2
Atom  62H    basis set group =>   2
Atom  63H    basis set group =>   2
Atom  64H    basis set group =>   2
Atom  65H    basis set group =>   2
Atom  66H    basis set group =>   2
Atom  67H    basis set group =>   2
Atom  68H    basis set group =>   2
Atom  69H    basis set group =>   2
Atom  70H    basis set group =>   2
Atom  71H    basis set group =>   2
Atom  72H    basis set group =>   2

-------------------------
BASIS SET IN INPUT FORMAT
-------------------------

 # Basis set for element : H 
 NewGTO H 
 S 3 
   1    1357.7500000000      0.0012928364
   2      54.3100000000      0.0588280685
   3       4.3448000000      0.9761499708
 S 1 
   1       0.6604910000      1.0000000000
 S 1 
   1       0.1366870000      1.0000000000
  end;

 # Basis set for element : C 
 NewGTO C 
 S 4 
   1  139534.0000000000      0.0001655246
   2    5581.3600000000      0.0074486101
   3     446.5090000000      0.1285821065
   4      67.4620000000      0.9218029311
 S 1 
   1      15.0674000000      1.0000000000
 S 1 
   1       3.9387600000      1.0000000000
 S 1 
   1       0.2999150000      1.0000000000
 P 2 
   1      28.3900000000      0.0816325586
   2       4.3676900000      0.9660360576
 P 1 
   1       0.8698170000      1.0000000000
 P 1 
   1       0.1889340000      1.0000000000
  end;

 # Basis set for element : O 
 NewGTO O 
 S 4 
   1  253789.0000000000      0.0001641076
   2   10151.6000000000      0.0074010921
   3     812.1250000000      0.1277711901
   4     122.6930000000      0.9223372164
 S 1 
   1      27.5608000000      1.0000000000
 S 1 
   1       7.3172600000      1.0000000000
 S 1 
   1       0.5792400000      1.0000000000
 P 2 
   1      53.4157000000      0.0793786106
   2       8.2177900000      0.9670506337
 P 1 
   1       1.6754400000      1.0000000000
 P 1 
   1       0.3506720000      1.0000000000
  end;

---------------------------------
AUXILIARY/J BASIS SET INFORMATION
---------------------------------
There are 3 groups of distinct atoms

 Group   1 Type C   : 12s5p4d2f1g contracted to 6s4p3d1f1g pattern {711111/2111/211/2/1}
 Group   2 Type H   : 5s2p1d contracted to 3s1p1d pattern {311/2/1}
 Group   3 Type O   : 12s5p4d2f1g contracted to 6s4p3d1f1g pattern {711111/2111/211/2/1}

Atom   0C    basis set group =>   1
Atom   1C    basis set group =>   1
Atom   2C    basis set group =>   1
Atom   3H    basis set group =>   2
Atom   4H    basis set group =>   2
Atom   5C    basis set group =>   1
Atom   6C    basis set group =>   1
Atom   7C    basis set group =>   1
Atom   8H    basis set group =>   2
Atom   9H    basis set group =>   2
Atom  10H    basis set group =>   2
Atom  11H    basis set group =>   2
Atom  12O    basis set group =>   3
Atom  13H    basis set group =>   2
Atom  14C    basis set group =>   1
Atom  15C    basis set group =>   1
Atom  16H    basis set group =>   2
Atom  17H    basis set group =>   2
Atom  18C    basis set group =>   1
Atom  19H    basis set group =>   2
Atom  20C    basis set group =>   1
Atom  21H    basis set group =>   2
Atom  22C    basis set group =>   1
Atom  23C    basis set group =>   1
Atom  24H    basis set group =>   2
Atom  25H    basis set group =>   2
Atom  26C    basis set group =>   1
Atom  27H    basis set group =>   2
Atom  28H    basis set group =>   2
Atom  29C    basis set group =>   1
Atom  30H    basis set group =>   2
Atom  31H    basis set group =>   2
Atom  32C    basis set group =>   1
Atom  33H    basis set group =>   2
Atom  34C    basis set group =>   1
Atom  35H    basis set group =>   2
Atom  36C    basis set group =>   1
Atom  37H    basis set group =>   2
Atom  38H    basis set group =>   2
Atom  39C    basis set group =>   1
Atom  40H    basis set group =>   2
Atom  41H    basis set group =>   2
Atom  42H    basis set group =>   2
Atom  43C    basis set group =>   1
Atom  44C    basis set group =>   1
Atom  45H    basis set group =>   2
Atom  46H    basis set group =>   2
Atom  47H    basis set group =>   2
Atom  48H    basis set group =>   2
Atom  49C    basis set group =>   1
Atom  50C    basis set group =>   1
Atom  51C    basis set group =>   1
Atom  52H    basis set group =>   2
Atom  53H    basis set group =>   2
Atom  54C    basis set group =>   1
Atom  55C    basis set group =>   1
Atom  56C    basis set group =>   1
Atom  57H    basis set group =>   2
Atom  58H    basis set group =>   2
Atom  59C    basis set group =>   1
Atom  60C    basis set group =>   1
Atom  61H    basis set group =>   2
Atom  62H    basis set group =>   2
Atom  63H    basis set group =>   2
Atom  64H    basis set group =>   2
Atom  65H    basis set group =>   2
Atom  66H    basis set group =>   2
Atom  67H    basis set group =>   2
Atom  68H    basis set group =>   2
Atom  69H    basis set group =>   2
Atom  70H    basis set group =>   2
Atom  71H    basis set group =>   2
Atom  72H    basis set group =>   2

-------------------------------------
AUXILIARY/J BASIS SET IN INPUT FORMAT
-------------------------------------

 # Auxiliary/J basis set for element : H 
 NewAuxJGTO H 
 S 3 
   1      15.6752927000      0.1007184237
   2       3.6063578000      0.3404257499
   3       1.2080016000      0.6491996172
 S 1 
   1       0.4726794000      1.0000000000
 S 1 
   1       0.2018100000      1.0000000000
 P 2 
   1       2.0281365000      0.5596620919
   2       0.5358730000      0.5596620919
 D 1 
   1       2.2165124000      1.0000000000
  end;

 # Auxiliary/J basis set for element : C 
 NewAuxJGTO C 
 S 7 
   1    1861.0916331000      0.0134602335
   2     642.9939764000      0.0299160374
   3     235.1105725000      0.1008649584
   4      90.7028894000      0.2370970548
   5      36.7794552000      0.3924037254
   6      15.6046273000      0.3195862154
   7       6.8907294000      0.0530104441
 S 1 
   1       3.1478850000     -1.0000000000
 S 1 
   1       1.4777287000      1.0000000000
 S 1 
   1       0.7076466000      1.0000000000
 S 1 
   1       0.3430122000      1.0000000000
 S 1 
   1       0.1669453000      1.0000000000
 P 2 
   1      13.5472892000     -0.6769313712
   2       5.4669419000     -0.3779500978
 P 1 
   1       2.1751721000      1.0000000000
 P 1 
   1       0.8582194000      1.0000000000
 P 1 
   1       0.3376720000      1.0000000000
 D 2 
   1       5.9287253000     -0.3533329857
   2       1.9809209000     -0.7456525731
 D 1 
   1       0.8055417000     -1.0000000000
 D 1 
   1       0.3531244000     -1.0000000000
 F 2 
   1       1.6755626000      0.6311076882
   2       0.5997536000      0.4968166032
 G 1 
   1       1.0024600000     -1.0000000000
  end;

 # Auxiliary/J basis set for element : O 
 NewAuxJGTO O 
 S 7 
   1    2876.8216605000      0.0168151159
   2    1004.7443032000      0.0340137548
   3     369.7579954000      0.1194951309
   4     142.9442404000      0.2664627624
   5      57.8366425000      0.4202764046
   6      24.3864983000      0.2765077335
   7      10.6622662000      0.0057008815
 S 1 
   1       4.8070437000     -1.0000000000
 S 1 
   1       2.2210770000      1.0000000000
 S 1 
   1       1.0447795000      1.0000000000
 S 1 
   1       0.4968425000      1.0000000000
 S 1 
   1       0.2371384000      1.0000000000
 P 2 
   1      64.2613382000     -0.2731534179
   2      16.3006076000     -0.8168011598
 P 1 
   1       4.3550542000      1.0000000000
 P 1 
   1       1.2019554000      1.0000000000
 P 1 
   1       0.3354196000      1.0000000000
 D 2 
   1       9.2146611000     -0.4661230638
   2       2.8435251000     -0.6600908911
 D 1 
   1       0.9955759000     -1.0000000000
 D 1 
   1       0.3649441000     -1.0000000000
 F 2 
   1       2.6420115000      0.5931563945
   2       0.7345613000      0.5931563945
 G 1 
   1       1.3931000000     -1.0000000000
  end;



           ************************************************************
           *        Program running with 4 parallel MPI-processes     *
           *              working on a common directory               *
           ************************************************************
------------------------------------------------------------------------------
                           ORCA GTO INTEGRAL CALCULATION
                           -- RI-GTO INTEGRALS CHOSEN --
------------------------------------------------------------------------------
------------------------------------------------------------------------------
                   ___                                                        
                  /   \      - P O W E R E D   B Y -                         
                 /     \                                                     
                 |  |  |   _    _      __       _____    __    __             
                 |  |  |  | |  | |    /  \     |  _  \  |  |  /  |          
                  \  \/   | |  | |   /    \    | | | |  |  | /  /          
                 / \  \   | |__| |  /  /\  \   | |_| |  |  |/  /          
                |  |  |   |  __  | /  /__\  \  |    /   |      \           
                |  |  |   | |  | | |   __   |  |    \   |  |\   \          
                \     /   | |  | | |  |  |  |  | |\  \  |  | \   \       
                 \___/    |_|  |_| |__|  |__|  |_| \__\ |__|  \__/        
                                                                              
                      - O R C A' S   B I G   F R I E N D -                    
                                      &                                       
                       - I N T E G R A L  F E E D E R -                       
                                                                              
 v1 FN, 2020, v2 2021                                                         
------------------------------------------------------------------------------


Reading SHARK input file inpJ.SHARKINP.tmp ... ok
----------------------
SHARK INTEGRAL PACKAGE
----------------------

Number of atoms                             ...     73
Number of basis functions                   ...    509
Number of shells                            ...    335
Maximum angular momentum                    ...      1
Integral batch strategy                     ... SHARK/LIBINT Hybrid
RI-J (if used) integral strategy            ... SPLIT-RIJ (Revised 2003 algorithm where possible)
Printlevel                                  ...      1
Contraction scheme used                     ... SEGMENTED contraction
Coulomb Range Separation                    ... NOT USED
Exchange Range Separation                   ... NOT USED
Finite Nucleus Model                        ... NOT USED
Auxiliary Coulomb fitting basis             ... AVAILABLE
   # of basis functions in Aux-J            ...   1905
   # of shells in Aux-J                     ...    655
   Maximum angular momentum in Aux-J        ...      4
Auxiliary J/K fitting basis                 ... NOT available
Auxiliary Correlation fitting basis         ... NOT available
Auxiliary 'external' fitting basis          ... NOT available
Integral threshold                          ...     3.000000e-11
Primitive cut-off                           ...     1.000000e-12
Primitive pair pre-selection threshold      ...     1.000000e-12

Calculating pre-screening integrals         ... done (  0.0 sec) Dimension = 335
Organizing shell pair data                  ... done (  0.1 sec)
Shell pair information
Total number of shell pairs                 ...     56280
Shell pairs after pre-screening             ...     21413
Total number of primitive shell pairs       ...    145865
Primitive shell pairs kept                  ...     36805
          la=0 lb=0:  10770 shell pairs
          la=1 lb=0:   8806 shell pairs
          la=1 lb=1:   1837 shell pairs

Calculating one electron integrals          ... done (  0.0 sec)
Calculating RI/J V-Matrix + Cholesky decomp.... done (  0.2 sec)
Calculating Nuclear repulsion               ... done (  0.0 sec) ENN=   2745.318725756476 Eh

SHARK setup successfully completed in   0.5 seconds

Maximum memory used throughout the entire GTOINT-calculation: 46.0 MB


           ************************************************************
           *        Program running with 4 parallel MPI-processes     *
           *              working on a common directory               *
           ************************************************************
-------------------------------------------------------------------------------
                                 ORCA SCF
-------------------------------------------------------------------------------

------------
SCF SETTINGS
------------
Hamiltonian:
 Density Functional     Method          .... DFT(GTOs)
 Exchange Functional    Exchange        .... PBE
   PBE kappa parameter   XKappa         ....  0.804000
   PBE mue parameter    XMuePBE         ....  0.219520
 Correlation Functional Correlation     .... PBE
   PBE beta parameter  CBetaPBE         ....  0.066725
 LDA part of GGA corr.  LDAOpt          .... PW91-LDA
 Gradients option       PostSCFGGA      .... off
 Hybrid DFT is turned on
   Fraction HF Exchange ScalHFX         ....  0.250000
   Scaling of DF-GGA-X  ScalDFX         ....  0.750000
   Scaling of DF-GGA-C  ScalDFC         ....  1.000000
   Scaling of DF-LDA-C  ScalLDAC        ....  1.000000
   Perturbative correction              ....  0.000000
   Density functional embedding theory  .... OFF
   NL short-range parameter             ....  6.900000
 RI-approximation to the Coulomb term is turned on
   Number of AuxJ basis functions       .... 1905
   RIJ-COSX (HFX calculated with COS-X)).... on


General Settings:
 Integral files         IntName         .... inpJ
 Hartree-Fock type      HFTyp           .... RHF
 Total Charge           Charge          ....    0
 Multiplicity           Mult            ....    1
 Number of Electrons    NEL             ....  220
 Basis Dimension        Dim             ....  509
 Nuclear Repulsion      ENuc            ....   2745.3187257565 Eh

Convergence Acceleration:
 DIIS                   CNVDIIS         .... on
   Start iteration      DIISMaxIt       ....    12
   Startup error        DIISStart       ....  0.200000
   # of expansion vecs  DIISMaxEq       ....     5
   Bias factor          DIISBfac        ....   1.050
   Max. coefficient     DIISMaxC        ....  10.000
 Trust-Rad. Augm. Hess. CNVTRAH         .... auto
   Auto Start mean grad. ratio tolernc. ....  1.125000
   Auto Start start iteration           ....    20
   Auto Start num. interpolation iter.  ....    10
   Max. Number of Micro iterations      ....    16
   Max. Number of Macro iterations      .... Maxiter - #DIIS iter
   Number of Davidson start vectors     ....     2
   Converg. threshold I  (grad. norm)   ....   1.000e-04
   Converg. threshold II (energy diff.) ....   1.000e-07
   Grad. Scal. Fac. for Micro threshold ....   0.100
   Minimum threshold for Micro iter.    ....   0.010
   NR start threshold (gradient norm)   ....   0.001
   Initial trust radius                 ....   0.400
   Minimum AH scaling param. (alpha)    ....   1.000
   Maximum AH scaling param. (alpha)    .... 1000.000
   Orbital update algorithm             .... Taylor
   White noise on init. David. guess    .... on
   Maximum white noise                  ....   0.010
   Quad. conv. algorithm                .... NR
 SOSCF                  CNVSOSCF        .... off
 Level Shifting         CNVShift        .... on
   Level shift para.    LevelShift      ....    0.2500
   Turn off err/grad.   ShiftErr        ....    0.0010
 Zerner damping         CNVZerner       .... off
 Static damping         CNVDamp         .... on
   Fraction old density DampFac         ....    0.7000
   Max. Damping (<1)    DampMax         ....    0.9800
   Min. Damping (>=0)   DampMin         ....    0.0000
   Turn off err/grad.   DampErr         ....    0.1000
 Fernandez-Rico         CNVRico         .... off

SCF Procedure:
 Maximum # iterations   MaxIter         ....   125
 SCF integral mode      SCFMode         .... Direct
   Integral package                     .... SHARK and LIBINT hybrid scheme
 Reset frequency        DirectResetFreq ....    20
 Integral Threshold     Thresh          ....  3.000e-11 Eh
 Primitive CutOff       TCut            ....  1.000e-12 Eh

Convergence Tolerance:
 Convergence Check Mode ConvCheckMode   .... Total+1el-Energy
 Convergence forced     ConvForced      .... 0
 Energy Change          TolE            ....  1.000e-07 Eh
 1-El. energy change                    ....  1.000e-04 Eh
 DIIS Error             TolErr          ....  1.000e-07


Diagonalization of the overlap matrix:
Smallest eigenvalue                        ... 7.551e-03
Time for diagonalization                   ...    0.046 sec
Threshold for overlap eigenvalues          ... 1.000e-08
Number of eigenvalues below threshold      ... 0
Time for construction of square roots      ...    0.028 sec
Total time needed                          ...    0.076 sec

Time for model grid setup =    0.781 sec

------------------------------
INITIAL GUESS: MODEL POTENTIAL
------------------------------
Loading Hartree-Fock densities                     ... done
Calculating cut-offs                               ... done
Initializing the effective Hamiltonian             ... done
Setting up the integral package (SHARK)            ... done
Starting the Coulomb interaction                   ... done (   0.4 sec)
Reading the grid                                   ... done
Mapping shells                                     ... done
Starting the XC term evaluation                    ... done (   0.2 sec)
  promolecular density results
     # of electrons  =    219.975850677
     EX              =   -164.434511617
     EC              =     -7.326412264
     EX+EC           =   -171.760923880
Transforming the Hamiltonian                       ... done (   0.0 sec)
Diagonalizing the Hamiltonian                      ... done (   0.0 sec)
Back transforming the eigenvectors                 ... done (   0.0 sec)
Now organizing SCF variables                       ... done
                      ------------------
                      INITIAL GUESS DONE (   1.5 sec)
                      ------------------
-------------------
DFT GRID GENERATION
-------------------

General Integration Accuracy     IntAcc      ... 4.388
Radial Grid Type                 RadialGrid  ... OptM3 with GC (2021)
Angular Grid (max. ang.)         AngularGrid ... 4 (Lebedev-302)
Angular grid pruning method      GridPruning ... 4 (adaptive)
Weight generation scheme         WeightScheme... Becke
Basis function cutoff            BFCut       ... 1.0000e-11
Integration weight cutoff        WCut        ... 1.0000e-14
Angular grids for H and He will be reduced by one unit
Partially contracted basis set               ... off
Rotationally invariant grid construction     ... off

Total number of grid points                  ...   309971
Total number of batches                      ...     4881
Average number of points per batch           ...       63
Average number of grid points per atom       ...     4246
Time for grid setup =    2.816 sec

--------------------
COSX GRID GENERATION
--------------------

GRIDX 1
-------
General Integration Accuracy     IntAcc      ... 3.816
Radial Grid Type                 RadialGrid  ... OptM3 with GC (2021)
Angular Grid (max. ang.)         AngularGrid ... 1 (Lebedev-50)
Angular grid pruning method      GridPruning ... 4 (adaptive)
Weight generation scheme         WeightScheme... Becke
Basis function cutoff            BFCut       ... 1.0000e-11
Integration weight cutoff        WCut        ... 1.0000e-14
Angular grids for H and He will be reduced by one unit
Partially contracted basis set               ... on
Rotationally invariant grid construction     ... off

Total number of grid points                  ...    39466
Total number of batches                      ...      660
Average number of points per batch           ...       59
Average number of grid points per atom       ...      541
UseSFitting                                  ... on

GRIDX 2
-------
General Integration Accuracy     IntAcc      ... 4.020
Radial Grid Type                 RadialGrid  ... OptM3 with GC (2021)
Angular Grid (max. ang.)         AngularGrid ... 2 (Lebedev-110)
Angular grid pruning method      GridPruning ... 4 (adaptive)
Weight generation scheme         WeightScheme... Becke
Basis function cutoff            BFCut       ... 1.0000e-11
Integration weight cutoff        WCut        ... 1.0000e-14
Angular grids for H and He will be reduced by one unit
Partially contracted basis set               ... on
Rotationally invariant grid construction     ... off

Total number of grid points                  ...    81552
Total number of batches                      ...     1314
Average number of points per batch           ...       62
Average number of grid points per atom       ...     1117
UseSFitting                                  ... on

GRIDX 3
-------
General Integration Accuracy     IntAcc      ... 4.338
Radial Grid Type                 RadialGrid  ... OptM3 with GC (2021)
Angular Grid (max. ang.)         AngularGrid ... 3 (Lebedev-194)
Angular grid pruning method      GridPruning ... 4 (adaptive)
Weight generation scheme         WeightScheme... Becke
Basis function cutoff            BFCut       ... 1.0000e-11
Integration weight cutoff        WCut        ... 1.0000e-14
Angular grids for H and He will be reduced by one unit
Partially contracted basis set               ... on
Rotationally invariant grid construction     ... off

Total number of grid points                  ...   176451
Total number of batches                      ...     2794
Average number of points per batch           ...       63
Average number of grid points per atom       ...     2417
UseSFitting                                  ... on

Time for X-Grid setup             =    2.691 sec


--------------------
CPCM SOLVATION MODEL
--------------------
CPCM parameters:
  Epsilon                                         ...       4.9000
  Refrac                                          ...       1.4500
  Rsolv                                           ...       1.3000
  Surface type                                    ... GAUSSIAN VDW
  Epsilon function type                           ...         CPCM
Radii:
 Radius for C  used is    3.8550 Bohr (=   2.0400 Ang.)
 Radius for H  used is    2.4944 Bohr (=   1.3200 Ang.)
 Radius for O  used is    3.4469 Bohr (=   1.8240 Ang.)
Calculating surface                               ...        done! (  0.0s)
GEPOL surface points                              ...         3629
GEPOL Volume                                      ...    3587.1788
GEPOL Surface-area                                ...    1782.5468
Calculating surface distance matrix               ...        done! (  0.1s)
Performing Cholesky decomposition & store         ...        done! (  0.5s)
Overall time for CPCM initialization              ...                 0.6s
--------------
SCF ITERATIONS
--------------
ITER       Energy         Delta-E        Max-DP      RMS-DP      [F,P]     Damp
               ***  Starting incremental Fock matrix formation  ***

  HOMO= 109 E= -3.891 eV LUMO=  7.785 eV gap=  11.676 eV
  0  -1165.0068291597   0.000000000000 0.09742773  0.00106726  0.1937731 0.7000

  HOMO= 109 E= -4.740 eV LUMO=  7.089 eV gap=  11.829 eV
  1  -1165.2263991525  -0.219569992812 0.06537222  0.00078490  0.0943322 0.7000
                               ***Turning on DIIS***

  HOMO= 109 E= -5.339 eV LUMO=  6.531 eV gap=  11.870 eV
  2  -1165.3275994584  -0.101200305895 0.10346647  0.00138894  0.0376738 0.0000

  HOMO= 109 E= -5.905 eV LUMO=  5.989 eV gap=  11.894 eV
  3  -1165.4722764109  -0.144676952544 0.05144931  0.00057288  0.0453216 0.0000

  HOMO= 109 E= -5.986 eV LUMO=  5.908 eV gap=  11.895 eV
  4  -1165.5080107386  -0.035734327662 0.01173201  0.00013434  0.0061899 0.0000

  HOMO= 109 E= -5.932 eV LUMO=  5.970 eV gap=  11.902 eV
  5  -1165.5088749607  -0.000864222055 0.00284297  0.00003818  0.0043403 0.0000

  HOMO= 109 E= -5.919 eV LUMO=  5.983 eV gap=  11.902 eV
  6  -1165.5089502955  -0.000075334847 0.00116105  0.00001161  0.0010905 0.0000

  HOMO= 109 E= -5.920 eV LUMO= -0.821 eV gap=   5.099 eV
  7  -1165.5089550003  -0.000004704784 0.00049102  0.00000594  0.0002227 0.0000
               *** Restarting incremental Fock matrix formation ***
                                   *** Resetting DIIS ***

  HOMO= 109 E= -5.920 eV LUMO= -0.820 eV gap=   5.100 eV
  8  -1165.5090435229  -0.000088522646 0.00041143  0.00000274  0.0001100 0.0000

  HOMO= 109 E= -5.920 eV LUMO= -0.820 eV gap=   5.100 eV
  9  -1165.5090435820  -0.000000059074 0.00012831  0.00000123  0.0001423 0.0000

  HOMO= 109 E= -5.920 eV LUMO= -0.820 eV gap=   5.100 eV
 10  -1165.5090436713  -0.000000089256 0.00006428  0.00000041  0.0000413 0.0000

  HOMO= 109 E= -5.920 eV LUMO= -0.820 eV gap=   5.100 eV
 11  -1165.5090436950  -0.000000023779 0.00002431  0.00000017  0.0000217 0.0000

  HOMO= 109 E= -5.920 eV LUMO= -0.820 eV gap=   5.100 eV
 12  -1165.5090436820   0.000000013054 0.00000708  0.00000005  0.0000037 0.0000
                 **** Energy Check signals convergence ****

               *****************************************************
               *                     SUCCESS                       *
               *           SCF CONVERGED AFTER  13 CYCLES          *
               *****************************************************

Old exchange energy                            =    -42.068150060 Eh
New exchange energy                            =    -42.068163773 Eh
Exchange energy change after final integration =     -0.000013713 Eh
Total energy after final integration           =  -1165.509057402 Eh
Final COS-X integration done in                =    13.454 sec

----------------
TOTAL SCF ENERGY
----------------

Total Energy       :        -1165.50905740 Eh          -31715.11382 eV

Components:
Nuclear Repulsion  :         2745.31872576 Eh           74703.92040 eV
Electronic Energy  :        -3910.82778316 Eh         -106419.03422 eV
One Electron Energy:        -7032.65297944 Eh         -191368.21654 eV
Two Electron Energy:         3121.82519629 Eh           84949.18232 eV
Max COSX asymmetry :            0.00000203 Eh               0.00006 eV
CPCM Dielectric    :           -0.01531677 Eh              -0.41679 eV

Virial components:
Potential Energy   :        -2322.41169751 Eh          -63196.03511 eV
Kinetic Energy     :         1156.90264010 Eh           31480.92130 eV
Virial Ratio       :            2.00743919


DFT components:
N(Alpha)           :      110.000104346714 electrons
N(Beta)            :      110.000104346714 electrons
N(Total)           :      220.000208693428 electrons
E(X)               :     -125.747329114270 Eh       
E(C)               :       -7.327568273659 Eh       
E(XC)              :     -133.074897387929 Eh       
DFET-embed. en.    :        0.000000000000 Eh       
CPCM Solvation Model Properties:
Surface-charge          :           -0.03475931
Charge-correction       :           -0.00005471 Eh              -0.00149 eV
Free-energy (cav+disp)  :  This term is not implemented in the current solvation scheme

---------------
SCF CONVERGENCE
---------------

  Last Energy change         ...   -6.5661e-09  Tolerance :   1.0000e-07
  Last MAX-Density change    ...    0.0000e+00  Tolerance :   1.0000e-05
  Last RMS-Density change    ...    0.0000e+00  Tolerance :   1.0000e-06
  Last DIIS Error            ...    2.6802e-06  Tolerance :   1.0000e-07

             **** THE GBW FILE WAS UPDATED (inpJ.gbw) ****
             **** DENSITY inpJ.scfp WAS UPDATED ****
             **** ENERGY FILE WAS UPDATED (inpJ.en.tmp) ****
             **** THE GBW FILE WAS UPDATED (inpJ.gbw) ****
             **** DENSITY inpJ.scfp WAS UPDATED ****
----------------
ORBITAL ENERGIES
----------------

  NO   OCC          E(Eh)            E(eV) 
   0   2.0000     -19.215044      -522.8679 
   1   2.0000     -10.301360      -280.3143 
   2   2.0000     -10.269475      -279.4466 
   3   2.0000     -10.266741      -279.3722 
   4   2.0000     -10.261892      -279.2403 
   5   2.0000     -10.256463      -279.0925 
   6   2.0000     -10.253375      -279.0085 
   7   2.0000     -10.251714      -278.9633 
   8   2.0000     -10.250610      -278.9333 
   9   2.0000     -10.249213      -278.8953 
  10   2.0000     -10.248735      -278.8823 
  11   2.0000     -10.246303      -278.8161 
  12   2.0000     -10.246080      -278.8100 
  13   2.0000     -10.245591      -278.7967 
  14   2.0000     -10.243877      -278.7501 
  15   2.0000     -10.243165      -278.7307 
  16   2.0000     -10.242352      -278.7086 
  17   2.0000     -10.241848      -278.6949 
  18   2.0000     -10.241359      -278.6816 
  19   2.0000     -10.241056      -278.6733 
  20   2.0000     -10.239021      -278.6179 
  21   2.0000     -10.235256      -278.5155 
  22   2.0000     -10.234711      -278.5006 
  23   2.0000     -10.233453      -278.4664 
  24   2.0000     -10.224664      -278.2272 
  25   2.0000     -10.224107      -278.2121 
  26   2.0000     -10.223853      -278.2052 
  27   2.0000     -10.221751      -278.1480 
  28   2.0000     -10.220613      -278.1170 
  29   2.0000      -1.045778       -28.4571 
  30   2.0000      -0.901032       -24.5183 
  31   2.0000      -0.883658       -24.0456 
  32   2.0000      -0.859539       -23.3893 
  33   2.0000      -0.845777       -23.0148 
  34   2.0000      -0.822127       -22.3712 
  35   2.0000      -0.814190       -22.1552 
  36   2.0000      -0.795062       -21.6347 
  37   2.0000      -0.794733       -21.6258 
  38   2.0000      -0.775954       -21.1148 
  39   2.0000      -0.757857       -20.6223 
  40   2.0000      -0.739905       -20.1338 
  41   2.0000      -0.728393       -19.8206 
  42   2.0000      -0.714015       -19.4293 
  43   2.0000      -0.701863       -19.0987 
  44   2.0000      -0.699271       -19.0281 
  45   2.0000      -0.694043       -18.8859 
  46   2.0000      -0.673684       -18.3319 
  47   2.0000      -0.668766       -18.1980 
  48   2.0000      -0.636426       -17.3180 
  49   2.0000      -0.622008       -16.9257 
  50   2.0000      -0.619460       -16.8564 
  51   2.0000      -0.608114       -16.5476 
  52   2.0000      -0.597561       -16.2605 
  53   2.0000      -0.572863       -15.5884 
  54   2.0000      -0.556754       -15.1500 
  55   2.0000      -0.541378       -14.7316 
  56   2.0000      -0.534350       -14.5404 
  57   2.0000      -0.529583       -14.4107 
  58   2.0000      -0.515054       -14.0153 
  59   2.0000      -0.509541       -13.8653 
  60   2.0000      -0.502527       -13.6744 
  61   2.0000      -0.491993       -13.3878 
  62   2.0000      -0.486685       -13.2434 
  63   2.0000      -0.480153       -13.0656 
  64   2.0000      -0.475915       -12.9503 
  65   2.0000      -0.470332       -12.7984 
  66   2.0000      -0.464231       -12.6324 
  67   2.0000      -0.459393       -12.5007 
  68   2.0000      -0.456982       -12.4351 
  69   2.0000      -0.453570       -12.3423 
  70   2.0000      -0.448915       -12.2156 
  71   2.0000      -0.441026       -12.0009 
  72   2.0000      -0.437773       -11.9124 
  73   2.0000      -0.431805       -11.7500 
  74   2.0000      -0.430270       -11.7082 
  75   2.0000      -0.422101       -11.4860 
  76   2.0000      -0.413806       -11.2602 
  77   2.0000      -0.412630       -11.2282 
  78   2.0000      -0.409838       -11.1523 
  79   2.0000      -0.406095       -11.0504 
  80   2.0000      -0.401804       -10.9336 
  81   2.0000      -0.397511       -10.8168 
  82   2.0000      -0.397186       -10.8080 
  83   2.0000      -0.387633       -10.5480 
  84   2.0000      -0.385941       -10.5020 
  85   2.0000      -0.379679       -10.3316 
  86   2.0000      -0.374282       -10.1847 
  87   2.0000      -0.370106       -10.0711 
  88   2.0000      -0.367332        -9.9956 
  89   2.0000      -0.364681        -9.9235 
  90   2.0000      -0.362211        -9.8563 
  91   2.0000      -0.357110        -9.7174 
  92   2.0000      -0.350397        -9.5348 
  93   2.0000      -0.344967        -9.3870 
  94   2.0000      -0.342262        -9.3134 
  95   2.0000      -0.340121        -9.2552 
  96   2.0000      -0.337764        -9.1910 
  97   2.0000      -0.333969        -9.0878 
  98   2.0000      -0.329400        -8.9634 
  99   2.0000      -0.328398        -8.9362 
 100   2.0000      -0.326569        -8.8864 
 101   2.0000      -0.323853        -8.8125 
 102   2.0000      -0.320447        -8.7198 
 103   2.0000      -0.316089        -8.6012 
 104   2.0000      -0.311762        -8.4835 
 105   2.0000      -0.300861        -8.1868 
 106   2.0000      -0.280010        -7.6195 
 107   2.0000      -0.274764        -7.4767 
 108   2.0000      -0.254778        -6.9329 
 109   2.0000      -0.217550        -5.9198 
 110   0.0000      -0.030126        -0.8198 
 111   0.0000       0.021335         0.5806 
 112   0.0000       0.031494         0.8570 
 113   0.0000       0.082657         2.2492 
 114   0.0000       0.094167         2.5624 
 115   0.0000       0.101553         2.7634 
 116   0.0000       0.102190         2.7807 
 117   0.0000       0.107508         2.9254 
 118   0.0000       0.109658         2.9839 
 119   0.0000       0.112675         3.0660 
 120   0.0000       0.118556         3.2261 
 121   0.0000       0.122939         3.3453 
 122   0.0000       0.127938         3.4814 
 123   0.0000       0.130357         3.5472 
 124   0.0000       0.134184         3.6513 
 125   0.0000       0.137028         3.7287 
 126   0.0000       0.139156         3.7866 
 127   0.0000       0.141715         3.8563 
 128   0.0000       0.143949         3.9171 
 129   0.0000       0.150415         4.0930 
 130   0.0000       0.154217         4.1965 
 131   0.0000       0.159883         4.3506 
 132   0.0000       0.160100         4.3565 
 133   0.0000       0.163698         4.4544 
 134   0.0000       0.165391         4.5005 
 135   0.0000       0.167596         4.5605 
 136   0.0000       0.172817         4.7026 
 137   0.0000       0.174207         4.7404 
 138   0.0000       0.177477         4.8294 
 139   0.0000       0.178889         4.8678 
 140   0.0000       0.182686         4.9711 
 141   0.0000       0.184240         5.0134 
 142   0.0000       0.188222         5.1218 
 143   0.0000       0.189898         5.1674 
 144   0.0000       0.191728         5.2172 
 145   0.0000       0.194600         5.2953 
 146   0.0000       0.195942         5.3318 
 147   0.0000       0.200898         5.4667 
 148   0.0000       0.202580         5.5125 
 149   0.0000       0.209089         5.6896 
 150   0.0000       0.216222         5.8837 
 151   0.0000       0.220220         5.9925 
 152   0.0000       0.225020         6.1231 
 153   0.0000       0.228424         6.2157 
 154   0.0000       0.231273         6.2933 
 155   0.0000       0.236504         6.4356 
 156   0.0000       0.240831         6.5533 
 157   0.0000       0.244952         6.6655 
 158   0.0000       0.246507         6.7078 
 159   0.0000       0.252205         6.8628 
 160   0.0000       0.253817         6.9067 
 161   0.0000       0.256833         6.9888 
 162   0.0000       0.264487         7.1970 
 163   0.0000       0.265992         7.2380 
 164   0.0000       0.269734         7.3398 
 165   0.0000       0.271918         7.3993 
 166   0.0000       0.278981         7.5915 
 167   0.0000       0.284738         7.7481 
 168   0.0000       0.284847         7.7511 
 169   0.0000       0.293246         7.9796 
 170   0.0000       0.296135         8.0583 
 171   0.0000       0.300247         8.1701 
 172   0.0000       0.305199         8.3049 
 173   0.0000       0.307843         8.3768 
 174   0.0000       0.311972         8.4892 
 175   0.0000       0.319955         8.7064 
 176   0.0000       0.327610         8.9147 
 177   0.0000       0.336098         9.1457 
 178   0.0000       0.352858         9.6018 
 179   0.0000       0.356545         9.7021 
 180   0.0000       0.366879         9.9833 
 181   0.0000       0.379362        10.3230 
 182   0.0000       0.381149        10.3716 
 183   0.0000       0.409495        11.1429 
 184   0.0000       0.419953        11.4275 
 185   0.0000       0.463733        12.6188 
 186   0.0000       0.486538        13.2394 
 187   0.0000       0.494074        13.4444 
 188   0.0000       0.505971        13.7682 
 189   0.0000       0.510670        13.8960 
 190   0.0000       0.521306        14.1855 
 191   0.0000       0.524576        14.2744 
 192   0.0000       0.537200        14.6180 
 193   0.0000       0.543780        14.7970 
 194   0.0000       0.563813        15.3421 
 195   0.0000       0.573654        15.6099 
 196   0.0000       0.583078        15.8664 
 197   0.0000       0.585872        15.9424 
 198   0.0000       0.606129        16.4936 
 199   0.0000       0.612275        16.6609 
 200   0.0000       0.616225        16.7683 
 201   0.0000       0.625574        17.0227 
 202   0.0000       0.626742        17.0545 
 203   0.0000       0.629105        17.1188 
 204   0.0000       0.641200        17.4479 
 205   0.0000       0.650131        17.6910 
 206   0.0000       0.658704        17.9242 
 207   0.0000       0.661794        18.0083 
 208   0.0000       0.666172        18.1274 
 209   0.0000       0.667151        18.1541 
 210   0.0000       0.676254        18.4018 
 211   0.0000       0.691074        18.8051 
 212   0.0000       0.698540        19.0082 
 213   0.0000       0.699830        19.0433 
 214   0.0000       0.706037        19.2122 
 215   0.0000       0.711601        19.3637 
 216   0.0000       0.714927        19.4542 
 217   0.0000       0.716127        19.4868 
 218   0.0000       0.725893        19.7526 
 219   0.0000       0.727133        19.7863 
 220   0.0000       0.735181        20.0053 
 221   0.0000       0.740673        20.1547 
 222   0.0000       0.743758        20.2387 
 223   0.0000       0.746477        20.3127 
 224   0.0000       0.749742        20.4015 
 225   0.0000       0.751913        20.4606 
 226   0.0000       0.755738        20.5647 
 227   0.0000       0.762021        20.7357 
 228   0.0000       0.765713        20.8361 
 229   0.0000       0.768212        20.9041 
 230   0.0000       0.772489        21.0205 
 231   0.0000       0.776370        21.1261 
 232   0.0000       0.778213        21.1763 
 233   0.0000       0.781851        21.2752 
 234   0.0000       0.788618        21.4594 
 235   0.0000       0.792929        21.5767 
 236   0.0000       0.797713        21.7069 
 237   0.0000       0.803589        21.8668 
 238   0.0000       0.815912        22.2021 
 239   0.0000       0.820546        22.3282 
 240   0.0000       0.823497        22.4085 
 241   0.0000       0.827347        22.5133 
 242   0.0000       0.836924        22.7739 
 243   0.0000       0.840901        22.8821 
 244   0.0000       0.848796        23.0969 
 245   0.0000       0.855834        23.2884 
 246   0.0000       0.858480        23.3604 
 247   0.0000       0.862913        23.4810 
 248   0.0000       0.864231        23.5169 
 249   0.0000       0.869222        23.6527 
 250   0.0000       0.871822        23.7235 
 251   0.0000       0.876435        23.8490 
 252   0.0000       0.877692        23.8832 
 253   0.0000       0.877756        23.8849 
 254   0.0000       0.879958        23.9449 
 255   0.0000       0.882958        24.0265 
 256   0.0000       0.885761        24.1028 
 257   0.0000       0.888947        24.1895 
 258   0.0000       0.892049        24.2739 
 259   0.0000       0.892235        24.2789 
 260   0.0000       0.898174        24.4406 
 261   0.0000       0.901729        24.5373 
 262   0.0000       0.903503        24.5856 
 263   0.0000       0.907403        24.6917 
 264   0.0000       0.918758        25.0007 
 265   0.0000       0.923147        25.1201 
 266   0.0000       0.927330        25.2339 
 267   0.0000       0.930138        25.3103 
 268   0.0000       0.931648        25.3514 
 269   0.0000       0.935050        25.4440 
 270   0.0000       0.940297        25.5868 
 271   0.0000       0.940848        25.6018 
 272   0.0000       0.942605        25.6496 
 273   0.0000       0.946137        25.7457 
 274   0.0000       0.949570        25.8391 
 275   0.0000       0.961322        26.1589 
 276   0.0000       0.965491        26.2723 
 277   0.0000       0.969475        26.3808 
 278   0.0000       0.973655        26.4945 
 279   0.0000       0.978491        26.6261 
 280   0.0000       0.993532        27.0354 
 281   0.0000       0.998321        27.1657 
 282   0.0000       1.003870        27.3167 
 283   0.0000       1.006499        27.3882 
 284   0.0000       1.018020        27.7017 
 285   0.0000       1.026611        27.9355 
 286   0.0000       1.028557        27.9885 
 287   0.0000       1.043062        28.3832 
 288   0.0000       1.056997        28.7624 
 289   0.0000       1.062204        28.9040 
 290   0.0000       1.065433        28.9919 
 291   0.0000       1.079187        29.3662 
 292   0.0000       1.085254        29.5313 
 293   0.0000       1.092863        29.7383 
 294   0.0000       1.097685        29.8695 
 295   0.0000       1.104305        30.0497 
 296   0.0000       1.108015        30.1506 
 297   0.0000       1.128303        30.7027 
 298   0.0000       1.141275        31.0557 
 299   0.0000       1.143252        31.1095 
 300   0.0000       1.169219        31.8161 
 301   0.0000       1.171908        31.8893 
 302   0.0000       1.203378        32.7456 
 303   0.0000       1.206109        32.8199 
 304   0.0000       1.240554        33.7572 
 305   0.0000       1.246278        33.9130 
 306   0.0000       1.253917        34.1208 
 307   0.0000       1.266591        34.4657 
 308   0.0000       1.297004        35.2933 
 309   0.0000       1.313028        35.7293 
 310   0.0000       1.330143        36.1950 
 311   0.0000       1.342862        36.5411 
 312   0.0000       1.363624        37.1061 
 313   0.0000       1.371863        37.3303 
 314   0.0000       1.406635        38.2765 
 315   0.0000       1.525404        41.5084 
 316   0.0000       1.526381        41.5349 
 317   0.0000       1.565447        42.5980 
 318   0.0000       1.605941        43.6999 
 319   0.0000       1.657399        45.1001 
 320   0.0000       6.207856       168.9244 
 321   0.0000       6.239211       169.7776 
 322   0.0000       6.240150       169.8031 
 323   0.0000       6.269117       170.5913 
 324   0.0000       6.277357       170.8156 
 325   0.0000       6.288098       171.1079 
 326   0.0000       6.302148       171.4902 
 327   0.0000       6.310934       171.7292 
 328   0.0000       6.315700       171.8589 
 329   0.0000       6.337427       172.4502 
 330   0.0000       6.344388       172.6396 
 331   0.0000       6.352609       172.8633 
 332   0.0000       6.364396       173.1840 
 333   0.0000       6.378735       173.5742 
 334   0.0000       6.385099       173.7474 
 335   0.0000       6.393566       173.9778 
 336   0.0000       6.403708       174.2537 
 337   0.0000       6.416224       174.5943 
 338   0.0000       6.420806       174.7190 
 339   0.0000       6.427449       174.8998 
 340   0.0000       6.432986       175.0505 
 341   0.0000       6.441315       175.2771 
 342   0.0000       6.450672       175.5317 
 343   0.0000       6.455897       175.6739 
 344   0.0000       6.467530       175.9904 
 345   0.0000       6.472257       176.1191 
 346   0.0000       6.474369       176.1765 
 347   0.0000       6.493292       176.6915 
 348   0.0000       6.503294       176.9636 
 349   0.0000       6.516420       177.3208 
 350   0.0000       6.519623       177.4080 
 351   0.0000       6.524389       177.5377 
 352   0.0000       6.541387       178.0002 
 353   0.0000       6.544141       178.0751 
 354   0.0000       6.550491       178.2479 
 355   0.0000       6.557250       178.4318 
 356   0.0000       6.558851       178.4754 
 357   0.0000       6.563268       178.5956 
 358   0.0000       6.570921       178.8038 
 359   0.0000       6.573351       178.8700 
 360   0.0000       6.584260       179.1668 
 361   0.0000       6.584934       179.1852 
 362   0.0000       6.594515       179.4459 
 363   0.0000       6.603061       179.6784 
 364   0.0000       6.606137       179.7621 
 365   0.0000       6.607812       179.8077 
 366   0.0000       6.612902       179.9462 
 367   0.0000       6.618280       180.0926 
 368   0.0000       6.619380       180.1225 
 369   0.0000       6.620408       180.1505 
 370   0.0000       6.625941       180.3010 
 371   0.0000       6.630070       180.4134 
 372   0.0000       6.631325       180.4475 
 373   0.0000       6.639466       180.6691 
 374   0.0000       6.641330       180.7198 
[...]
     69 H        0.000      0.000      0.000      0.000      0.000      0.000
     70 H        0.000      0.000      0.000      0.000      0.003      0.036
     71 H        0.000      0.000      0.000     -0.000      0.001      0.020
     72 H        0.000      0.000      0.000      0.000      0.001      0.012
                 25 H       27 H       28 H       30 H       31 H       33 H  
      3 H        2.501     -0.107      0.069      0.000      0.000      2.431
      4 H        0.113     -0.004      0.004      0.000      0.000      0.101
      8 H       -0.339      0.012      0.000      0.000      0.000     -0.311
      9 H        0.000      0.000      0.000      0.000      0.000      0.137
     10 H        0.000      0.000      0.000      0.000      0.000      0.000
     11 H        0.000      0.000      0.000      0.000      0.000      0.000
     13 H       -0.101      0.004     -0.004      0.000      0.000     -0.105
     16 H       -0.373      0.012     -0.007     -0.022     -0.001     -0.346
     17 H       -0.365      0.011      0.000      0.000      0.000     -0.322
     19 H        0.939     -0.048      0.022      0.085      0.006      1.153
     21 H       -2.840      0.198      0.636     -0.214     -0.026     -2.616
     24 H      -14.057      4.321      2.302      0.718     -0.504     -0.122
     25 H        0.000     13.040      5.224     -0.626     -0.354     -2.367
     27 H       13.040      0.000    -13.574      3.964     13.008      0.069
     28 H        5.224    -13.574      0.000      2.680      4.082      0.284
     30 H       -0.626      3.964      2.680      0.000    -12.968      0.018
     31 H       -0.354     13.008      4.082    -12.968      0.000     -0.322
     33 H       -2.367      0.069      0.284      0.018     -0.322      0.000
     35 H        0.000      0.000      0.000      0.000      0.000      0.000
     37 H        0.271      0.005     -0.035      0.515     -0.037      6.533
     38 H        0.191      0.001     -0.029     -0.016      0.126     12.175
     40 H       -0.013      0.019      0.150     -0.003     -0.033     -0.238
     41 H        0.013      0.022     -0.025      0.013      0.076     -0.424
     42 H       -0.018      0.015     -0.016     -0.258     -0.367     -0.212
     45 H       -0.018     -0.224      0.013     -0.207     -0.483     -0.184
     46 H        0.012      0.048      0.071     -0.341      0.028      0.936
     47 H       -0.058     -0.126     -0.145     -0.160      1.821     -0.470
     48 H       -0.017      0.028      0.024      0.039      0.007     -0.022
     52 H        0.001      0.000      0.003     -0.014     -0.001      0.004
     53 H       -0.001     -0.000     -0.000     -0.002     -0.003     -0.007
     57 H        0.000      0.000      0.000      0.003      0.005      0.010
     58 H        0.000      0.000      0.000      0.000     -0.000      0.000
     61 H        0.000      0.000      0.000     -0.000     -0.000     -0.000
     62 H        0.000      0.000      0.000     -0.000     -0.000     -0.000
     63 H        0.000      0.000      0.000      0.000      0.000     -0.000
     64 H        0.000      0.000      0.000      0.000      0.000      0.000
     65 H        0.000      0.000      0.000      0.000      0.000      0.000
     66 H        0.000      0.000      0.000      0.000      0.000      0.000
     67 H        0.000      0.000      0.000      0.000      0.000      0.000
     68 H        0.000      0.000      0.000      0.000      0.000      0.000
     69 H        0.000      0.000      0.000      0.000      0.000      0.000
     70 H        0.001     -0.010     -0.011      0.077     -0.048      0.005
     71 H        0.003     -0.007     -0.008     -0.473     -0.095      0.004
     72 H        0.000     -0.004     -0.005      0.058      0.006     -0.000
                 35 H       37 H       38 H       40 H       41 H       42 H  
      3 H       -0.076     -0.044     -0.038      0.000      0.000      0.000
      4 H       -0.166     -0.002     -0.002      0.000      0.000      0.000
      8 H        0.020      0.006      0.004      0.000      0.001      0.000
      9 H       -0.092     -0.002     -0.001      0.000     -0.000      0.000
     10 H       -0.180      0.000     -0.001      0.000      0.000      0.000
     11 H       -0.102     -0.000     -0.000      0.000      0.000      0.000
     13 H       13.742      0.002      0.001      0.000      0.000      0.000
     16 H        0.005      0.007      0.002     -0.001      0.001     -0.001
     17 H        0.007      0.005      0.004      0.000      0.002      0.000
     19 H       -0.005     -0.012      0.114      0.004     -0.009      0.006
     21 H       -0.004      0.044     -0.533     -0.010      0.058     -0.024
     24 H       -0.001     -0.053     -0.079     -0.020      0.066     -0.025
     25 H        0.000      0.271      0.191     -0.013      0.013     -0.018
     27 H        0.000      0.005      0.001      0.019      0.022      0.015
     28 H        0.000     -0.035     -0.029      0.150     -0.025     -0.016
     30 H        0.000      0.515     -0.016     -0.003      0.013     -0.258
     31 H        0.000     -0.037      0.126     -0.033      0.076     -0.367
     33 H        0.000      6.533     12.175     -0.238     -0.424     -0.212
     35 H        0.000      0.000      0.000      0.000      0.000      0.000
     37 H        0.000      0.000    -12.185      9.539      2.639     -0.260
     38 H        0.000    -12.185      0.000      6.577     11.579     -0.486
     40 H        0.000      9.539      6.577      0.000    -13.298      9.189
     41 H        0.000      2.639     11.579    -13.298      0.000      8.806
     42 H        0.000     -0.260     -0.486      9.189      8.806      0.000
     45 H        0.000      0.061      0.037     -0.082      0.005      1.134
     46 H        0.000     -0.174      0.010      0.052      0.039     -0.413
     47 H        0.000      0.067     -0.063     -0.112     -0.071     -0.084
     48 H        0.000      0.115     -0.006     -0.192     -0.422     10.591
     52 H        0.000     -0.015     -0.013      0.200     -0.185     -0.172
     53 H        0.000     -0.004     -0.006     -0.015      0.100      0.121
     57 H        0.000     -0.003      0.002      0.060      0.004     -0.151
     58 H        0.000      0.000      0.000     -0.002      0.001      0.003
     61 H        0.000      0.000      0.000     -0.006     -0.002      0.001
     62 H        0.000     -0.000     -0.000     -0.001     -0.001     -0.000
     63 H        0.000     -0.000     -0.000     -0.003     -0.001      0.001
     64 H        0.000      0.000      0.000      0.000      0.000     -0.002
     65 H        0.000      0.000      0.000     -0.000     -0.000      0.000
     66 H        0.000      0.000      0.000      0.000      0.000      0.000
     67 H        0.000      0.000      0.000      0.001     -0.000     -0.001
     68 H        0.000      0.000     -0.000     -0.000      0.000      0.001
     69 H        0.000      0.000      0.000     -0.000     -0.000      0.001
     70 H        0.000      0.065      0.016     -0.050      0.003     -0.455
     71 H        0.000     -0.006      0.000      0.084      0.031     -0.199
     72 H        0.000     -0.021      0.037      0.020     -0.044     -0.349
                 45 H       46 H       47 H       48 H       52 H       53 H  
      3 H       -0.021      0.000      0.000      0.000      0.000      0.000
      4 H       -0.001     -0.001      0.001      0.000      0.000      0.000
      8 H        0.002      0.002     -0.003      0.000      0.000      0.000
      9 H       -0.001      0.000      0.001      0.000      0.000      0.000
     10 H       -0.001      0.000      0.000      0.000      0.000      0.000
     11 H       -0.000      0.000      0.000      0.000      0.000      0.000
     13 H        0.001      0.001     -0.001      0.000      0.000      0.000
     16 H        0.002      0.002     -0.004      0.000      0.000      0.000
     17 H        0.003      0.000     -0.004      0.000      0.000      0.000
     19 H       -0.010     -0.007      0.011      0.007      0.000      0.000
     21 H        0.032      0.013     -0.017     -0.018      0.001      0.000
     24 H       -0.023     -0.017     -0.024      0.006      0.000      0.000
     25 H       -0.018      0.012     -0.058     -0.017      0.001     -0.001
     27 H       -0.224      0.048     -0.126      0.028      0.000     -0.000
     28 H        0.013      0.071     -0.145      0.024      0.003     -0.000
     30 H       -0.207     -0.341     -0.160      0.039     -0.014     -0.002
     31 H       -0.483      0.028      1.821      0.007     -0.001     -0.003
     33 H       -0.184      0.936     -0.470     -0.022      0.004     -0.007
     35 H        0.000      0.000      0.000      0.000      0.000      0.000
     37 H        0.061     -0.174      0.067      0.115     -0.015     -0.004
     38 H        0.037      0.010     -0.063     -0.006     -0.013     -0.006
     40 H       -0.082      0.052     -0.112     -0.192      0.200     -0.015
     41 H        0.005      0.039     -0.071     -0.422     -0.185      0.100
     42 H        1.134     -0.413     -0.084     10.591     -0.172      0.121
     45 H        0.000    -12.939    -13.617     -0.177      0.019     -0.035
     46 H      -12.939      0.000    -12.971     -0.098      0.004     -0.009
     47 H      -13.617    -12.971      0.000     -0.209      0.006     -0.015
     48 H       -0.177     -0.098     -0.209      0.000      4.969     -2.301
     52 H        0.019      0.004      0.006      4.969      0.000     17.152
     53 H       -0.035     -0.009     -0.015     -2.301     17.152      0.000
     57 H        0.000      0.015      0.017      2.348     -2.953      4.016
     58 H        0.000     -0.000     -0.000     -0.061      0.032     -0.314
     61 H       -0.001     -0.000     -0.000     -0.020     -0.215     -0.497
     62 H        0.000     -0.000     -0.000     -0.048     -0.255     -0.552
     63 H        0.000      0.000     -0.001     -0.056     -0.208      0.778
     64 H        0.000      0.000      0.000      0.117      0.025     -0.019
     65 H        0.000      0.000      0.000     -0.007      0.004      0.015
     66 H        0.000      0.000      0.000     -0.011      0.043      0.071
     67 H        0.000      0.000      0.000      0.029     -0.012      0.017
     68 H       -0.001     -0.000     -0.000     -0.020      0.018      0.015
     69 H        0.000      0.000      0.000     -0.009      0.010     -0.013
     70 H       -0.030     -0.021     -0.011      1.974     -0.395     -0.269
     71 H       -0.061     -0.245     -0.020      5.150      0.698     -0.227
     72 H       -0.031     -0.042      0.028     12.533     -0.528     -0.204
                 57 H       58 H       61 H       62 H       63 H       64 H  
      3 H        0.000      0.000      0.000      0.000      0.000      0.000
      4 H        0.000      0.000      0.000      0.000      0.000      0.000
      8 H        0.000      0.000      0.000      0.000      0.000      0.000
      9 H        0.000      0.000      0.000      0.000      0.000      0.000
     10 H        0.000      0.000      0.000      0.000      0.000      0.000
     11 H        0.000      0.000      0.000      0.000      0.000      0.000
     13 H        0.000      0.000      0.000      0.000      0.000      0.000
     16 H        0.000      0.000      0.000      0.000      0.000      0.000
     17 H        0.000      0.000      0.000      0.000      0.000      0.000
     19 H        0.000      0.000      0.000      0.000      0.000      0.000
     21 H        0.000      0.000      0.000      0.000      0.000      0.000
     24 H        0.000      0.000      0.000      0.000      0.000      0.000
     25 H        0.000      0.000      0.000      0.000      0.000      0.000
     27 H        0.000      0.000      0.000      0.000      0.000      0.000
     28 H        0.000      0.000      0.000      0.000      0.000      0.000
     30 H        0.003      0.000     -0.000     -0.000      0.000      0.000
     31 H        0.005     -0.000     -0.000     -0.000      0.000      0.000
     33 H        0.010      0.000     -0.000     -0.000     -0.000      0.000
     35 H        0.000      0.000      0.000      0.000      0.000      0.000
     37 H       -0.003      0.000      0.000     -0.000     -0.000      0.000
     38 H        0.002      0.000      0.000     -0.000     -0.000      0.000
     40 H        0.060     -0.002     -0.006     -0.001     -0.003      0.000
     41 H        0.004      0.001     -0.002     -0.001     -0.001      0.000
     42 H       -0.151      0.003      0.001     -0.000      0.001     -0.002
     45 H        0.000      0.000     -0.001      0.000      0.000      0.000
     46 H        0.015     -0.000     -0.000     -0.000      0.000      0.000
     47 H        0.017     -0.000     -0.000     -0.000     -0.001      0.000
     48 H        2.348     -0.061     -0.020     -0.048     -0.056      0.117
     52 H       -2.953      0.032     -0.215     -0.255     -0.208      0.025
     53 H        4.016     -0.314     -0.497     -0.552      0.778     -0.019
     57 H        0.000      2.729      3.768     12.916      3.419     -0.144
     58 H        2.729      0.000      0.529     -0.512     -0.405      4.454
     61 H        3.768      0.529      0.000    -12.686    -13.614     -0.083
     62 H       12.916     -0.512    -12.686      0.000    -12.619      0.052
     63 H        3.419     -0.405    -13.614    -12.619      0.000     -0.126
     64 H       -0.144      4.454     -0.083      0.052     -0.126      0.000
     65 H       -0.346      2.696      0.038      0.023      0.008    -12.711
     66 H       -0.296     13.039     -0.096      0.042     -0.295    -13.179
     67 H       -0.515     13.146     -0.060     -0.119     -0.013     -0.218
     68 H       -0.253      2.709      0.033     -0.008      0.084     -0.106
     69 H        0.595      4.411     -0.147     -0.092      0.041     -0.203
     70 H       -0.060      0.000      0.006     -0.005      0.026     -0.000
     71 H       -0.093     -0.003      0.018      0.015      0.127      0.000
     72 H       -0.051     -0.002     -0.006     -0.005      0.009     -0.001
                 65 H       66 H       67 H       68 H       69 H       70 H  
      3 H        0.000      0.000      0.000      0.000      0.000      0.000
      4 H        0.000      0.000      0.000      0.000      0.000      0.000
      8 H        0.000      0.000      0.000      0.000      0.000      0.000
      9 H        0.000      0.000      0.000      0.000      0.000      0.000
     10 H        0.000      0.000      0.000      0.000      0.000      0.000
     11 H        0.000      0.000      0.000      0.000      0.000      0.000
     13 H        0.000      0.000      0.000      0.000      0.000      0.000
     16 H        0.000      0.000      0.000      0.000      0.000      0.000
     17 H        0.000      0.000      0.000      0.000      0.000      0.000
     19 H        0.000      0.000      0.000      0.000      0.000      0.000
     21 H        0.000      0.000      0.000      0.000      0.000      0.003
     24 H        0.000      0.000      0.000      0.000      0.000      0.036
     25 H        0.000      0.000      0.000      0.000      0.000      0.001
     27 H        0.000      0.000      0.000      0.000      0.000     -0.010
     28 H        0.000      0.000      0.000      0.000      0.000     -0.011
     30 H        0.000      0.000      0.000      0.000      0.000      0.077
     31 H        0.000      0.000      0.000      0.000      0.000     -0.048
     33 H        0.000      0.000      0.000      0.000      0.000      0.005
     35 H        0.000      0.000      0.000      0.000      0.000      0.000
     37 H        0.000      0.000      0.000      0.000      0.000      0.065
     38 H        0.000      0.000      0.000     -0.000      0.000      0.016
     40 H       -0.000      0.000      0.001     -0.000     -0.000     -0.050
     41 H       -0.000      0.000     -0.000      0.000     -0.000      0.003
     42 H        0.000      0.000     -0.001      0.001      0.001     -0.455
     45 H        0.000      0.000      0.000     -0.001      0.000     -0.030
     46 H        0.000      0.000      0.000     -0.000      0.000     -0.021
     47 H        0.000      0.000      0.000     -0.000      0.000     -0.011
     48 H       -0.007     -0.011      0.029     -0.020     -0.009      1.974
     52 H        0.004      0.043     -0.012      0.018      0.010     -0.395
     53 H        0.015      0.071      0.017      0.015     -0.013     -0.269
     57 H       -0.346     -0.296     -0.515     -0.253      0.595     -0.060
     58 H        2.696     13.039     13.146      2.709      4.411      0.000
     61 H        0.038     -0.096     -0.060      0.033     -0.147      0.006
     62 H        0.023      0.042     -0.119     -0.008     -0.092     -0.005
     63 H        0.008     -0.295     -0.013      0.084      0.041      0.026
     64 H      -12.711    -13.179     -0.218     -0.106     -0.203     -0.000
     65 H        0.000    -11.986     -0.234      2.808     -0.116      0.000
     66 H      -11.986      0.000     -0.361     -0.277     -0.219      0.000
     67 H       -0.234     -0.361      0.000    -12.278    -12.925     -0.002
     68 H        2.808     -0.277    -12.278      0.000    -12.715     -0.005
     69 H       -0.116     -0.219    -12.925    -12.715      0.000     -0.000
     70 H        0.000      0.000     -0.002     -0.005     -0.000      0.000
     71 H        0.000      0.000     -0.000      0.001      0.002    -13.673
     72 H        0.000      0.000     -0.000     -0.002      0.000    -12.339
                 71 H       72 H  
      3 H        0.000      0.000
      4 H        0.000      0.000
      8 H        0.000      0.000
      9 H        0.000      0.000
     10 H        0.000      0.000
     11 H        0.000      0.000
     13 H        0.000      0.000
     16 H        0.000      0.000
     17 H        0.000      0.000
     19 H       -0.000      0.000
     21 H        0.001      0.001
     24 H        0.020      0.012
     25 H        0.003      0.000
     27 H       -0.007     -0.004
     28 H       -0.008     -0.005
     30 H       -0.473      0.058
     31 H       -0.095      0.006
     33 H        0.004     -0.000
     35 H        0.000      0.000
     37 H       -0.006     -0.021
     38 H        0.000      0.037
     40 H        0.084      0.020
     41 H        0.031     -0.044
     42 H       -0.199     -0.349
     45 H       -0.061     -0.031
     46 H       -0.245     -0.042
     47 H       -0.020      0.028
     48 H        5.150     12.533
     52 H        0.698     -0.528
     53 H       -0.227     -0.204
     57 H       -0.093     -0.051
     58 H       -0.003     -0.002
     61 H        0.018     -0.006
     62 H        0.015     -0.005
     63 H        0.127      0.009
     64 H        0.000     -0.001
     65 H        0.000      0.000
     66 H        0.000      0.000
     67 H       -0.000     -0.000
     68 H        0.001     -0.002
     69 H        0.002      0.000
     70 H      -13.673    -12.339
     71 H        0.000    -12.727
     72 H      -12.727      0.000

Maximum memory used throughout the entire EPRNMR-calculation: 969.3 MB

Timings for individual modules:

Sum of individual times         ...      408.893 sec (=   6.815 min)
GTO integral calculation        ...        0.699 sec (=   0.012 min)   0.2 %
SCF iterations                  ...      101.344 sec (=   1.689 min)  24.8 %
EPR/NMR calculation             ...      306.851 sec (=   5.114 min)  75.0 %
                             ****ORCA TERMINATED NORMALLY****
TOTAL RUN TIME: 0 days 0 hours 6 minutes 49 seconds 284 msec
