
                                 *****************
                                 * O   R   C   A *
                                 *****************

                                            #,                                       
                                            ###                                      
                                            ####                                     
                                            #####                                    
                                            ######                                   
                                           ########,                                 
                                     ,,################,,,,,                         
                               ,,#################################,,                 
                          ,,##########################################,,             
                       ,#########################################, ''#####,          
                    ,#############################################,,   '####,        
                  ,##################################################,,,,####,       
                ,###########''''           ''''###############################       
              ,#####''   ,,,,##########,,,,          '''####'''          '####       
            ,##' ,,,,###########################,,,                        '##       
           ' ,,###''''                  '''############,,,                           
         ,,##''                                '''############,,,,        ,,,,,,###''
      ,#''                                            '''#######################'''  
     '                                                          ''''####''''         
             ,#######,   #######,   ,#######,      ##                                
            ,#'     '#,  ##    ##  ,#'     '#,    #''#        ,####,   ,####,        
            ##       ##  ##   ,#'  ##            #'  '#       #'       #'  '#        
            ##       ##  #######   ##           ,######,      #####,   #    #        
            '#,     ,#'  ##    ##  '#,     ,#' ,#      #,     #,   #   #,  ,#        
             '#######'   ##     ##  '#######'  #'      '#     '####' # '####'        



                #########################################################
                #                        -***-                          #
                #          Department of theory and spectroscopy        #
                #                                                       #
                #                      Frank Neese                      #
                #                                                       #
                #     Directorship, Architecture, Infrastructure        #
                #                    SHARK, DRIVERS                     #
                #        Core code/Algorithms in most modules           #
                #                                                       #
                #        Max Planck Institute fuer Kohlenforschung      #
                #                Kaiser Wilhelm Platz 1                 #
                #                 D-45470 Muelheim/Ruhr                 #
                #                      Germany                          #
                #                                                       #
                #                  All rights reserved                  #
                #                        -***-                          #
                #########################################################


                         Program Version 6.0.0  -   RELEASE  -


 With contributions from (in alphabetic order):
   Daniel Aravena         : Magnetic Suceptibility
   Michael Atanasov       : Ab Initio Ligand Field Theory (pilot matlab implementation)
   Alexander A. Auer      : GIAO ZORA, VPT2 properties, NMR spectrum
   Ute Becker             : All parallelization in ORCA, NUMFREQ, NUMCALC
   Giovanni Bistoni       : ED, misc. LED, open-shell LED, HFLD
   Martin Brehm           : Molecular dynamics
   Dmytro Bykov           : pre 5.0 version of the SCF Hessian
   Marcos Casanova-Páez   : Triplet and SCS-CIS(D). UHF-(DLPNO)-IP/EA/STEOM-CCSD. UHF-CVS-IP/STEOM-CCSD
   Vijay G. Chilkuri      : MRCI spin determinant printing, contributions to CSF-ICE
   Pauline Colinet        : FMM embedding
   Dipayan Datta          : RHF DLPNO-CCSD density
   Achintya Kumar Dutta   : EOM-CC, STEOM-CC
   Nicolas Foglia         : Exact transition moments, OPA infrastructure, MCD improvements
   Dmitry Ganyushin       : Spin-Orbit,Spin-Spin,Magnetic field MRCI
   Miquel Garcia          : C-PCM and meta-GGA Hessian, CCSD/C-PCM, Gaussian charge scheme
   Tiago L. C. Gouveia    : GS-ROHF, GS-ROCIS
   Yang Guo               : DLPNO-NEVPT2, F12-NEVPT2, CIM, IAO-localization
   Andreas Hansen         : Spin unrestricted coupled pair/coupled cluster methods
   Ingolf Harden          : AUTO-CI MPn and infrastructure 
   Benjamin Helmich-Paris : MC-RPA, TRAH-(SCF,CASSCF), AVAS, COSX integrals, SCF dyn. polar.
   Lee Huntington         : MR-EOM, pCC
   Robert Izsak           : Overlap fitted RIJCOSX, COSX-SCS-MP3, EOM
   Riya Kayal             : Wick's Theorem for AUTO-CI, AUTO-CI UHF-CCSDT
   Emily Kempfer          : AUTO-CI, RHF CISDT and CCSDT
   Christian Kollmar      : KDIIS, OOCD, Brueckner-CCSD(T), CCSD density, CASPT2, CASPT2-K, improved NEVPT2
   Axel Koslowski         : Symmetry handling
   Simone Kossmann        : Meta GGA functionals, TD-DFT gradient, OOMP2, (MP2 Hessian; deprecated post 5.0)
   Lucas Lang             : DCDCAS
   Marvin Lechner         : AUTO-CI (C++ implementation), FIC-MRCC
   Spencer Leger          : CASSCF response
   Dagmar Lenk            : GEPOL surface, SMD, ORCA-2-JSON
   Dimitrios Liakos       : Extrapolation schemes; Compound Job, initial MDCI parallelization
   Dimitrios Manganas     : Further ROCIS development; embedding schemes. LFT, Crystal Embedding
   Dimitrios Pantazis     : SARC Basis sets
   Anastasios Papadopoulos: AUTO-CI, single reference methods and gradients
   Taras Petrenko         : pre 6.0 DFT Hessian and TD-DFT gradient, (ASA, deprecated), ECA, 1-Electron XAS/XES, NRVS
   Peter Pinski           : DLPNO-MP2, DLPNO-MP2 Gradient
   Christoph Reimann      : Effective Core Potentials
   Marius Retegan         : Local ZFS, SOC
   Christoph Riplinger    : Optimizer, TS searches, QM/MM, DLPNO-CCSD(T), (RO)-DLPNO pert. Triples
   Michael Roemelt        : Original ROCIS implementation
   Masaaki Saitow         : Open-shell DLPNO-CCSD energy and density
   Barbara Sandhoefer     : DKH picture change effects
   Kantharuban Sivalingam : CASSCF convergence/infrastructure, NEVPT2 and variants, FIC-MRCI
   Bernardo de Souza      : ESD, SOC TD-DFT
   Georgi Stoychev        : AutoAux, RI-MP2 NMR, DLPNO-MP2 response, X2C
   Van Anh Tran           : RI-MP2 g-tensors
   Willem Van den Heuvel  : Paramagnetic NMR
   Zikuan Wang            : NOTCH, Electric field optimization 
   Frank Wennmohs         : Technical directorship and infrastructure
   Hang Xu                : AUTO-CI-Response properties 


 We gratefully acknowledge several colleagues who have allowed us to
 interface, adapt or use parts of their codes:
   Stefan Grimme, W. Hujo, H. Kruse, P. Pracht,  : VdW corrections, initial TS optimization,
                  C. Bannwarth, S. Ehlert,         DFT functionals, gCP, sTDA/sTD-DF
                  L. Wittmann, M. Mueller
   Ed Valeev, F. Pavosevic, A. Kumar             : LibInt (2-el integral package), F12 methods
   Garnet Chan, S. Sharma, J. Yang, R. Olivares  : DMRG
   Ulf Ekstrom                                   : XCFun DFT Library
   Mihaly Kallay                                 : mrcc  (arbitrary order and MRCC methods)
   Frank Weinhold                                : gennbo (NPA and NBO analysis)
   Simon Mueller                                 : openCOSMO-RS
   Christopher J. Cramer and Donald G. Truhlar   : smd solvation model
   Lars Goerigk                                  : TD-DFT with DH, B97 family of functionals
   V. Asgeirsson, H. Jonsson                     : NEB implementation
   FAccTs GmbH                                   : IRC, NEB, NEB-TS, DLPNO-Multilevel, CI-OPT
                                                   MM, QMMM, 2- and 3-layer-ONIOM, Crystal-QMMM,
                                                   LR-CPCM, SF, NACMEs, symmetry and pop. for TD-DFT,
                                                   nearIR, NL-DFT gradient (VV10), updates on ESD,
                                                   ML-optimized integration grids, MBIS, APM,
                                                   GOAT, DOCKER, SOLVATOR, interface openCOSMO-RS
   S Lehtola, MJT Oliveira, MAL Marques          : LibXC Library
   Liviu Ungur et al                             : ANISO software


 Your calculation uses the libint2 library for the computation of 2-el integrals
 For citations please refer to: http://libint.valeyev.net

 Your ORCA version has been built with support for libXC version: 6.2.2
 For citations please refer to: https://libxc.gitlab.io

 This ORCA versions uses:
   CBLAS   interface :  Fast vector & matrix operations
   LAPACKE interface :  Fast linear algebra routines
   SCALAPACK package :  Parallel linear algebra routines
   Shared memory     :  Shared parallel matrices
   BLAS/LAPACK       :  OpenBLAS 0.3.27  USE64BITINT DYNAMIC_ARCH NO_AFFINITY Zen SINGLE_THREADED
        Core in use  :  Zen
   Copyright (c) 2011-2014, The OpenBLAS Project


NOTE: MaxCore=8000 MB was set to SCF,MP2,MDCI,CIPSI,MRCI and CIS
      => If you want to overwrite this, your respective input block should be placed after the MaxCore statement
Your calculation utilizes the atom-pairwise dispersion correction
based on EEQ partial charges (D4)


================================================================================

----- Orbital basis set information -----
Your calculation utilizes the basis: def2-SVP
   F. Weigend and R. Ahlrichs, Phys. Chem. Chem. Phys. 7, 3297 (2005).

----- AuxJ basis set information -----
Your calculation utilizes the auxiliary basis: def2/J
   F. Weigend, Phys. Chem. Chem. Phys. 8, 1057 (2006).

================================================================================
                                        WARNINGS
                       Please study these warnings very carefully!
================================================================================

WARNING: Old DensityContainer found on disk!
         Will remove this file - 
         If you want to keep old densities, please start your calculation with a different basename. 


================================================================================
                                       INPUT FILE
================================================================================
NAME = inpS
|  1> ! wb97x-d4
|  2> ! def2-svp
|  3> ! def2/J RIJCOSX
|  4> ! DEFGRID2
|  5> ! scfconv7
|  6> ! smallprint printgap noloewdin
|  7> ! NOSOSCF
|  8> %MaxCore 8000
|  9> %output
| 10>        print[P_BondOrder_M] 1
| 11>        print[P_Mayer] 1
| 12>        print[P_basis] 2
| 13> end
| 14> %pal
| 15>     nprocs 4
| 16> end
| 17> ! CPCM(chloroform)
| 18> *xyz 0 1
| 19> C   -5.0507508800   0.2641967600   0.3215146500
| 20> C   -6.4574780800  -0.1556776200  -0.0345912800
| 21> C   -7.0122567200   0.6533996600  -1.2133751400
| 22> H   -7.1219674100   0.0264256400   0.8271947800
| 23> H   -6.4950596900  -1.2260101000  -0.2653043200
| 24> C   -4.8787914000   1.7224169100   0.4945906300
| 25> C   -5.4747088600   2.5575705200  -0.6161056200
| 26> C   -6.9219875700   2.1468349700  -0.9198613200
| 27> H   -4.8732985000   2.4058725500  -1.5252678300
| 28> H   -5.4201864800   3.6211499200  -0.3611102900
| 29> H   -7.3071129400   2.7153106500  -1.7745746800
| 30> H   -7.5600318400   2.3742281400  -0.0524886600
| 31> O   -8.3510522500   0.2525928200  -1.5332664300
| 32> H   -6.4254486200   0.4228409000  -2.1135445600
| 33> C   -4.0559625000  -0.6493796500   0.4184033300
| 34> C   -4.2896870300   2.2729140300   1.5622629400
| 35> H   -3.8905953400   1.6615718100   2.3669015600
| 36> H   -4.2036623100   3.3526616500   1.6587362800
| 37> C   -2.6586476800  -0.3741089200   0.6610896200
| 38> H   -4.3404058800  -1.6884395300   0.2579656100
| 39> C   -1.6804308100  -1.2880700400   0.8381323700
| 40> H   -2.3796533400   0.6766351200   0.6939071900
| 41> C   -1.8685117000  -2.7837790600   0.8721175900
| 42> C   -0.9162256700  -3.5023418800  -0.1022303800
| 43> H   -2.9017415600  -3.0774088300   0.6678289500
| 44> H   -1.6369140500  -3.1273711000   1.8930981900
| 45> C    0.5456553500  -3.0686277500   0.0723530200
| 46> H   -1.2414512800  -3.3047764600  -1.1315338000
| 47> H   -0.9982349400  -4.5858437500   0.0479430300
| 48> C    0.7030921000  -1.5447496000  -0.0210328300
| 49> H    1.1601819100  -3.5798523700  -0.6758769700
| 50> H    0.9042012000  -3.3954408100   1.0602237800
| 51> C   -0.2453298000  -0.9102848600   1.0445590000
| 52> H    0.0624871000  -1.3756554100   1.9994584100
| 53> C    0.1838109500   0.5527333700   1.1011693900
| 54> H   -8.9049781900   0.4472804600  -0.7654123100
| 55> C    1.7187187800   0.4859955600   0.9076530100
| 56> H   -0.1068556500   1.0319793400   2.0420042300
| 57> H   -0.2811100000   1.1244591000   0.2901689700
| 58> C    2.0628532700  -0.9673101400   0.4614818800
| 59> H    2.2544987800   0.7432523300   1.8267273800
| 60> H    2.0508212900   1.2016107000   0.1463221800
| 61> H    2.3477538100  -1.5487223100   1.3539142700
| 62> C    3.2680025600  -0.9935737600  -0.4999002600
| 63> C    0.3634264100  -1.0396801600  -1.4301592300
| 64> H   -0.6985463600  -1.1730200400  -1.6586263300
| 65> H    0.9420020000  -1.5833522100  -2.1851514200
| 66> H    0.5900528900   0.0253093800  -1.5425601700
| 67> H    3.0221804800  -0.3826300800  -1.3813402000
| 68> C    3.6429383000  -2.4068740200  -0.9719600900
| 69> C    4.4626228800  -0.3722673900   0.1758739200
| 70> C    5.1175438400   0.6991743900  -0.2688983900
| 71> H    4.7902270200  -0.8801392000   1.0861217100
| 72> H    4.7569299600   1.1691878300  -1.1881417000
| 73> C    6.3742835500   1.3215500700   0.2949958800
| 74> C    7.5282710900   1.0084856200  -0.6768566300
| 75> C    6.6912917300   0.9289217700   1.7512468700
| 76> H    6.2292979600   2.4156258200   0.2824762400
| 77> H    6.6989967100  -0.1701024100   1.8126653100
| 78> C    5.6261162700   1.4709394200   2.7108537300
| 79> C    8.0703269900   1.4286180600   2.1958045200
| 80> H    7.2236726200   1.2076294800  -1.7099838900
| 81> H    7.8046636300  -0.0507604800  -0.6076135500
| 82> H    8.4146578400   1.6143300400  -0.4670101700
| 83> H    5.8162931400   1.1323995100   3.7354173100
| 84> H    4.6187009700   1.1557421200   2.4270806600
| 85> H    5.6478462800   2.5683568500   2.7122147400
| 86> H    8.1549011400   2.5130287100   2.0465806700
| 87> H    8.8848336900   0.9459658900   1.6483627800
| 88> H    8.2197778100   1.2260698600   3.2620502900
| 89> H    4.5750186100  -2.3778800700  -1.5464762700
| 90> H    2.8682408500  -2.8393488400  -1.6101118300
| 91> H    3.7926363500  -3.0756172400  -0.1154035600
| 92> *
| 93> %eprnmr
| 94>  Nuclei = all C { shift }
| 95>  origin giao
| 96>  giao_2el giao_2el_same_as_scf
| 97>  giao_1el giao_1el_analytic
| 98> end
| 99> 
|100>                          ****END OF INPUT****
================================================================================

                       ****************************
                       * Single Point Calculation *
                       ****************************

---------------------------------
CARTESIAN COORDINATES (ANGSTROEM)
---------------------------------
  C     -5.050751    0.264197    0.321515
  C     -6.457478   -0.155678   -0.034591
  C     -7.012257    0.653400   -1.213375
  H     -7.121967    0.026426    0.827195
  H     -6.495060   -1.226010   -0.265304
  C     -4.878791    1.722417    0.494591
  C     -5.474709    2.557571   -0.616106
  C     -6.921988    2.146835   -0.919861
  H     -4.873298    2.405873   -1.525268
  H     -5.420186    3.621150   -0.361110
  H     -7.307113    2.715311   -1.774575
  H     -7.560032    2.374228   -0.052489
  O     -8.351052    0.252593   -1.533266
  H     -6.425449    0.422841   -2.113545
  C     -4.055962   -0.649380    0.418403
  C     -4.289687    2.272914    1.562263
  H     -3.890595    1.661572    2.366902
  H     -4.203662    3.352662    1.658736
  C     -2.658648   -0.374109    0.661090
  H     -4.340406   -1.688440    0.257966
  C     -1.680431   -1.288070    0.838132
  H     -2.379653    0.676635    0.693907
  C     -1.868512   -2.783779    0.872118
  C     -0.916226   -3.502342   -0.102230
  H     -2.901742   -3.077409    0.667829
  H     -1.636914   -3.127371    1.893098
  C      0.545655   -3.068628    0.072353
  H     -1.241451   -3.304776   -1.131534
  H     -0.998235   -4.585844    0.047943
  C      0.703092   -1.544750   -0.021033
  H      1.160182   -3.579852   -0.675877
  H      0.904201   -3.395441    1.060224
  C     -0.245330   -0.910285    1.044559
  H      0.062487   -1.375655    1.999458
  C      0.183811    0.552733    1.101169
  H     -8.904978    0.447280   -0.765412
  C      1.718719    0.485996    0.907653
  H     -0.106856    1.031979    2.042004
  H     -0.281110    1.124459    0.290169
  C      2.062853   -0.967310    0.461482
  H      2.254499    0.743252    1.826727
  H      2.050821    1.201611    0.146322
  H      2.347754   -1.548722    1.353914
  C      3.268003   -0.993574   -0.499900
  C      0.363426   -1.039680   -1.430159
  H     -0.698546   -1.173020   -1.658626
  H      0.942002   -1.583352   -2.185151
  H      0.590053    0.025309   -1.542560
  H      3.022180   -0.382630   -1.381340
  C      3.642938   -2.406874   -0.971960
  C      4.462623   -0.372267    0.175874
  C      5.117544    0.699174   -0.268898
  H      4.790227   -0.880139    1.086122
  H      4.756930    1.169188   -1.188142
  C      6.374284    1.321550    0.294996
  C      7.528271    1.008486   -0.676857
  C      6.691292    0.928922    1.751247
  H      6.229298    2.415626    0.282476
  H      6.698997   -0.170102    1.812665
  C      5.626116    1.470939    2.710854
  C      8.070327    1.428618    2.195805
  H      7.223673    1.207629   -1.709984
  H      7.804664   -0.050760   -0.607614
  H      8.414658    1.614330   -0.467010
  H      5.816293    1.132400    3.735417
  H      4.618701    1.155742    2.427081
  H      5.647846    2.568357    2.712215
  H      8.154901    2.513029    2.046581
  H      8.884834    0.945966    1.648363
  H      8.219778    1.226070    3.262050
  H      4.575019   -2.377880   -1.546476
  H      2.868241   -2.839349   -1.610112
  H      3.792636   -3.075617   -0.115404

----------------------------
CARTESIAN COORDINATES (A.U.)
----------------------------
  NO LB      ZA    FRAG     MASS         X           Y           Z
   0 C     6.0000    0    12.011   -9.544536    0.499260    0.607575
   1 C     6.0000    0    12.011  -12.202865   -0.294188   -0.065368
   2 C     6.0000    0    12.011  -13.251245    1.234746   -2.292947
   3 H     1.0000    0     1.008  -13.458568    0.049937    1.563172
   4 H     1.0000    0     1.008  -12.273884   -2.316823   -0.501353
   5 C     6.0000    0    12.011   -9.219580    3.254896    0.934641
   6 C     6.0000    0    12.011  -10.345700    4.833108   -1.164271
   7 C     6.0000    0    12.011  -13.080661    4.056930   -1.738286
   8 H     1.0000    0     1.008   -9.209200    4.546440   -2.882338
   9 H     1.0000    0     1.008  -10.242668    6.842982   -0.682400
  10 H     1.0000    0     1.008  -13.808442    5.131193   -3.353460
  11 H     1.0000    0     1.008  -14.286390    4.486641   -0.099189
  12 O     8.0000    0    15.999  -15.781202    0.477331   -2.897454
  13 H     1.0000    0     1.008  -12.142338    0.799053   -3.994020
  14 C     6.0000    0    12.011   -7.664658   -1.227150    0.790668
  15 C     6.0000    0    12.011   -8.106334    4.295185    2.952249
  16 H     1.0000    0     1.008   -7.352160    3.139916    4.472796
  17 H     1.0000    0     1.008   -7.943771    6.335612    3.134557
  18 C     6.0000    0    12.011   -5.024116   -0.706963    1.249278
  19 H     1.0000    0     1.008   -8.202178   -3.190688    0.487484
  20 C     6.0000    0    12.011   -3.175554   -2.434100    1.583841
  21 H     1.0000    0     1.008   -4.496893    1.278655    1.311295
  22 C     6.0000    0    12.011   -3.530975   -5.260580    1.648063
  23 C     6.0000    0    12.011   -1.731416   -6.618467   -0.193187
  24 H     1.0000    0     1.008   -5.483497   -5.815460    1.262014
  25 H     1.0000    0     1.008   -3.093319   -5.909875    3.577437
  26 C     6.0000    0    12.011    1.031139   -5.798866    0.136727
  27 H     1.0000    0     1.008   -2.346003   -6.245122   -2.138289
  28 H     1.0000    0     1.008   -1.886391   -8.665989    0.090599
  29 C     6.0000    0    12.011    1.328652   -2.919154   -0.039746
  30 H     1.0000    0     1.008    2.192426   -6.764941   -1.277222
  31 H     1.0000    0     1.008    1.708693   -6.416453    2.003533
  32 C     6.0000    0    12.011   -0.463606   -1.720189    1.973930
  33 H     1.0000    0     1.008    0.118084   -2.599612    3.778429
  34 C     6.0000    0    12.011    0.347352    1.044515    2.080909
  35 H     1.0000    0     1.008  -16.827970    0.845238   -1.446420
  36 C     6.0000    0    12.011    3.247908    0.918399    1.715216
  37 H     1.0000    0     1.008   -0.201928    1.950158    3.858829
  38 H     1.0000    0     1.008   -0.531221    2.124920    0.548340
  39 C     6.0000    0    12.011    3.898228   -1.827951    0.872074
  40 H     1.0000    0     1.008    4.260385    1.404543    3.452014
  41 H     1.0000    0     1.008    3.875491    2.270715    0.276509
  42 H     1.0000    0     1.008    4.436612   -2.926661    2.558527
  43 C     6.0000    0    12.011    6.175630   -1.877582   -0.944675
  44 C     6.0000    0    12.011    0.686776   -1.964711   -2.702609
  45 H     1.0000    0     1.008   -1.320061   -2.216687   -3.134350
  46 H     1.0000    0     1.008    1.780126   -2.992102   -4.129338
  47 H     1.0000    0     1.008    1.115038    0.047828   -2.915016
  48 H     1.0000    0     1.008    5.711093   -0.723066   -2.610355
  49 C     6.0000    0    12.011    6.884156   -4.548333   -1.836738
  50 C     6.0000    0    12.011    8.433135   -0.703483    0.332354
  51 C     6.0000    0    12.011    9.670756    1.321248   -0.508144
  52 H     1.0000    0     1.008    9.052217   -1.663222    2.052473
  53 H     1.0000    0     1.008    8.989295    2.209445   -2.245262
  54 C     6.0000    0    12.011   12.045650    2.497368    0.557461
  55 C     6.0000    0    12.011   14.226371    1.905762   -1.279074
  56 C     6.0000    0    12.011   12.644709    1.755408    3.309377
  57 H     1.0000    0     1.008   11.771667    4.564871    0.533803
  58 H     1.0000    0     1.008   12.659269   -0.321447    3.425441
  59 C     6.0000    0    12.011   10.631819    2.779673    5.122771
  60 C     6.0000    0    12.011   15.250708    2.699697    4.149469
  61 H     1.0000    0     1.008   13.650763    2.282089   -3.231401
  62 H     1.0000    0     1.008   14.748677   -0.095923   -1.148223
  63 H     1.0000    0     1.008   15.901399    3.050642   -0.882521
  64 H     1.0000    0     1.008   10.991201    2.139925    7.058916
  65 H     1.0000    0     1.008    8.728080    2.184036    4.586518
  66 H     1.0000    0     1.008   10.672883    4.853491    5.125343
  67 H     1.0000    0     1.008   15.410530    4.748936    3.867477
  68 H     1.0000    0     1.008   16.789902    1.787616    3.114954
  69 H     1.0000    0     1.008   15.533129    2.316936    6.164382
  70 H     1.0000    0     1.008    8.645532   -4.493542   -2.922417
  71 H     1.0000    0     1.008    5.420190   -5.365592   -3.042670
  72 H     1.0000    0     1.008    7.167044   -5.812074   -0.218081

--------------------------------
INTERNAL COORDINATES (ANGSTROEM)
--------------------------------
 C      0   0   0     0.000000000000     0.00000000     0.00000000
 C      1   0   0     1.510624818935     0.00000000     0.00000000
 C      2   1   0     1.533596026667   111.80372424     0.00000000
 H      2   1   3     1.103350751211   109.31905206   241.48347658
 H      2   1   3     1.095560359806   110.67914691   122.93793640
 C      1   2   3     1.478489554742   114.20739729    50.32969043
 C      6   1   2     1.512033508621   114.38941107   312.01333785
 C      3   2   1     1.524679608025   110.32654976   305.19365822
 H      7   6   1     1.100582854359   108.37981658   290.26039237
 H      7   6   1     1.095078284118   110.22934944   172.98620608
 H      8   3   2     1.096367218195   109.69472657   179.15934040
 H      8   3   2     1.100519638879   108.65018052   296.62316725
 O      3   2   1     1.433649201010   111.21264470   180.48452348
 H      3   2   1     1.099002307887   109.01063674    65.29964947
 C      1   2   3     1.354109742304   120.89464513   232.41291917
 C      6   1   2     1.337914496305   123.39773175   129.74049009
 H     16   6   1     1.086488286074   121.41387717     0.68023339
 H     16   6   1     1.087456794856   120.94194805   181.34494873
 C     15   1   2     1.444700424427   126.44258591   175.55308290
 H     15   1   2     1.089171121840   116.18254965   358.08349813
 C     19  15   1     1.350398944369   126.41978293   175.69309093
 H     19  15   1     1.087647862246   115.92791820   355.16177036
 C     21  19  15     1.507870978854   125.72877242   357.36027793
 C     23  21  19     1.540303598601   111.80025203   127.97566475
 H     23  21  19     1.093396649830   112.33617298     3.84298487
 H     23  21  19     1.101859495132   107.69686911   246.58918015
 C     24  23  21     1.534823581638   112.64890684    50.97413485
 H     24  23  21     1.097392055285   109.03281866   288.86902603
 H     24  23  21     1.096929293861   109.14586925   172.90100798
 C     27  24  23     1.534832845387   111.79862023   306.04988509
 H     27  24  23     1.094916262997   108.96006875   182.51766137
 H     27  24  23     1.100568281027   109.17699353    66.01392153
 C     21  19  15     1.498281850889   122.76897606   178.10883695
 H     33  21  19     1.105962872773   106.22716353   123.73336634
 C     33  21  19     1.525709297631   121.08499376     1.59291203
 H     13   3   2     0.966611180245   107.55285812    62.80985641
 C     35  33  21     1.548497520569   103.46433329   195.86910080
 H     35  33  21     1.095141072317   112.13883134    73.89198005
 H     35  33  21     1.095784413712   110.70224266   314.28195356
 C     30  27  24     1.554093695622   116.08898625   166.36173693
 H     37  35  33     1.094503975188   111.72502921   250.06401443
 H     37  35  33     1.096367519792   111.03285829   131.52433912
 H     40  30  27     1.102562469812   106.34737960   321.03557388
 C     40  30  27     1.541859334711   118.94453579    81.83434985
 C     30  27  24     1.534960954344   111.09117245   294.25270894
 H     45  30  27     1.094423548542   111.48623117    66.97247129
 H     45  30  27     1.095601304424   110.63898919   306.83344895
 H     45  30  27     1.094621511327   111.62861817   187.01144354
 H     44  40  30     1.100280438331   108.38616116    61.94621850
 C     44  40  30     1.536500867929   113.45090585   301.23121873
 C     44  40  30     1.506588881120   109.45512714   179.40282423
 C     51  44  40     1.332190436657   124.87135399   239.87137265
 H     51  44  40     1.092615800333   114.81805615    60.84171966
 H     52  51  44     1.093601054868   117.65785867     0.57307591
 C     52  51  44     1.511529997547   127.97746385   184.64199951
 C     55  52  51     1.540841943070   107.68178125   107.70954917
 C     55  52  51     1.541206707104   114.74741714   340.99299553
 H     55  52  51     1.103711606096   107.13995257   222.52716839
 H     57  55  52     1.100765978632   107.96951399    53.51908063
 C     57  55  52     1.532718897664   111.01033370   294.28903593
 C     57  55  52     1.532666348145   112.09104179   171.90780245
 H     56  55  52     1.095349460335   110.46859764    46.49980569
 H     56  55  52     1.096900059559   110.18794181   287.53254399
 H     56  55  52     1.093967306913   111.92020328   166.61671339
 H     60  57  55     1.095676522523   110.82766699   176.09213081
 H     60  57  55     1.093051727897   112.08586449    54.99421153
 H     60  57  55     1.097633391142   109.91221607   295.04580125
 H     61  57  55     1.097892072150   110.60448818    55.07389298
 H     61  57  55     1.093648362247   112.39760160   294.16165606
 H     61  57  55     1.095555276088   110.16712511   174.05420547
 H     50  44  40     1.095300504203   110.14872489   187.09301693
 H     50  44  40     1.092899012826   111.74066367    67.16952618
 H     50  44  40     1.096957651669   110.74153058   306.53669619

---------------------------
INTERNAL COORDINATES (A.U.)
---------------------------
 C      0   0   0     0.000000000000     0.00000000     0.00000000
 C      1   0   0     2.854667198891     0.00000000     0.00000000
 C      2   1   0     2.898076490471   111.80372424     0.00000000
 H      2   1   3     2.085030749444   109.31905206   241.48347658
 H      2   1   3     2.070309043214   110.67914691   122.93793640
 C      1   2   3     2.793940350325   114.20739729    50.32969043
 C      6   1   2     2.857329236606   114.38941107   312.01333785
 C      3   2   1     2.881226901142   110.32654976   305.19365822
 H      7   6   1     2.079800182428   108.37981658   290.26039237
 H      7   6   1     2.069398052188   110.22934944   172.98620608
 H      8   3   2     2.071833784597   109.69472657   179.15934040
 H      8   3   2     2.079680722483   108.65018052   296.62316725
 O      3   2   1     2.709204362024   111.21264470   180.48452348
 H      3   2   1     2.076813382454   109.01063674    65.29964947
 C      1   2   3     2.558896568230   120.89464513   232.41291917
 C      6   1   2     2.528291988619   123.39773175   129.74049009
 H     16   6   1     2.053165308394   121.41387717     0.68023339
 H     16   6   1     2.054995524749   120.94194805   181.34494873
 C     15   1   2     2.730088147727   126.44258591   175.55308290
 H     15   1   2     2.058235133253   116.18254965   358.08349813
 C     19  15   1     2.551884176393   126.41978293   175.69309093
 H     19  15   1     2.055356589790   115.92791820   355.16177036
 C     21  19  15     2.849463195322   125.72877242   357.36027793
 C     23  21  19     2.910751964449   111.80025203   127.97566475
 H     23  21  19     2.066220223925   112.33617298     3.84298487
 H     23  21  19     2.082212683861   107.69686911   246.58918015
 C     24  23  21     2.900396233181   112.64890684    50.97413485
 H     24  23  21     2.073770446030   109.03281866   288.86902603
 H     24  23  21     2.072895953673   109.14586925   172.90100798
 C     27  24  23     2.900413739128   111.79862023   306.04988509
 H     27  24  23     2.069091876641   108.96006875   182.51766137
 H     27  24  23     2.079772642821   109.17699353    66.01392153
 C     21  19  15     2.831342369605   122.76897606   178.10883695
 H     33  21  19     2.089966943825   106.22716353   123.73336634
 C     33  21  19     2.883172732501   121.08499376     1.59291203
 H     13   3   2     1.826630408649   107.55285812    62.80985641
 C     35  33  21     2.926236232931   103.46433329   195.86910080
 H     35  33  21     2.069516704687   112.13883134    73.89198005
 H     35  33  21     2.070732443734   110.70224266   314.28195356
 C     30  27  24     2.936811471179   116.08898625   166.36173693
 H     37  35  33     2.068312765593   111.72502921   250.06401443
 H     37  35  33     2.071834354533   111.03285829   131.52433912
 H     40  30  27     2.083541113484   106.34737960   321.03557388
 C     40  30  27     2.913691879633   118.94453579    81.83434985
 C     30  27  24     2.900655829973   111.09117245   294.25270894
 H     45  30  27     2.068160781258   111.48623117    66.97247129
 H     45  30  27     2.070386417329   110.63898919   306.83344895
 H     45  30  27     2.068534876707   111.62861817   187.01144354
 H     44  40  30     2.079228698957   108.38616116    61.94621850
 C     44  40  30     2.903565844917   113.45090585   301.23121873
 C     44  40  30     2.847040381727   109.45512714   179.40282423
 C     51  44  40     2.517475083510   124.87135399   239.87137265
 H     51  44  40     2.064744632225   114.81805615    60.84171966
 H     52  51  44     2.066606493468   117.65785867     0.57307591
 C     52  51  44     2.856377738571   127.97746385   184.64199951
 C     55  52  51     2.911769288061   107.68178125   107.70954917
 C     55  52  51     2.912458592190   114.74741714   340.99299553
 H     55  52  51     2.085712666352   107.13995257   222.52716839
 H     57  55  52     2.080146237152   107.96951399    53.51908063
 C     57  55  52     2.896418956871   111.01033370   294.28903593
 C     57  55  52     2.896319652672   112.09104179   171.90780245
 H     56  55  52     2.069910500972   110.46859764    46.49980569
 H     56  55  52     2.072840708849   110.18794181   287.53254399
 H     56  55  52     2.067298609530   111.92020328   166.61671339
 H     60  57  55     2.070528558936   110.82766699   176.09213081
 H     60  57  55     2.065568415935   112.08586449    54.99421153
 H     60  57  55     2.074226504706   109.91221607   295.04580125
 H     61  57  55     2.074715340967   110.60448818    55.07389298
 H     61  57  55     2.066695891458   112.39760160   294.16165606
 H     61  57  55     2.070299436379   110.16712511   174.05420547
 H     50  44  40     2.069817987290   110.14872489   187.09301693
 H     50  44  40     2.065279826274   111.74066367    67.16952618
 H     50  44  40     2.072949542164   110.74153058   306.53669619

---------------------
BASIS SET INFORMATION
---------------------
There are 3 groups of distinct atoms

 Group   1 Type C   : 7s4p1d contracted to 3s2p1d pattern {511/31/1}
 Group   2 Type H   : 4s1p contracted to 2s1p pattern {31/1}
 Group   3 Type O   : 7s4p1d contracted to 3s2p1d pattern {511/31/1}

Atom   0C    basis set group =>   1
Atom   1C    basis set group =>   1
Atom   2C    basis set group =>   1
Atom   3H    basis set group =>   2
Atom   4H    basis set group =>   2
Atom   5C    basis set group =>   1
Atom   6C    basis set group =>   1
Atom   7C    basis set group =>   1
Atom   8H    basis set group =>   2
Atom   9H    basis set group =>   2
Atom  10H    basis set group =>   2
Atom  11H    basis set group =>   2
Atom  12O    basis set group =>   3
Atom  13H    basis set group =>   2
Atom  14C    basis set group =>   1
Atom  15C    basis set group =>   1
Atom  16H    basis set group =>   2
Atom  17H    basis set group =>   2
Atom  18C    basis set group =>   1
Atom  19H    basis set group =>   2
Atom  20C    basis set group =>   1
Atom  21H    basis set group =>   2
Atom  22C    basis set group =>   1
Atom  23C    basis set group =>   1
Atom  24H    basis set group =>   2
Atom  25H    basis set group =>   2
Atom  26C    basis set group =>   1
Atom  27H    basis set group =>   2
Atom  28H    basis set group =>   2
Atom  29C    basis set group =>   1
Atom  30H    basis set group =>   2
Atom  31H    basis set group =>   2
Atom  32C    basis set group =>   1
Atom  33H    basis set group =>   2
Atom  34C    basis set group =>   1
Atom  35H    basis set group =>   2
Atom  36C    basis set group =>   1
Atom  37H    basis set group =>   2
Atom  38H    basis set group =>   2
Atom  39C    basis set group =>   1
Atom  40H    basis set group =>   2
Atom  41H    basis set group =>   2
Atom  42H    basis set group =>   2
Atom  43C    basis set group =>   1
Atom  44C    basis set group =>   1
Atom  45H    basis set group =>   2
Atom  46H    basis set group =>   2
Atom  47H    basis set group =>   2
Atom  48H    basis set group =>   2
Atom  49C    basis set group =>   1
Atom  50C    basis set group =>   1
Atom  51C    basis set group =>   1
Atom  52H    basis set group =>   2
Atom  53H    basis set group =>   2
Atom  54C    basis set group =>   1
Atom  55C    basis set group =>   1
Atom  56C    basis set group =>   1
Atom  57H    basis set group =>   2
Atom  58H    basis set group =>   2
Atom  59C    basis set group =>   1
Atom  60C    basis set group =>   1
Atom  61H    basis set group =>   2
Atom  62H    basis set group =>   2
Atom  63H    basis set group =>   2
Atom  64H    basis set group =>   2
Atom  65H    basis set group =>   2
Atom  66H    basis set group =>   2
Atom  67H    basis set group =>   2
Atom  68H    basis set group =>   2
Atom  69H    basis set group =>   2
Atom  70H    basis set group =>   2
Atom  71H    basis set group =>   2
Atom  72H    basis set group =>   2

-------------------------
BASIS SET IN INPUT FORMAT
-------------------------

 # Basis set for element : H 
 NewGTO H 
 S 3 
   1      13.0107010000      0.0334854848
   2       1.9622572000      0.2347218709
   3       0.4445379600      0.8137702853
 S 1 
   1       0.1219496200      1.0000000000
 P 1 
   1       0.8000000000      1.0000000000
  end;

 # Basis set for element : C 
 NewGTO C 
 S 5 
   1    1238.4016938000      0.0055173650
   2     186.2900499200      0.0410888285
   3      42.2511763460      0.1822538213
   4      11.6765579320      0.4682845944
   5       3.5930506482      0.4457581734
 S 1 
   1       0.4024514736      1.0000000000
 S 1 
   1       0.1309018267      1.0000000000
 P 3 
   1       9.4680970621      0.0568883320
   2       2.0103545142      0.3129405934
   3       0.5477100471      0.7606501651
 P 1 
   1       0.1526861379      1.0000000000
 D 1 
   1       0.8000000000      1.0000000000
  end;

 # Basis set for element : O 
 NewGTO O 
 S 5 
   1    2266.1767785000     -0.0053893504
   2     340.8701019100     -0.0402347214
   3      77.3631351670     -0.1800818421
   4      21.4796449400     -0.4682885766
   5       6.6589433124     -0.4469261716
 S 1 
   1       0.8097597567      1.0000000000
 S 1 
   1       0.2553077223      1.0000000000
 P 3 
   1      17.7215043170      0.0626302488
   2       3.8635505440      0.3333113849
   3       1.0480920883      0.7414863830
 P 1 
   1       0.2764154441      1.0000000000
 D 1 
   1       1.2000000000      1.0000000000
  end;

---------------------------------
AUXILIARY/J BASIS SET INFORMATION
---------------------------------
There are 3 groups of distinct atoms

 Group   1 Type C   : 12s5p4d2f1g contracted to 6s4p3d1f1g pattern {711111/2111/211/2/1}
 Group   2 Type H   : 5s2p1d contracted to 3s1p1d pattern {311/2/1}
 Group   3 Type O   : 12s5p4d2f1g contracted to 6s4p3d1f1g pattern {711111/2111/211/2/1}

Atom   0C    basis set group =>   1
Atom   1C    basis set group =>   1
Atom   2C    basis set group =>   1
Atom   3H    basis set group =>   2
Atom   4H    basis set group =>   2
Atom   5C    basis set group =>   1
Atom   6C    basis set group =>   1
Atom   7C    basis set group =>   1
Atom   8H    basis set group =>   2
Atom   9H    basis set group =>   2
Atom  10H    basis set group =>   2
Atom  11H    basis set group =>   2
Atom  12O    basis set group =>   3
Atom  13H    basis set group =>   2
Atom  14C    basis set group =>   1
Atom  15C    basis set group =>   1
Atom  16H    basis set group =>   2
Atom  17H    basis set group =>   2
Atom  18C    basis set group =>   1
Atom  19H    basis set group =>   2
Atom  20C    basis set group =>   1
Atom  21H    basis set group =>   2
Atom  22C    basis set group =>   1
Atom  23C    basis set group =>   1
Atom  24H    basis set group =>   2
Atom  25H    basis set group =>   2
Atom  26C    basis set group =>   1
Atom  27H    basis set group =>   2
Atom  28H    basis set group =>   2
Atom  29C    basis set group =>   1
Atom  30H    basis set group =>   2
Atom  31H    basis set group =>   2
Atom  32C    basis set group =>   1
Atom  33H    basis set group =>   2
Atom  34C    basis set group =>   1
Atom  35H    basis set group =>   2
Atom  36C    basis set group =>   1
Atom  37H    basis set group =>   2
Atom  38H    basis set group =>   2
Atom  39C    basis set group =>   1
Atom  40H    basis set group =>   2
Atom  41H    basis set group =>   2
Atom  42H    basis set group =>   2
Atom  43C    basis set group =>   1
Atom  44C    basis set group =>   1
Atom  45H    basis set group =>   2
Atom  46H    basis set group =>   2
Atom  47H    basis set group =>   2
Atom  48H    basis set group =>   2
Atom  49C    basis set group =>   1
Atom  50C    basis set group =>   1
Atom  51C    basis set group =>   1
Atom  52H    basis set group =>   2
Atom  53H    basis set group =>   2
Atom  54C    basis set group =>   1
Atom  55C    basis set group =>   1
Atom  56C    basis set group =>   1
Atom  57H    basis set group =>   2
Atom  58H    basis set group =>   2
Atom  59C    basis set group =>   1
Atom  60C    basis set group =>   1
Atom  61H    basis set group =>   2
Atom  62H    basis set group =>   2
Atom  63H    basis set group =>   2
Atom  64H    basis set group =>   2
Atom  65H    basis set group =>   2
Atom  66H    basis set group =>   2
Atom  67H    basis set group =>   2
Atom  68H    basis set group =>   2
Atom  69H    basis set group =>   2
Atom  70H    basis set group =>   2
Atom  71H    basis set group =>   2
Atom  72H    basis set group =>   2

-------------------------------------
AUXILIARY/J BASIS SET IN INPUT FORMAT
-------------------------------------

 # Auxiliary/J basis set for element : H 
 NewAuxJGTO H 
 S 3 
   1      15.6752927000      0.1007184237
   2       3.6063578000      0.3404257499
   3       1.2080016000      0.6491996172
 S 1 
   1       0.4726794000      1.0000000000
 S 1 
   1       0.2018100000      1.0000000000
 P 2 
   1       2.0281365000      0.5596620919
   2       0.5358730000      0.5596620919
 D 1 
   1       2.2165124000      1.0000000000
  end;

 # Auxiliary/J basis set for element : C 
 NewAuxJGTO C 
 S 7 
   1    1861.0916331000      0.0134602335
   2     642.9939764000      0.0299160374
   3     235.1105725000      0.1008649584
   4      90.7028894000      0.2370970548
   5      36.7794552000      0.3924037254
   6      15.6046273000      0.3195862154
   7       6.8907294000      0.0530104441
 S 1 
   1       3.1478850000     -1.0000000000
 S 1 
   1       1.4777287000      1.0000000000
 S 1 
   1       0.7076466000      1.0000000000
 S 1 
   1       0.3430122000      1.0000000000
 S 1 
   1       0.1669453000      1.0000000000
 P 2 
   1      13.5472892000     -0.6769313712
   2       5.4669419000     -0.3779500978
 P 1 
   1       2.1751721000      1.0000000000
 P 1 
   1       0.8582194000      1.0000000000
 P 1 
   1       0.3376720000      1.0000000000
 D 2 
   1       5.9287253000     -0.3533329857
   2       1.9809209000     -0.7456525731
 D 1 
   1       0.8055417000     -1.0000000000
 D 1 
   1       0.3531244000     -1.0000000000
 F 2 
   1       1.6755626000      0.6311076882
   2       0.5997536000      0.4968166032
 G 1 
   1       1.0024600000     -1.0000000000
  end;

 # Auxiliary/J basis set for element : O 
 NewAuxJGTO O 
 S 7 
   1    2876.8216605000      0.0168151159
   2    1004.7443032000      0.0340137548
   3     369.7579954000      0.1194951309
   4     142.9442404000      0.2664627624
   5      57.8366425000      0.4202764046
   6      24.3864983000      0.2765077335
   7      10.6622662000      0.0057008815
 S 1 
   1       4.8070437000     -1.0000000000
 S 1 
   1       2.2210770000      1.0000000000
 S 1 
   1       1.0447795000      1.0000000000
 S 1 
   1       0.4968425000      1.0000000000
 S 1 
   1       0.2371384000      1.0000000000
 P 2 
   1      64.2613382000     -0.2731534179
   2      16.3006076000     -0.8168011598
 P 1 
   1       4.3550542000      1.0000000000
 P 1 
   1       1.2019554000      1.0000000000
 P 1 
   1       0.3354196000      1.0000000000
 D 2 
   1       9.2146611000     -0.4661230638
   2       2.8435251000     -0.6600908911
 D 1 
   1       0.9955759000     -1.0000000000
 D 1 
   1       0.3649441000     -1.0000000000
 F 2 
   1       2.6420115000      0.5931563945
   2       0.7345613000      0.5931563945
 G 1 
   1       1.3931000000     -1.0000000000
  end;


Checking for AutoStart:
The File: inpS.gbw exists
Trying to determine its content:
     ... Fine, the file contains calculation information
     ... Fine, the calculation information was read
     ... Fine, the file contains a basis set
     ... Fine, the basis set was read
     ... Fine, the file contains a geometry
     ... Fine, the geometry was read
     ... Fine, the file contains a set of orbitals
     ... Fine, the orbitals can be read
     => possible old guess file was deleted
     => GBW file was renamed to GES file
     => GES file is set as startup file
     => Guess is set to MORead
     ... now leaving AutoStart



           ************************************************************
           *        Program running with 4 parallel MPI-processes     *
           *              working on a common directory               *
           ************************************************************
------------------------------------------------------------------------------
                             ORCA STARTUP CALCULATIONS
                           -- RI-GTO INTEGRALS CHOSEN --
------------------------------------------------------------------------------
------------------------------------------------------------------------------
                   ___                                                        
                  /   \      - P O W E R E D   B Y -                         
                 /     \                                                     
                 |  |  |   _    _      __       _____    __    __             
                 |  |  |  | |  | |    /  \     |  _  \  |  |  /  |          
                  \  \/   | |  | |   /    \    | | | |  |  | /  /          
                 / \  \   | |__| |  /  /\  \   | |_| |  |  |/  /          
                |  |  |   |  __  | /  /__\  \  |    /   |      \           
                |  |  |   | |  | | |   __   |  |    \   |  |\   \          
                \     /   | |  | | |  |  |  |  | |\  \  |  | \   \       
                 \___/    |_|  |_| |__|  |__|  |_| \__\ |__|  \__/        
                                                                              
                      - O R C A' S   B I G   F R I E N D -                    
                                      &                                       
                       - I N T E G R A L  F E E D E R -                       
                                                                              
 v1 FN, 2020, v2 2021, v3 2022-2024                                           
------------------------------------------------------------------------------


----------------------
SHARK INTEGRAL PACKAGE
----------------------

Number of atoms                             ...     73
Number of basis functions                   ...    626
Number of shells                            ...    306
Maximum angular momentum                    ...      2
Integral batch strategy                     ... SHARK/LIBINT Hybrid
RI-J (if used) integral strategy            ... SPLIT-RIJ (Revised 2003 algorithm where possible)
Printlevel                                  ...      1
Contraction scheme used                     ... SEGMENTED contraction
Prescreening option                         ... SCHWARTZ
   Thresh                                   ... 3.000e-11
   Tcut                                     ... 1.000e-12
   Tpresel                                  ... 1.000e-12 
Coulomb Range Separation                    ... NOT USED
Exchange Range Separation                   ... Long Range
   Mu parameter                             ... 3.000e-01
   Scaling (regular/separated)              ... 1.670e-01 8.330e-01
Multipole approximations                    ... NOT USED
Finite Nucleus Model                        ... NOT USED
CABS basis                                  ... NOT available
Auxiliary Coulomb fitting basis             ... AVAILABLE
   # of basis functions in Aux-J            ...   1905
   # of shells in Aux-J                     ...    655
   Maximum angular momentum in Aux-J        ...      4
Auxiliary J/K fitting basis                 ... NOT available
Auxiliary Correlation fitting basis         ... NOT available
Auxiliary 'external' fitting basis          ... NOT available

Checking pre-screening integrals            ... done (  0.0 sec) Dimension = 306
Check shell pair data                       ... done (  0.0 sec)
Shell pair information
Shell pair cut-off parameter TPreSel        ...   1.0e-12
Total number of shell pairs                 ...     46971
Shell pairs after pre-screening             ...     27312
Total number of primitive shell pairs       ...    162105
Primitive shell pairs kept                  ...     60309
          la=0 lb=0:   9556 shell pairs
          la=1 lb=0:  10479 shell pairs
          la=1 lb=1:   2897 shell pairs
          la=2 lb=0:   2716 shell pairs
          la=2 lb=1:   1468 shell pairs
          la=2 lb=2:    196 shell pairs

Calculating one electron integrals          ... done (  0.1 sec)
Calculating RI/J V-Matrix + Cholesky decomp.... done (  0.2 sec)
Calculating Nuclear repulsion               ... done (  0.0 sec) ENN=   2767.237381647059 Eh

Diagonalization of the overlap matrix:
Smallest eigenvalue                        ... 4.512e-04
Time for diagonalization                   ...    0.043 sec
Threshold for overlap eigenvalues          ... 1.000e-07
Number of eigenvalues below threshold      ... 0
Time for construction of square roots      ...    0.024 sec
Total time needed                          ...    0.070 sec

-------------------
DFT GRID GENERATION
-------------------

General Integration Accuracy     IntAcc      ... 4.388
Radial Grid Type                 RadialGrid  ... OptM3 with GC (2021)
Angular Grid (max. ang.)         AngularGrid ... 4 (Lebedev-302)
Angular grid pruning method      GridPruning ... 4 (adaptive)
Weight generation scheme         WeightScheme... mBecke (2022)
Basis function cutoff            BFCut       ... 1.0000e-11
Integration weight cutoff        WCut        ... 1.0000e-14
Partially contracted basis set               ... off
Rotationally invariant grid construction     ... off
Angular grids for H and He will be reduced by one unit

Total number of grid points                  ...   309911
Total number of batches                      ...     4881
Average number of points per batch           ...       63
Average number of grid points per atom       ...     4245

--------------------
COSX GRID GENERATION
--------------------

GRIDX 1
-------
General Integration Accuracy     IntAcc      ... 3.816
Radial Grid Type                 RadialGrid  ... OptM3 with GC (2021)
Angular Grid (max. ang.)         AngularGrid ... 1 (Lebedev-50)
Angular grid pruning method      GridPruning ... 4 (adaptive)
Weight generation scheme         WeightScheme... mBecke (2022)
Basis function cutoff            BFCut       ... 1.0000e-11
Integration weight cutoff        WCut        ... 1.0000e-14
Partially contracted basis set               ... on
Rotationally invariant grid construction     ... off
Angular grids for H and He will be reduced by one unit

Total number of grid points                  ...    39418
Total number of batches                      ...      351
Average number of points per batch           ...      112
Average number of grid points per atom       ...      540
UseSFitting                                  ... on

GRIDX 2
-------
General Integration Accuracy     IntAcc      ... 4.020
Radial Grid Type                 RadialGrid  ... OptM3 with GC (2021)
Angular Grid (max. ang.)         AngularGrid ... 2 (Lebedev-110)
Angular grid pruning method      GridPruning ... 4 (adaptive)
Weight generation scheme         WeightScheme... mBecke (2022)
Basis function cutoff            BFCut       ... 1.0000e-11
Integration weight cutoff        WCut        ... 1.0000e-14
Partially contracted basis set               ... on
Rotationally invariant grid construction     ... off
Angular grids for H and He will be reduced by one unit

Total number of grid points                  ...    81453
Total number of batches                      ...      679
Average number of points per batch           ...      119
Average number of grid points per atom       ...     1116
UseSFitting                                  ... on

GRIDX 3
-------
General Integration Accuracy     IntAcc      ... 4.338
Radial Grid Type                 RadialGrid  ... OptM3 with GC (2021)
Angular Grid (max. ang.)         AngularGrid ... 3 (Lebedev-194)
Angular grid pruning method      GridPruning ... 4 (adaptive)
Weight generation scheme         WeightScheme... mBecke (2022)
Basis function cutoff            BFCut       ... 1.0000e-11
Integration weight cutoff        WCut        ... 1.0000e-14
Partially contracted basis set               ... on
Rotationally invariant grid construction     ... off
Angular grids for H and He will be reduced by one unit

Total number of grid points                  ...   176402
Total number of batches                      ...     1420
Average number of points per batch           ...      124
Average number of grid points per atom       ...     2416
UseSFitting                                  ... on
Initializing property integral containers    ... done (  0.0 sec)

SHARK setup successfully completed in   4.4 seconds

Maximum memory used throughout the entire STARTUP-calculation: 95.3 MB


           ************************************************************
           *        Program running with 4 parallel MPI-processes     *
           *              working on a common directory               *
           ************************************************************
-------------------------------------------------------------------------------
                                 ORCA GUESS
                   Start orbitals & Density for SCF / CASSCF
-------------------------------------------------------------------------------

------------
SCF SETTINGS
------------
Hamiltonian:
 Density Functional     Method          .... DFT(GTOs)
 Exchange Functional    Exchange        .... WB97X-V
 Correlation Functional Correlation     .... WB97X-V
 Gradients option       PostSCFGGA      .... off
 Hybrid DFT is turned on
   Fraction HF Exchange ScalHFX         ....  0.167000
   Scaling of DF-GGA-X  ScalDFX         ....  0.000000
   Scaling of DF-GGA-C  ScalDFC         ....  1.000000
   Scaling of DF-LDA-C  ScalLDAC        ....  1.000000
   Perturbative correction              ....  0.000000
 Long-range corrected/Screened/Range-Separated Hybrid DFT is turned on
   Amount of maximum screened exact exchange              ....  0.833000
   Range separation parameter mu (erf(mu*r12)/r12)        ....  0.300000
 RI-approximation to the Coulomb term is turned on
   Number of AuxJ basis functions       .... 1905
   RIJ-COSX (HFX calculated with COS-X)).... on


General Settings:
 Integral files         IntName         .... inpS
 Hartree-Fock type      HFTyp           .... RHF
 Total Charge           Charge          ....    0
 Multiplicity           Mult            ....    1
 Number of Electrons    NEL             ....  220
 Basis Dimension        Dim             ....  626
 Nuclear Repulsion      ENuc            ....   2767.2373816471 Eh

Convergence Acceleration:
 AO-DIIS                CNVDIIS         .... on
   Start iteration      DIISMaxIt       ....    12
   Startup error        DIISStart       ....  0.200000
   # of expansion vecs  DIISMaxEq       ....     5
   Bias factor          DIISBfac        ....   1.050
   Max. coefficient     DIISMaxC        ....  10.000
 MO-DIIS                CNVKDIIS        .... off
 Trust-Rad. Augm. Hess. CNVTRAH         .... auto
   Auto Start mean grad. ratio tolernc. ....  1.125000
   Auto Start start iteration           ....     1
   Auto Start num. interpolation iter.  ....    10
   Max. Number of Micro iterations      ....    24
   Max. Number of Macro iterations      .... Maxiter - #DIIS iter
   Number of Davidson start vectors     ....     2
   Converg. threshold    (grad. norm)   ....   1.000e-04
   Grad. Scal. Fac. for Micro threshold ....   0.100
   Minimum threshold for Micro iter.    ....   1.000e-02
   NR start threshold (gradient norm)   ....   1.000e-04
   Initial trust radius                 ....   0.400
   Minimum AH scaling param. (alpha)    ....   1.000
   Maximum AH scaling param. (alpha)    .... 1000.000
   Quad. conv. algorithm                .... NR
   White noise on init. David. guess    .... on
   Maximum white noise                  ....   0.010
   Pseudo random numbers                .... off
   Inactive MOs                         .... canonical
   Orbital update algorithm             .... Taylor
   Preconditioner                       .... Diag
   Full preconditioner red. dimension   ....   250
 SOSCF                  CNVSOSCF        .... off
 Level Shifting         CNVShift        .... on
   Level shift para.    LevelShift      ....    0.2500
   Turn off err/grad.   ShiftErr        ....    0.0010
 Zerner damping         CNVZerner       .... off
 Static damping         CNVDamp         .... on
   Fraction old density DampFac         ....    0.7000
   Max. Damping (<1)    DampMax         ....    0.9800
   Min. Damping (>=0)   DampMin         ....    0.0000
   Turn off err/grad.   DampErr         ....    0.1000

SCF Procedure:
 Maximum # iterations   MaxIter         ....   125
 SCF integral mode      SCFMode         .... Direct
   Integral package                     .... SHARK and LIBINT hybrid scheme
 Reset frequency        DirectResetFreq ....    20
 Integral Threshold     Thresh          ....  3.000e-11 Eh
 Primitive CutOff       TCut            ....  1.000e-12 Eh

Convergence Tolerance:
 Convergence Check Mode ConvCheckMode   .... Total+1el-Energy
 Convergence forced     ConvForced      .... 0
 Energy Change          TolE            ....  1.000e-07 Eh
 1-El. energy change                    ....  1.000e-04 Eh
 DIIS Error             TolErr          ....  1.000e-07

---------------------
INITIAL GUESS: MOREAD
---------------------
Guess MOs are being read from file: inpS.ges
Input Geometry matches current geometry (good)
Input basis set matches current basis set (good)
Occupation numbers will be reassigned to an Aufbau configuration
MOs were renormalized
MOs were reorthogonalized (Cholesky)
                      ------------------
                      INITIAL GUESS DONE (   0.2 sec)
                      ------------------
             **** ENERGY FILE WAS UPDATED (inpS.en.tmp) ****
Finished Guess after   0.3 sec
Maximum memory used throughout the entire GUESS-calculation: 52.2 MB


           ************************************************************
           *        Program running with 4 parallel MPI-processes     *
           *              working on a common directory               *
           ************************************************************

-------------------------------------------------------------------------------------------
                                      ORCA LEAN-SCF
                              memory conserving SCF solver
-------------------------------------------------------------------------------------------

--------------------
CPCM SOLVATION MODEL
--------------------
CPCM parameters:
  Epsilon                                         ...       4.8030
  Refrac                                          ...       1.4459
  Rsolv                                           ...       1.3000
  Surface type                                    ... GAUSSIAN VDW
  Discretization scheme                           ... Constant charge density
    Threshold for H atoms                         ...       5.0000 (charges/Ang^2)
    Threshold for non-H atoms                     ...       5.0000 (charges/Ang^2)
  Epsilon function type                           ...         CPCM
Solvent:                                          ... CHLOROFORM
Radii:
  Scheme                                          ... Element-dependent radii
  Radius for C  used is    3.8550 Bohr (=   2.0400 Ang.)
  Radius for H  used is    2.4944 Bohr (=   1.3200 Ang.)
  Radius for O  used is    3.4469 Bohr (=   1.8240 Ang.)
Calculating surface                               ...        done! (  0.0s)
Cavity surface points                             ...         5410
Cavity Volume                                     ...    3615.8444
Cavity Surface-area                               ...    1800.5986
Calculating surface distance matrix               ...        done! (  0.2s)
Performing Cholesky decomposition & store         ...        done! (  1.0s)
Overall time for CPCM initialization              ...                 1.2s

----------------------------------------D-I-I-S--------------------------------------------
Iteration    Energy (Eh)           Delta-E    RMSDP     MaxDP     DIISErr   Damp  Time(sec)
-------------------------------------------------------------------------------------------
               ***  Starting incremental Fock matrix formation  ***
    1    -1168.3615551055754622     0.00e+00  3.26e-08  1.80e-06  6.46e-06  0.700  23.6

  HOMO= 109 E= -7.882 eV LUMO=  8.098 eV gap=  15.980 eV
    2    -1168.3615551119437441    -6.37e-09  2.78e-08  1.45e-06  3.25e-06  0.700   4.7
                 **** Energy Check signals convergence ****

  HOMO= 109 E= -7.882 eV LUMO=  8.098 eV gap=  15.980 eV

               *****************************************************
               *                     SUCCESS                       *
               *           SCF CONVERGED AFTER   2 CYCLES          *
               *****************************************************

Recomputing exchange energy using gridx3       ... done (   45.180 sec)
Old exchange energy                            :    -56.782113211 Eh
New exchange energy                            :    -56.782084912 Eh
Exchange energy change after final integration :      0.000028299 Eh
Total energy after final integration           :  -1168.361526813 Eh
             **** ENERGY FILE WAS UPDATED (inpS.en.tmp) ****

----------------
TOTAL SCF ENERGY
----------------

Total Energy       :      -1168.36152681303520 Eh          -31792.73346 eV

Components:
Nuclear Repulsion  :       2767.23738164705946 Eh           75300.35735 eV
Electronic Energy  :      -3935.58837392273290 Eh         -107092.80415 eV
One Electron Energy:      -7079.77909680757148 Eh         -192650.58339 eV
Two Electron Energy:       3144.19072288483858 Eh           85557.77924 eV
CPCM Dielectric    :         -0.01056283627023 Eh              -0.28743 eV

Virial components:
Potential Energy   :      -2321.67572845513860 Eh          -63176.00838 eV
Kinetic Energy     :       1153.31420164210317 Eh           31383.27492 eV
Virial Ratio       :          2.01304703015840

DFT components:
N(Alpha)           :      110.000084327336 electrons
N(Beta)            :      110.000084327336 electrons
N(Total)           :      220.000168654671 electrons
E(X)               :     -111.768097586764 Eh       
E(C)               :       -8.950645898985 Eh       
E(XC)              :     -120.718743485749 Eh       

CPCM Solvation Model Properties:
Surface-charge          :         -0.04188806345733
Corrected charge        :          0.00000000000000
Outlying charge corr.   :          0.00006116221821 Eh               0.00166 eV
Free-energy (cav+disp)  :  This term is not implemented in the current solvation scheme

---------------
SCF CONVERGENCE
---------------

  Last Energy change         ...    6.3683e-09  Tolerance :   1.0000e-07
  Last MAX-Density change    ...    1.4501e-06  Tolerance :   1.0000e-05
  Last RMS-Density change    ...    2.7782e-08  Tolerance :   1.0000e-06
  Last DIIS Error            ...    3.2505e-06  Tolerance :   1.0000e-07


----------------
ORBITAL ENERGIES
----------------

  NO   OCC          E(Eh)            E(eV) 
   0   2.0000     -19.213660      -522.8303 
   1   2.0000     -10.329742      -281.0866 
   2   2.0000     -10.293392      -280.0974 
   3   2.0000     -10.290179      -280.0100 
   4   2.0000     -10.285933      -279.8945 
   5   2.0000     -10.285767      -279.8900 
   6   2.0000     -10.285072      -279.8710 
   7   2.0000     -10.283133      -279.8183 
   8   2.0000     -10.281937      -279.7857 
   9   2.0000     -10.281417      -279.7716 
  10   2.0000     -10.280802      -279.7548 
  11   2.0000     -10.280058      -279.7346 
  12   2.0000     -10.279422      -279.7173 
  13   2.0000     -10.278434      -279.6904 
  14   2.0000     -10.276847      -279.6472 
  15   2.0000     -10.276737      -279.6442 
  16   2.0000     -10.276683      -279.6427 
  17   2.0000     -10.276497      -279.6377 
  18   2.0000     -10.274201      -279.5752 
  19   2.0000     -10.272600      -279.5316 
  20   2.0000     -10.271832      -279.5108 
  21   2.0000     -10.271655      -279.5060 
  22   2.0000     -10.271087      -279.4905 
  23   2.0000     -10.270215      -279.4668 
  24   2.0000     -10.269750      -279.4541 
  25   2.0000     -10.269614      -279.4504 
  26   2.0000     -10.268239      -279.4130 
  27   2.0000     -10.266768      -279.3730 
  28   2.0000     -10.265939      -279.3504 
  29   2.0000      -1.131606       -30.7926 
  30   2.0000      -0.997864       -27.1533 
  31   2.0000      -0.979092       -26.6424 
  32   2.0000      -0.957821       -26.0636 
  33   2.0000      -0.942455       -25.6455 
  34   2.0000      -0.917147       -24.9569 
  35   2.0000      -0.910334       -24.7715 
  36   2.0000      -0.889292       -24.1989 
  37   2.0000      -0.887075       -24.1385 
  38   2.0000      -0.873368       -23.7655 
  39   2.0000      -0.852787       -23.2055 
  40   2.0000      -0.835787       -22.7429 
  41   2.0000      -0.829829       -22.5808 
  42   2.0000      -0.808276       -21.9943 
  43   2.0000      -0.797158       -21.6918 
  44   2.0000      -0.794718       -21.6254 
  45   2.0000      -0.786827       -21.4106 
  46   2.0000      -0.758928       -20.6515 
  47   2.0000      -0.751298       -20.4439 
  48   2.0000      -0.721258       -19.6264 
  49   2.0000      -0.712805       -19.3964 
  50   2.0000      -0.712115       -19.3776 
  51   2.0000      -0.699528       -19.0351 
  52   2.0000      -0.689611       -18.7653 
  53   2.0000      -0.685548       -18.6547 
  54   2.0000      -0.650141       -17.6912 
  55   2.0000      -0.642338       -17.4789 
  56   2.0000      -0.630375       -17.1534 
  57   2.0000      -0.620586       -16.8870 
  58   2.0000      -0.604999       -16.4629 
  59   2.0000      -0.598590       -16.2885 
  60   2.0000      -0.587705       -15.9923 
  61   2.0000      -0.579484       -15.7686 
  62   2.0000      -0.577644       -15.7185 
  63   2.0000      -0.567679       -15.4473 
  64   2.0000      -0.563573       -15.3356 
  65   2.0000      -0.559617       -15.2280 
  66   2.0000      -0.550074       -14.9683 
  67   2.0000      -0.547133       -14.8883 
  68   2.0000      -0.545903       -14.8548 
  69   2.0000      -0.537352       -14.6221 
  70   2.0000      -0.534513       -14.5448 
  71   2.0000      -0.530247       -14.4288 
  72   2.0000      -0.525265       -14.2932 
  73   2.0000      -0.523180       -14.2365 
  74   2.0000      -0.518128       -14.0990 
  75   2.0000      -0.511592       -13.9211 
  76   2.0000      -0.503091       -13.6898 
  77   2.0000      -0.501906       -13.6576 
  78   2.0000      -0.496817       -13.5191 
  79   2.0000      -0.492488       -13.4013 
  80   2.0000      -0.488519       -13.2933 
  81   2.0000      -0.485843       -13.2205 
  82   2.0000      -0.483692       -13.1619 
  83   2.0000      -0.479501       -13.0479 
  84   2.0000      -0.479004       -13.0344 
  85   2.0000      -0.472874       -12.8676 
  86   2.0000      -0.465582       -12.6691 
  87   2.0000      -0.461816       -12.5666 
  88   2.0000      -0.457484       -12.4488 
  89   2.0000      -0.453575       -12.3424 
  90   2.0000      -0.449289       -12.2258 
  91   2.0000      -0.444489       -12.0952 
  92   2.0000      -0.439789       -11.9673 
  93   2.0000      -0.429574       -11.6893 
  94   2.0000      -0.425900       -11.5893 
  95   2.0000      -0.424912       -11.5624 
  96   2.0000      -0.423094       -11.5130 
  97   2.0000      -0.421406       -11.4670 
  98   2.0000      -0.415760       -11.3134 
  99   2.0000      -0.414196       -11.2708 
 100   2.0000      -0.411617       -11.2007 
 101   2.0000      -0.404052       -10.9948 
 102   2.0000      -0.401996       -10.9389 
 103   2.0000      -0.400842       -10.9075 
 104   2.0000      -0.394148       -10.7253 
 105   2.0000      -0.380740       -10.3605 
 106   2.0000      -0.371898       -10.1199 
 107   2.0000      -0.357010        -9.7147 
 108   2.0000      -0.336842        -9.1659 
 109   2.0000      -0.289667        -7.8822 
 110   0.0000       0.047593         1.2951 
 111   0.0000       0.100358         2.7309 
 112   0.0000       0.109140         2.9698 
 113   0.0000       0.134913         3.6712 
 114   0.0000       0.142245         3.8707 
 115   0.0000       0.149417         4.0658 
 116   0.0000       0.154019         4.1911 
 117   0.0000       0.156404         4.2560 
 118   0.0000       0.158863         4.3229 
 119   0.0000       0.163949         4.4613 
 120   0.0000       0.169173         4.6034 
*Only the first 10 virtual orbitals were printed.

                    ********************************
                    * MULLIKEN POPULATION ANALYSIS *
                    ********************************

-----------------------
MULLIKEN ATOMIC CHARGES
-----------------------
   0 C :   -0.127291
   1 C :    0.144254
   2 C :    0.081717
   3 H :    0.016760
   4 H :    0.013351
   5 C :   -0.184464
   6 C :    0.111268
   7 C :    0.006391
   8 H :    0.029680
   9 H :    0.012216
  10 H :    0.023682
  11 H :    0.011356
  12 O :   -0.355173
  13 H :    0.014135
  14 C :   -0.024779
  15 C :   -0.044558
  16 H :    0.036382
  17 H :    0.029254
  18 C :   -0.060705
  19 H :   -0.006924
  20 C :   -0.115818
  21 H :    0.000896
  22 C :    0.114723
  23 C :   -0.000334
  24 H :    0.012802
  25 H :    0.017459
  26 C :    0.105372
  27 H :    0.012587
  28 H :    0.014905
  29 C :   -0.412740
  30 H :    0.008570
  31 H :   -0.002929
  32 C :   -0.040938
  33 H :    0.010996
  34 C :    0.115862
  35 H :    0.181720
  36 C :    0.064693
  37 H :    0.006180
  38 H :    0.015415
  39 C :   -0.034933
  40 H :    0.020600
  41 H :    0.000064
  42 H :   -0.009395
  43 C :   -0.040463
  44 C :    0.093280
  45 H :    0.023132
  46 H :    0.017957
  47 H :    0.020053
  48 H :   -0.000181
  49 C :    0.053352
  50 C :   -0.041229
  51 C :   -0.082043
  52 H :    0.012590
  53 H :    0.007798
  54 C :   -0.050216
  55 C :    0.034506
  56 C :   -0.167841
  57 H :    0.008601
  58 H :    0.016859
  59 C :    0.034966
  60 C :    0.028229
  61 H :    0.015581
  62 H :    0.016334
  63 H :    0.026944
  64 H :    0.017390
  65 H :    0.017557
  66 H :    0.009701
  67 H :    0.014005
  68 H :    0.024237
  69 H :    0.016470
  70 H :    0.016280
  71 H :    0.030946
  72 H :    0.012893
Sum of atomic charges:    0.0000000

--------------------------------
MULLIKEN REDUCED ORBITAL CHARGES
--------------------------------
  0 C s       :     3.077918  s :     3.077918
      pz      :     1.004746  p :     3.006535
      px      :     0.998600
      py      :     1.003190
      dz2     :     0.003186  d :     0.042838
      dxz     :     0.007128
      dyz     :     0.006089
      dx2y2   :     0.014683
      dxy     :     0.011752

  1 C s       :     2.932293  s :     2.932293
      pz      :     0.980371  p :     2.889013
      px      :     0.940338
      py      :     0.968304
      dz2     :     0.006794  d :     0.034440
      dxz     :     0.009292
      dyz     :     0.004921
      dx2y2   :     0.009029
      dxy     :     0.004404

  2 C s       :     3.075174  s :     3.075174
      pz      :     1.042220  p :     2.771953
      px      :     0.757972
      py      :     0.971760
      dz2     :     0.011455  d :     0.071156
      dxz     :     0.016126
      dyz     :     0.009441
      dx2y2   :     0.019400
      dxy     :     0.014734

  3 H s       :     0.960047  s :     0.960047
      pz      :     0.010908  p :     0.023193
      px      :     0.007692
      py      :     0.004592

  4 H s       :     0.963859  s :     0.963859
      pz      :     0.004471  p :     0.022790
      px      :     0.003799
      py      :     0.014519

  5 C s       :     3.111879  s :     3.111879
      pz      :     1.002450  p :     3.027789
      px      :     0.974901
      py      :     1.050439
      dz2     :     0.011225  d :     0.044796
      dxz     :     0.006729
      dyz     :     0.012032
      dx2y2   :     0.008254
      dxy     :     0.006556

  6 C s       :     2.949239  s :     2.949239
      pz      :     0.974863  p :     2.904021
      px      :     0.965799
      py      :     0.963359
      dz2     :     0.006717  d :     0.035472
      dxz     :     0.009399
      dyz     :     0.005238
      dx2y2   :     0.009231
      dxy     :     0.004887

  7 C s       :     3.013311  s :     3.013311
      pz      :     0.990484  p :     2.945277
      px      :     0.988839
      py      :     0.965954
      dz2     :     0.005160  d :     0.035021
      dxz     :     0.008366
      dyz     :     0.006821
      dx2y2   :     0.009632
      dxy     :     0.005042

  8 H s       :     0.947032  s :     0.947032
      pz      :     0.011514  p :     0.023288
      px      :     0.007217
      py      :     0.004556

  9 H s       :     0.964965  s :     0.964965
      pz      :     0.004688  p :     0.022819
      px      :     0.003730
      py      :     0.014401

 10 H s       :     0.953628  s :     0.953628
      pz      :     0.010920  p :     0.022690
      px      :     0.005149
      py      :     0.006621

 11 H s       :     0.965957  s :     0.965957
      pz      :     0.011075  p :     0.022687
      px      :     0.007228
      py      :     0.004385

 12 O s       :     3.726317  s :     3.726317
      pz      :     1.528042  p :     4.616652
      px      :     1.247871
      py      :     1.840739
      dz2     :     0.002651  d :     0.012204
      dxz     :     0.004261
      dyz     :     0.001517
      dx2y2   :     0.001820
      dxy     :     0.001955

 13 H s       :     0.965640  s :     0.965640
      pz      :     0.011238  p :     0.020224
      px      :     0.005005
      py      :     0.003981

 14 C s       :     3.197325  s :     3.197325
      pz      :     0.988512  p :     2.791226
      px      :     0.888757
      py      :     0.913957
      dz2     :     0.002679  d :     0.036227
      dxz     :     0.007646
      dyz     :     0.003370
      dx2y2   :     0.012197
      dxy     :     0.010335

 15 C s       :     3.122740  s :     3.122740
      pz      :     0.979362  p :     2.895569
      px      :     1.001419
      py      :     0.914788
      dz2     :     0.007183  d :     0.026249
      dxz     :     0.004302
      dyz     :     0.007203
      dx2y2   :     0.004720
      dxy     :     0.002841

 16 H s       :     0.939074  s :     0.939074
      pz      :     0.010476  p :     0.024544
      px      :     0.006151
      py      :     0.007917

 17 H s       :     0.946121  s :     0.946121
      pz      :     0.004106  p :     0.024625
      px      :     0.004666
      py      :     0.015854

 18 C s       :     3.201070  s :     3.201070
      pz      :     1.028428  p :     2.824334
      px      :     0.878264
      py      :     0.917642
      dz2     :     0.002784  d :     0.035301
      dxz     :     0.007018
      dyz     :     0.003157
      dx2y2   :     0.012435
      dxy     :     0.009908

 19 H s       :     0.982609  s :     0.982609
      pz      :     0.004770  p :     0.024315
      px      :     0.004335
      py      :     0.015210

 20 C s       :     3.099536  s :     3.099536
      pz      :     0.955927  p :     2.972283
      px      :     0.991283
      py      :     1.025073
      dz2     :     0.003404  d :     0.043999
      dxz     :     0.007210
      dyz     :     0.006956
      dx2y2   :     0.014723
      dxy     :     0.011706

 21 H s       :     0.974590  s :     0.974590
      pz      :     0.004636  p :     0.024513
      px      :     0.004247
      py      :     0.015631

 22 C s       :     2.924474  s :     2.924474
      pz      :     1.000176  p :     2.925242
      px      :     0.976021
      py      :     0.949045
      dz2     :     0.009228  d :     0.035562
      dxz     :     0.004377
      dyz     :     0.006215
      dx2y2   :     0.009868
      dxy     :     0.005874

 23 C s       :     3.000730  s :     3.000730
      pz      :     1.010720  p :     2.963169
      px      :     0.967493
      py      :     0.984956
      dz2     :     0.009664  d :     0.036435
      dxz     :     0.007923
      dyz     :     0.003100
      dx2y2   :     0.010292
      dxy     :     0.005455

 24 H s       :     0.963959  s :     0.963959
      pz      :     0.004766  p :     0.023239
      px      :     0.013831
      py      :     0.004643

 25 H s       :     0.959232  s :     0.959232
      pz      :     0.013264  p :     0.023310
      px      :     0.004944
      py      :     0.005102

 26 C s       :     2.971146  s :     2.971146
      pz      :     0.967398  p :     2.888135
      px      :     0.975131
      py      :     0.945606
      dz2     :     0.006647  d :     0.035347
      dxz     :     0.006833
      dyz     :     0.005881
      dx2y2   :     0.008756
      dxy     :     0.007229

 27 H s       :     0.964540  s :     0.964540
      pz      :     0.013355  p :     0.022873
      px      :     0.004567
      py      :     0.004952

 28 H s       :     0.962454  s :     0.962454
      pz      :     0.004499  p :     0.022641
      px      :     0.003807
      py      :     0.014335

 29 C s       :     3.255910  s :     3.255910
      pz      :     1.042587  p :     3.105835
      px      :     1.003746
      py      :     1.059502
      dz2     :     0.011499  d :     0.050995
      dxz     :     0.010473
      dyz     :     0.009526
      dx2y2   :     0.011045
      dxy     :     0.008453

 30 H s       :     0.968388  s :     0.968388
      pz      :     0.009519  p :     0.023042
      px      :     0.007477
      py      :     0.006045

 31 H s       :     0.980401  s :     0.980401
      pz      :     0.012799  p :     0.022528
      px      :     0.005025
      py      :     0.004704

 32 C s       :     3.031331  s :     3.031331
      pz      :     0.985198  p :     2.965749
      px      :     0.949769
      py      :     1.030781
      dz2     :     0.008247  d :     0.043858
      dxz     :     0.007603
      dyz     :     0.008165
      dx2y2   :     0.011114
      dxy     :     0.008730

 33 H s       :     0.967724  s :     0.967724
      pz      :     0.011929  p :     0.021280
      px      :     0.004332
      py      :     0.005019

 34 C s       :     2.900815  s :     2.900815
      pz      :     0.986122  p :     2.948474
      px      :     0.979828
      py      :     0.982524
      dz2     :     0.005549  d :     0.034849
      dxz     :     0.005865
      dyz     :     0.008131
      dx2y2   :     0.008870
      dxy     :     0.006434

 35 H s       :     0.750159  s :     0.750159
[...]
 Total          139.365          174.106          191.994  iso=     168.488

 Orientation: 
  X           0.2748532   -0.5184284    0.8097455
  Y          -0.1915519   -0.8548236   -0.4822702
  Z           0.9422121   -0.0225548   -0.3342569

 --------------
 Nucleus  39C :
 --------------

Diamagnetic contribution to the shielding tensor (ppm) : 
           264.042          4.802        -7.566
             4.943        259.310         8.117
            -7.735          6.409       264.771

Paramagnetic contribution to the shielding tensor (ppm): 
           -98.320         -0.508         9.419
             3.400       -124.687        -2.502
            14.155         -3.569      -134.828

Total shielding tensor (ppm): 
           165.722          4.294         1.853
             8.343        134.623         5.615
             6.420          2.841       129.943


 Diagonalized sT*s matrix:
 
 sDSO           257.179          266.705          264.239  iso=     262.708
 sPSO          -129.731         -131.453          -96.650  iso=    -119.278
        ---------------  ---------------  ---------------
 Total          127.448          135.252          167.590  iso=     143.430

 Orientation: 
  X          -0.0077795   -0.2307848   -0.9729737
  Y          -0.5056601    0.8403409   -0.1952818
  Z           0.8626977    0.4904748   -0.1232361

 --------------
 Nucleus  43C :
 --------------

Diamagnetic contribution to the shielding tensor (ppm) : 
           257.991         -0.083        -6.332
            -3.094        243.796        10.130
           -11.076         13.858       249.933

Paramagnetic contribution to the shielding tensor (ppm): 
           -93.964         -3.531         5.273
             6.716        -93.622        -8.320
            12.191        -12.309       -97.136

Total shielding tensor (ppm): 
           164.027         -3.615        -1.060
             3.622        150.174         1.811
             1.115          1.549       152.797


 Diagonalized sT*s matrix:
 
 sDSO           235.523          258.161          258.037  iso=     250.573
 sPSO           -86.167         -104.544          -94.012  iso=     -94.907
        ---------------  ---------------  ---------------
 Total          149.355          153.618          164.025  iso=     155.666

 Orientation: 
  X           0.0094925    0.0054809   -0.9999399
  Y           0.8965333    0.4428412    0.0109382
  Z          -0.4428746    0.8965833    0.0007102

 --------------
 Nucleus  44C :
 --------------

Diamagnetic contribution to the shielding tensor (ppm) : 
           251.142          0.706         1.613
            -1.483        255.956        -2.378
            -0.592          1.874       273.195

Paramagnetic contribution to the shielding tensor (ppm): 
           -71.962         -4.865        -1.774
            -0.929        -76.254        -1.266
             0.638         -5.573       -80.461

Total shielding tensor (ppm): 
           179.181         -4.159        -0.161
            -2.412        179.703        -3.644
             0.046         -3.699       192.734


 Diagonalized sT*s matrix:
 
 sDSO           253.788          254.396          272.110  iso=     260.098
 sPSO           -78.044          -72.263          -78.369  iso=     -76.225
        ---------------  ---------------  ---------------
 Total          175.744          182.132          193.741  iso=     183.872

 Orientation: 
  X           0.6857051   -0.7257491    0.0556488
  Y           0.7109324    0.6513781   -0.2651071
  Z           0.1561528    0.2213478    0.9626118

 --------------
 Nucleus  49C :
 --------------

Diamagnetic contribution to the shielding tensor (ppm) : 
           242.598         -6.098        -3.005
           -18.079        255.696         6.885
           -11.628          8.057       246.565

Paramagnetic contribution to the shielding tensor (ppm): 
           -69.368          2.155        -3.097
            17.942        -69.295         2.475
             7.109         -1.115       -78.292

Total shielding tensor (ppm): 
           173.230         -3.943        -6.102
            -0.137        186.401         9.360
            -4.519          6.942       168.272


 Diagonalized sT*s matrix:
 
 sDSO           240.538          239.449          264.871  iso=     248.286
 sPSO           -77.287          -65.203          -74.465  iso=     -72.318
        ---------------  ---------------  ---------------
 Total          163.251          174.246          190.406  iso=     175.968

 Orientation: 
  X           0.4082723   -0.8861069    0.2193816
  Y          -0.2763067   -0.3490052   -0.8954608
  Z           0.8700393    0.3049752   -0.3873264

 --------------
 Nucleus  50C :
 --------------

Diamagnetic contribution to the shielding tensor (ppm) : 
           265.540         13.291         8.010
            14.386        257.656        -3.099
            12.589        -12.398       256.834

Paramagnetic contribution to the shielding tensor (ppm): 
          -204.671        -35.752       -93.584
           -35.956       -154.871        44.798
           -87.569         64.276      -233.137

Total shielding tensor (ppm): 
            60.870        -22.461       -85.574
           -21.569        102.785        41.699
           -74.980         51.878        23.697


 Diagonalized sT*s matrix:
 
 sDSO           271.349          270.029          238.652  iso=     260.010
 sPSO          -309.903         -206.449          -76.326  iso=    -197.560
        ---------------  ---------------  ---------------
 Total          -38.554           63.579          162.326  iso=      62.450

 Orientation: 
  X          -0.7003051    0.4607836   -0.5452076
  Y           0.0062718    0.7677054    0.6407722
  Z          -0.7138161   -0.4453166    0.5405180

 --------------
 Nucleus  51C :
 --------------

Diamagnetic contribution to the shielding tensor (ppm) : 
           264.554         14.838         7.010
            17.764        257.787        -7.974
            -9.925         -3.000       272.548

Paramagnetic contribution to the shielding tensor (ppm): 
          -193.632        -26.096       -88.568
           -26.654       -159.140        41.962
           -67.454         45.742      -247.995

Total shielding tensor (ppm): 
            70.922        -11.258       -81.558
            -8.891         98.648        33.988
           -77.379         42.743        24.553


 Diagonalized sT*s matrix:
 
 sDSO           266.769          276.719          251.401  iso=     264.963
 sPSO          -305.739         -194.036         -100.992  iso=    -200.255
        ---------------  ---------------  ---------------
 Total          -38.970           82.684          150.410  iso=      64.708

 Orientation: 
  X          -0.5990914    0.5041798   -0.6220067
  Y           0.1209745    0.8249264    0.5521427
  Z          -0.7914889   -0.2555370    0.5551992

 --------------
 Nucleus  54C :
 --------------

Diamagnetic contribution to the shielding tensor (ppm) : 
           255.074          1.956         1.836
             6.884        240.825        -5.844
             1.503         -8.279       252.321

Paramagnetic contribution to the shielding tensor (ppm): 
          -103.801         -3.406         4.611
            -8.378        -88.147        10.680
             4.943         11.621       -83.895

Total shielding tensor (ppm): 
           151.273         -1.450         6.447
            -1.494        152.678         4.836
             6.446          3.342       168.426


 Diagonalized sT*s matrix:
 
 sDSO           256.200          240.886          251.133  iso=     249.406
 sPSO          -108.648          -87.280          -79.915  iso=     -91.948
        ---------------  ---------------  ---------------
 Total          147.552          153.606          171.218  iso=     157.459

 Orientation: 
  X           0.7937739    0.5346771    0.2899022
  Y           0.5027580   -0.8450554    0.1819771
  Z          -0.3422824   -0.0013020    0.9395962

 --------------
 Nucleus  55C :
 --------------

Diamagnetic contribution to the shielding tensor (ppm) : 
           253.531         -0.316        -4.825
            -1.592        229.604        -6.408
           -22.968         -9.578       233.127

Paramagnetic contribution to the shielding tensor (ppm): 
           -69.755          0.785        -4.207
            -1.697        -59.869        10.719
            10.172          9.624       -57.344

Total shielding tensor (ppm): 
           183.775          0.469        -9.032
            -3.288        169.735         4.311
           -12.795          0.046       175.783


 Diagonalized sT*s matrix:
 
 sDSO           233.117          224.334          258.810  iso=     238.754
 sPSO           -65.477          -54.344          -67.147  iso=     -62.323
        ---------------  ---------------  ---------------
 Total          167.640          169.990          191.663  iso=     176.431

 Orientation: 
  X          -0.4655400    0.3436695   -0.8155758
  Y           0.4697821    0.8769427    0.1013715
  Z          -0.7500515    0.3359505    0.5697017

 --------------
 Nucleus  56C :
 --------------

Diamagnetic contribution to the shielding tensor (ppm) : 
           248.395         -0.258         2.497
            19.224        237.038         0.818
            17.709         -6.198       246.969

Paramagnetic contribution to the shielding tensor (ppm): 
           -81.740          0.765        -1.713
           -20.787        -73.320         0.918
           -23.450          6.687       -68.888

Total shielding tensor (ppm): 
           166.655          0.507         0.785
            -1.563        163.718         1.736
            -5.741          0.488       178.082


 Diagonalized sT*s matrix:
 
 sDSO           239.639          250.720          242.043  iso=     244.134
 sPSO           -76.050          -84.546          -63.353  iso=     -74.649
        ---------------  ---------------  ---------------
 Total          163.590          166.174          178.690  iso=     169.485

 Orientation: 
  X           0.1200232   -0.9694437   -0.2139471
  Y           0.9913708    0.1055954    0.0776765
  Z          -0.0527112   -0.2214239    0.9737520

 --------------
 Nucleus  59C :
 --------------

Diamagnetic contribution to the shielding tensor (ppm) : 
           243.506         -5.010        -8.757
            12.350        250.657         6.391
            19.204          3.282       263.265

Paramagnetic contribution to the shielding tensor (ppm): 
           -61.853         -0.898        -2.589
           -23.241        -84.614         0.098
           -31.806          1.687       -85.187

Total shielding tensor (ppm): 
           181.653         -5.908       -11.346
           -10.891        166.043         6.489
           -12.602          4.969       178.078


 Diagonalized sT*s matrix:
 
 sDSO           251.517          258.861          247.050  iso=     252.476
 sPSO           -89.161          -90.890          -51.602  iso=     -77.218
        ---------------  ---------------  ---------------
 Total          162.357          167.971          195.447  iso=     175.258

 Orientation: 
  X           0.3612154   -0.5822057   -0.7283955
  Y           0.9308066    0.1783143    0.3190658
  Z          -0.0558786   -0.7932468    0.6063308

 --------------
 Nucleus  60C :
 --------------

Diamagnetic contribution to the shielding tensor (ppm) : 
           250.539          7.384         9.717
            10.254        223.725        -1.469
            19.099         -6.664       220.122

Paramagnetic contribution to the shielding tensor (ppm): 
           -61.013         -2.665        -5.990
            -0.231        -56.010         4.501
           -10.880          8.698       -48.534

Total shielding tensor (ppm): 
           189.526          4.719         3.727
            10.023        167.716         3.032
             8.219          2.034       171.588


 Diagonalized sT*s matrix:
 
 sDSO           223.256          213.788          257.342  iso=     231.462
 sPSO           -57.894          -43.989          -63.674  iso=     -55.185
        ---------------  ---------------  ---------------
 Total          165.363          169.799          193.668  iso=     176.277

 Orientation: 
  X           0.2488443    0.3041454    0.9195499
  Y          -0.9578328   -0.0635255    0.2802156
  Z           0.1436411   -0.9505052    0.2755125



--------------------------------
CHEMICAL SHIELDING SUMMARY (ppm)
--------------------------------


  Nucleus  Element    Isotropic     Anisotropy
  -------  -------  ------------   ------------
      0       C           59.672        148.133 
      1       C          151.168         30.134 
      2       C          128.870         55.172 
      5       C           51.517        179.227 
      6       C          164.984         22.914 
      7       C          161.613         22.517 
     14       C           74.702        128.387 
     15       C           83.059        121.203 
     18       C           79.530        134.247 
     20       C           52.385        174.896 
     22       C          169.240          8.634 
     23       C          174.501         12.489 
     26       C          158.585         23.928 
     29       C          154.500         16.909 
     32       C          142.835         28.765 
     34       C          174.725         23.330 
     36       C          168.488         35.258 
     39       C          143.430         36.240 
     43       C          155.666         12.538 
     44       C          183.872         14.802 
     49       C          175.968         21.657 
     50       C           62.450        149.813 
     51       C           64.708        128.553 
     54       C          157.459         20.639 
     55       C          176.431         22.848 
     56       C          169.485         13.808 
     59       C          175.258         30.284 
     60       C          176.277         26.087 


NMR shielding tensor and spin rotation calculation done in   1.0 sec 

Maximum memory used throughout the entire PROP-calculation: 51.6 MB

--------------------------------
SUGGESTED CITATIONS FOR THIS RUN
--------------------------------

Below you find a list of papers that are relevant to this ORCA run
We neither can nor want to force you to cite these papers, but we appreciate if you do
You receive ORCA, which is the product of decades of hard work by many enthusiastic individuals, for free
The only thing we kindly ask in return is that you cite our papers,
We deeply appreciate it, if you show your appreciation for ORCA by not just citing the generic ORCA reference.

Please note that relegating all ORCA citations to the supporting information does *not* help us.
SI sections are not indexed - citations you put there will not count into any citation statistics
But we need these citations in order to attract the funding resources that allow us to do what we are doing

Therefore, if you are a happy ORCA user, please consider citing a few of the papers listed below in the main body of your paper

In addition to the list printed below, the program has created the file inpS.bibtex that contains the list in bibtex format
You can import this file easily into all common literature databanks and citation aid programs


List of essential papers. We consider these as the minimum necessary citations

  1. Neese,F.
     Software update: the ORCA program system, version 5.0
     WIRES Comput. Molec. Sci., 2022 12(1)e1606
     doi.org/10.1002/wcms.1606

List of papers to cite with high priority. The work reported in these papers was absolutely
necessary for this run to complete.
Our perspective: the developers of density functionals and basis sets usually get cited in chemistry papers
Good! But without the algorithms to do something with them, the functionals or basis sets would not do anything.
Hence, in our opinion, the algorithm design and method developments papers are equally worthy of getting cited

  1. Neese,F.
     An improvement of the resolution of the identity approximation for the formation of the Coulomb matrix
     J. Comp. Chem., 2003 24(14)1740-1747
     doi.org/10.1002/jcc.10318
  2. Neese,F.; Wennmohs,F.; Hansen,A.; Becker,U.
     Efficient, approximate and parallel Hartree-Fock and hybrid DFT calculations. A 'chain-of-spheres' algorithm for the Hartree-Fock exchange
     Chem. Phys., 2009 356(1-3)98-109
     doi.org/10.1016/j.chemphys.2008.10.036
  3. Stoychev,G.L.; Auer,A.A.; Izsak,R.; Neese,F.
     Self-Consistent Field Calculation of Nuclear Magnetic Resonance Chemical Shielding Constants Using Gauge-Including Atomic Orbitals and Approximate Two-Electron Integrals
     J. Chem. Theory Comput., 2018 14(2)619-637
     doi.org/10.1021/acs.jctc.7b01006
  4. Garcia-Rates,M.; Neese,F.
     Effect of the Solute Cavity on the Solvation Energy and its Derivatives within the Framework of the Gaussian Charge Scheme
     J. Comput. Chem., 2020 41 922-939
     doi.org/10.1002/jcc.26139
  5. Helmich-Paris,B.; de Souza,B.; Neese,F.; Izsák,R.
     An improved chain of spheres for exchange algorithm
     J. Chem. Phys., 2021 155 104109
     doi.org/doi: 10.1063/5.0058766.
  6. Neese,F.
     The SHARK Integral Generation and Digestion System
     J. Comp. Chem., 2022  1-16
     doi.org/10.1002/jcc.26942
  7. Caldeweyher,E.; Bannwarth,C.; Grimme,S.
     Extension of the D3 dispersion coefficient model
     J. Chem. Phys., 2017 147 034112-XXXX
     doi.org/10.1063/1.4993215
  8. Caldeweyher,E.; Ehlert,S.; Hansen,A.; Neugebauer,H.; Spicher,S.; Bannwarth,C.; Grimme,S.
     A generally applicable atomic-charge dependent London dispersion correction
     J. Chem. Phys., 2019 150 154122-XXXX
     doi.org/10.1063/1.5090222
  9. Caldeweyher,E.; Mewes,J.; Ehlert,S.; Grimme,S.
     Extension and evaluation of the D4 London-dispersion model for periodic systems
     Phys. Chem. Chem. Phys., 2020 22(16)8499-8512
     doi.org/10.1039/D0CP00502A

List of suggested additional citations. These are papers that are important in the 'surrounding' of 
of this run, or papers that preceded the highly important papers. If you like your results we are grateful for a citation.

  1. Izsak,R.; Neese,F.
     An overlap fitted chain of spheres exchange method
     J. Chem. Phys., 2011 135 144105
     doi.org/10.1063/1.3646921
  2. Izsak,R.; Hansen,A.; Neese,F.
     The resolution of identity and chain of spheres approximations for the LPNO-CCSD singles Fock term
     Molec. Phys., 2012 110 2413-2417
     doi.org/10.1080/00268976.2012.687466
  3. Neese,F.
     The ORCA program system
     WIRES Comput. Molec. Sci., 2012 2(1)73-78
     doi.org/10.1002/wcms.81
  4. Izsak,R.; Neese,F.; Klopper,W.
     Robust fitting techniques in the chain of spheres approximation to the Fock exchange: The role of the complementary space
     J. Chem. Phys., 2013 139 
     doi.org/10.1063/1.4819264
  5. Neese,F.
     Software update: the ORCA program system, version 4.0
     WIRES Comput. Molec. Sci., 2018 8(1)1-6
     doi.org/10.1002/wcms.1327
  6. Neese,F.; Wennmohs,F.; Becker,U.; Riplinger,C.
     The ORCA quantum chemistry program package
     J. Chem. Phys., 2020 152 Art. No. L224108
     doi.org/10.1063/5.0004608

Timings for individual modules:

Sum of individual times          ...      181.087 sec (=   3.018 min)
Startup calculation              ...        4.627 sec (=   0.077 min)   2.6 %
SCF iterations                   ...       76.240 sec (=   1.271 min)  42.1 %
Property integrals               ...       59.704 sec (=   0.995 min)  33.0 %
SCF Response                     ...       39.209 sec (=   0.653 min)  21.7 %
Property calculations            ...        1.307 sec (=   0.022 min)   0.7 %
                             ****ORCA TERMINATED NORMALLY****
TOTAL RUN TIME: 0 days 0 hours 3 minutes 1 seconds 367 msec
