
                                 *****************
                                 * O   R   C   A *
                                 *****************

                                            #,                                       
                                            ###                                      
                                            ####                                     
                                            #####                                    
                                            ######                                   
                                           ########,                                 
                                     ,,################,,,,,                         
                               ,,#################################,,                 
                          ,,##########################################,,             
                       ,#########################################, ''#####,          
                    ,#############################################,,   '####,        
                  ,##################################################,,,,####,       
                ,###########''''           ''''###############################       
              ,#####''   ,,,,##########,,,,          '''####'''          '####       
            ,##' ,,,,###########################,,,                        '##       
           ' ,,###''''                  '''############,,,                           
         ,,##''                                '''############,,,,        ,,,,,,###''
      ,#''                                            '''#######################'''  
     '                                                          ''''####''''         
             ,#######,   #######,   ,#######,      ##                                
            ,#'     '#,  ##    ##  ,#'     '#,    #''#        ,####,   ,####,        
            ##       ##  ##   ,#'  ##            #'  '#       #'       #'  '#        
            ##       ##  #######   ##           ,######,      #####,   #    #        
            '#,     ,#'  ##    ##  '#,     ,#' ,#      #,     #,   #   #,  ,#        
             '#######'   ##     ##  '#######'  #'      '#     '####' # '####'        



                #########################################################
                #                        -***-                          #
                #          Department of theory and spectroscopy        #
                #                                                       #
                #                      Frank Neese                      #
                #                                                       #
                #     Directorship, Architecture, Infrastructure        #
                #                    SHARK, DRIVERS                     #
                #        Core code/Algorithms in most modules           #
                #                                                       #
                #        Max Planck Institute fuer Kohlenforschung      #
                #                Kaiser Wilhelm Platz 1                 #
                #                 D-45470 Muelheim/Ruhr                 #
                #                      Germany                          #
                #                                                       #
                #                  All rights reserved                  #
                #                        -***-                          #
                #########################################################


                         Program Version 6.0.0  -   RELEASE  -


 With contributions from (in alphabetic order):
   Daniel Aravena         : Magnetic Suceptibility
   Michael Atanasov       : Ab Initio Ligand Field Theory (pilot matlab implementation)
   Alexander A. Auer      : GIAO ZORA, VPT2 properties, NMR spectrum
   Ute Becker             : All parallelization in ORCA, NUMFREQ, NUMCALC
   Giovanni Bistoni       : ED, misc. LED, open-shell LED, HFLD
   Martin Brehm           : Molecular dynamics
   Dmytro Bykov           : pre 5.0 version of the SCF Hessian
   Marcos Casanova-Páez   : Triplet and SCS-CIS(D). UHF-(DLPNO)-IP/EA/STEOM-CCSD. UHF-CVS-IP/STEOM-CCSD
   Vijay G. Chilkuri      : MRCI spin determinant printing, contributions to CSF-ICE
   Pauline Colinet        : FMM embedding
   Dipayan Datta          : RHF DLPNO-CCSD density
   Achintya Kumar Dutta   : EOM-CC, STEOM-CC
   Nicolas Foglia         : Exact transition moments, OPA infrastructure, MCD improvements
   Dmitry Ganyushin       : Spin-Orbit,Spin-Spin,Magnetic field MRCI
   Miquel Garcia          : C-PCM and meta-GGA Hessian, CCSD/C-PCM, Gaussian charge scheme
   Tiago L. C. Gouveia    : GS-ROHF, GS-ROCIS
   Yang Guo               : DLPNO-NEVPT2, F12-NEVPT2, CIM, IAO-localization
   Andreas Hansen         : Spin unrestricted coupled pair/coupled cluster methods
   Ingolf Harden          : AUTO-CI MPn and infrastructure 
   Benjamin Helmich-Paris : MC-RPA, TRAH-(SCF,CASSCF), AVAS, COSX integrals, SCF dyn. polar.
   Lee Huntington         : MR-EOM, pCC
   Robert Izsak           : Overlap fitted RIJCOSX, COSX-SCS-MP3, EOM
   Riya Kayal             : Wick's Theorem for AUTO-CI, AUTO-CI UHF-CCSDT
   Emily Kempfer          : AUTO-CI, RHF CISDT and CCSDT
   Christian Kollmar      : KDIIS, OOCD, Brueckner-CCSD(T), CCSD density, CASPT2, CASPT2-K, improved NEVPT2
   Axel Koslowski         : Symmetry handling
   Simone Kossmann        : Meta GGA functionals, TD-DFT gradient, OOMP2, (MP2 Hessian; deprecated post 5.0)
   Lucas Lang             : DCDCAS
   Marvin Lechner         : AUTO-CI (C++ implementation), FIC-MRCC
   Spencer Leger          : CASSCF response
   Dagmar Lenk            : GEPOL surface, SMD, ORCA-2-JSON
   Dimitrios Liakos       : Extrapolation schemes; Compound Job, initial MDCI parallelization
   Dimitrios Manganas     : Further ROCIS development; embedding schemes. LFT, Crystal Embedding
   Dimitrios Pantazis     : SARC Basis sets
   Anastasios Papadopoulos: AUTO-CI, single reference methods and gradients
   Taras Petrenko         : pre 6.0 DFT Hessian and TD-DFT gradient, (ASA, deprecated), ECA, 1-Electron XAS/XES, NRVS
   Peter Pinski           : DLPNO-MP2, DLPNO-MP2 Gradient
   Christoph Reimann      : Effective Core Potentials
   Marius Retegan         : Local ZFS, SOC
   Christoph Riplinger    : Optimizer, TS searches, QM/MM, DLPNO-CCSD(T), (RO)-DLPNO pert. Triples
   Michael Roemelt        : Original ROCIS implementation
   Masaaki Saitow         : Open-shell DLPNO-CCSD energy and density
   Barbara Sandhoefer     : DKH picture change effects
   Kantharuban Sivalingam : CASSCF convergence/infrastructure, NEVPT2 and variants, FIC-MRCI
   Bernardo de Souza      : ESD, SOC TD-DFT
   Georgi Stoychev        : AutoAux, RI-MP2 NMR, DLPNO-MP2 response, X2C
   Van Anh Tran           : RI-MP2 g-tensors
   Willem Van den Heuvel  : Paramagnetic NMR
   Zikuan Wang            : NOTCH, Electric field optimization 
   Frank Wennmohs         : Technical directorship and infrastructure
   Hang Xu                : AUTO-CI-Response properties 


 We gratefully acknowledge several colleagues who have allowed us to
 interface, adapt or use parts of their codes:
   Stefan Grimme, W. Hujo, H. Kruse, P. Pracht,  : VdW corrections, initial TS optimization,
                  C. Bannwarth, S. Ehlert,         DFT functionals, gCP, sTDA/sTD-DF
                  L. Wittmann, M. Mueller
   Ed Valeev, F. Pavosevic, A. Kumar             : LibInt (2-el integral package), F12 methods
   Garnet Chan, S. Sharma, J. Yang, R. Olivares  : DMRG
   Ulf Ekstrom                                   : XCFun DFT Library
   Mihaly Kallay                                 : mrcc  (arbitrary order and MRCC methods)
   Frank Weinhold                                : gennbo (NPA and NBO analysis)
   Simon Mueller                                 : openCOSMO-RS
   Christopher J. Cramer and Donald G. Truhlar   : smd solvation model
   Lars Goerigk                                  : TD-DFT with DH, B97 family of functionals
   V. Asgeirsson, H. Jonsson                     : NEB implementation
   FAccTs GmbH                                   : IRC, NEB, NEB-TS, DLPNO-Multilevel, CI-OPT
                                                   MM, QMMM, 2- and 3-layer-ONIOM, Crystal-QMMM,
                                                   LR-CPCM, SF, NACMEs, symmetry and pop. for TD-DFT,
                                                   nearIR, NL-DFT gradient (VV10), updates on ESD,
                                                   ML-optimized integration grids, MBIS, APM,
                                                   GOAT, DOCKER, SOLVATOR, interface openCOSMO-RS
   S Lehtola, MJT Oliveira, MAL Marques          : LibXC Library
   Liviu Ungur et al                             : ANISO software


 Your calculation uses the libint2 library for the computation of 2-el integrals
 For citations please refer to: http://libint.valeyev.net

 Your ORCA version has been built with support for libXC version: 6.2.2
 For citations please refer to: https://libxc.gitlab.io

 This ORCA versions uses:
   CBLAS   interface :  Fast vector & matrix operations
   LAPACKE interface :  Fast linear algebra routines
   SCALAPACK package :  Parallel linear algebra routines
   Shared memory     :  Shared parallel matrices
   BLAS/LAPACK       :  OpenBLAS 0.3.27  USE64BITINT DYNAMIC_ARCH NO_AFFINITY Zen SINGLE_THREADED
        Core in use  :  Zen
   Copyright (c) 2011-2014, The OpenBLAS Project


NOTE: MaxCore=8000 MB was set to SCF,MP2,MDCI,CIPSI,MRCI and CIS
      => If you want to overwrite this, your respective input block should be placed after the MaxCore statement
Your calculation utilizes the atom-pairwise dispersion correction
based on EEQ partial charges (D4)


================================================================================

----- Orbital basis set information -----
Your calculation utilizes the basis: pcJ-0
   F. Jensen, Theor. Chem. Acc. 126, 371 (2010).

----- AuxJ basis set information -----
Your calculation utilizes the auxiliary basis: def2/J
   F. Weigend, Phys. Chem. Chem. Phys. 8, 1057 (2006).

================================================================================
                                        WARNINGS
                       Please study these warnings very carefully!
================================================================================

WARNING: Old DensityContainer found on disk!
         Will remove this file - 
         If you want to keep old densities, please start your calculation with a different basename. 


================================================================================
                                       INPUT FILE
================================================================================
NAME = inpJ
|  1> ! pbe0
|  2> ! D4
|  3> ! pcJ-0
|  4> ! def2/J RIJCOSX
|  5> ! DEFGRID2
|  6> ! scfconv7
|  7> ! smallprint printgap noloewdin
|  8> ! NOSOSCF
|  9> %MaxCore 8000
| 10> %output
| 11>        print[P_BondOrder_M] 1
| 12>        print[P_Mayer] 1
| 13>        print[P_basis] 2
| 14> end
| 15> %pal
| 16>     nprocs 4
| 17> end
| 18> ! CPCM(chloroform)
| 19> *xyz 0 1
| 20> C   -5.0507508800   0.2641967600   0.3215146500
| 21> C   -6.4574780800  -0.1556776200  -0.0345912800
| 22> C   -7.0122567200   0.6533996600  -1.2133751400
| 23> H   -7.1219674100   0.0264256400   0.8271947800
| 24> H   -6.4950596900  -1.2260101000  -0.2653043200
| 25> C   -4.8787914000   1.7224169100   0.4945906300
| 26> C   -5.4747088600   2.5575705200  -0.6161056200
| 27> C   -6.9219875700   2.1468349700  -0.9198613200
| 28> H   -4.8732985000   2.4058725500  -1.5252678300
| 29> H   -5.4201864800   3.6211499200  -0.3611102900
| 30> H   -7.3071129400   2.7153106500  -1.7745746800
| 31> H   -7.5600318400   2.3742281400  -0.0524886600
| 32> O   -8.3510522500   0.2525928200  -1.5332664300
| 33> H   -6.4254486200   0.4228409000  -2.1135445600
| 34> C   -4.0559625000  -0.6493796500   0.4184033300
| 35> C   -4.2896870300   2.2729140300   1.5622629400
| 36> H   -3.8905953400   1.6615718100   2.3669015600
| 37> H   -4.2036623100   3.3526616500   1.6587362800
| 38> C   -2.6586476800  -0.3741089200   0.6610896200
| 39> H   -4.3404058800  -1.6884395300   0.2579656100
| 40> C   -1.6804308100  -1.2880700400   0.8381323700
| 41> H   -2.3796533400   0.6766351200   0.6939071900
| 42> C   -1.8685117000  -2.7837790600   0.8721175900
| 43> C   -0.9162256700  -3.5023418800  -0.1022303800
| 44> H   -2.9017415600  -3.0774088300   0.6678289500
| 45> H   -1.6369140500  -3.1273711000   1.8930981900
| 46> C    0.5456553500  -3.0686277500   0.0723530200
| 47> H   -1.2414512800  -3.3047764600  -1.1315338000
| 48> H   -0.9982349400  -4.5858437500   0.0479430300
| 49> C    0.7030921000  -1.5447496000  -0.0210328300
| 50> H    1.1601819100  -3.5798523700  -0.6758769700
| 51> H    0.9042012000  -3.3954408100   1.0602237800
| 52> C   -0.2453298000  -0.9102848600   1.0445590000
| 53> H    0.0624871000  -1.3756554100   1.9994584100
| 54> C    0.1838109500   0.5527333700   1.1011693900
| 55> H   -8.9049781900   0.4472804600  -0.7654123100
| 56> C    1.7187187800   0.4859955600   0.9076530100
| 57> H   -0.1068556500   1.0319793400   2.0420042300
| 58> H   -0.2811100000   1.1244591000   0.2901689700
| 59> C    2.0628532700  -0.9673101400   0.4614818800
| 60> H    2.2544987800   0.7432523300   1.8267273800
| 61> H    2.0508212900   1.2016107000   0.1463221800
| 62> H    2.3477538100  -1.5487223100   1.3539142700
| 63> C    3.2680025600  -0.9935737600  -0.4999002600
| 64> C    0.3634264100  -1.0396801600  -1.4301592300
| 65> H   -0.6985463600  -1.1730200400  -1.6586263300
| 66> H    0.9420020000  -1.5833522100  -2.1851514200
| 67> H    0.5900528900   0.0253093800  -1.5425601700
| 68> H    3.0221804800  -0.3826300800  -1.3813402000
| 69> C    3.6429383000  -2.4068740200  -0.9719600900
| 70> C    4.4626228800  -0.3722673900   0.1758739200
| 71> C    5.1175438400   0.6991743900  -0.2688983900
| 72> H    4.7902270200  -0.8801392000   1.0861217100
| 73> H    4.7569299600   1.1691878300  -1.1881417000
| 74> C    6.3742835500   1.3215500700   0.2949958800
| 75> C    7.5282710900   1.0084856200  -0.6768566300
| 76> C    6.6912917300   0.9289217700   1.7512468700
| 77> H    6.2292979600   2.4156258200   0.2824762400
| 78> H    6.6989967100  -0.1701024100   1.8126653100
| 79> C    5.6261162700   1.4709394200   2.7108537300
| 80> C    8.0703269900   1.4286180600   2.1958045200
| 81> H    7.2236726200   1.2076294800  -1.7099838900
| 82> H    7.8046636300  -0.0507604800  -0.6076135500
| 83> H    8.4146578400   1.6143300400  -0.4670101700
| 84> H    5.8162931400   1.1323995100   3.7354173100
| 85> H    4.6187009700   1.1557421200   2.4270806600
| 86> H    5.6478462800   2.5683568500   2.7122147400
| 87> H    8.1549011400   2.5130287100   2.0465806700
| 88> H    8.8848336900   0.9459658900   1.6483627800
| 89> H    8.2197778100   1.2260698600   3.2620502900
| 90> H    4.5750186100  -2.3778800700  -1.5464762700
| 91> H    2.8682408500  -2.8393488400  -1.6101118300
| 92> H    3.7926363500  -3.0756172400  -0.1154035600
| 93> *
| 94> %eprnmr
| 95>  Nuclei = all C { ssfc }
| 96>  SpinSpinRThresh 8.0
| 97> end
| 98> 
| 99>                          ****END OF INPUT****
================================================================================

                       ****************************
                       * Single Point Calculation *
                       ****************************

---------------------------------
CARTESIAN COORDINATES (ANGSTROEM)
---------------------------------
  C     -5.050751    0.264197    0.321515
  C     -6.457478   -0.155678   -0.034591
  C     -7.012257    0.653400   -1.213375
  H     -7.121967    0.026426    0.827195
  H     -6.495060   -1.226010   -0.265304
  C     -4.878791    1.722417    0.494591
  C     -5.474709    2.557571   -0.616106
  C     -6.921988    2.146835   -0.919861
  H     -4.873298    2.405873   -1.525268
  H     -5.420186    3.621150   -0.361110
  H     -7.307113    2.715311   -1.774575
  H     -7.560032    2.374228   -0.052489
  O     -8.351052    0.252593   -1.533266
  H     -6.425449    0.422841   -2.113545
  C     -4.055962   -0.649380    0.418403
  C     -4.289687    2.272914    1.562263
  H     -3.890595    1.661572    2.366902
  H     -4.203662    3.352662    1.658736
  C     -2.658648   -0.374109    0.661090
  H     -4.340406   -1.688440    0.257966
  C     -1.680431   -1.288070    0.838132
  H     -2.379653    0.676635    0.693907
  C     -1.868512   -2.783779    0.872118
  C     -0.916226   -3.502342   -0.102230
  H     -2.901742   -3.077409    0.667829
  H     -1.636914   -3.127371    1.893098
  C      0.545655   -3.068628    0.072353
  H     -1.241451   -3.304776   -1.131534
  H     -0.998235   -4.585844    0.047943
  C      0.703092   -1.544750   -0.021033
  H      1.160182   -3.579852   -0.675877
  H      0.904201   -3.395441    1.060224
  C     -0.245330   -0.910285    1.044559
  H      0.062487   -1.375655    1.999458
  C      0.183811    0.552733    1.101169
  H     -8.904978    0.447280   -0.765412
  C      1.718719    0.485996    0.907653
  H     -0.106856    1.031979    2.042004
  H     -0.281110    1.124459    0.290169
  C      2.062853   -0.967310    0.461482
  H      2.254499    0.743252    1.826727
  H      2.050821    1.201611    0.146322
  H      2.347754   -1.548722    1.353914
  C      3.268003   -0.993574   -0.499900
  C      0.363426   -1.039680   -1.430159
  H     -0.698546   -1.173020   -1.658626
  H      0.942002   -1.583352   -2.185151
  H      0.590053    0.025309   -1.542560
  H      3.022180   -0.382630   -1.381340
  C      3.642938   -2.406874   -0.971960
  C      4.462623   -0.372267    0.175874
  C      5.117544    0.699174   -0.268898
  H      4.790227   -0.880139    1.086122
  H      4.756930    1.169188   -1.188142
  C      6.374284    1.321550    0.294996
  C      7.528271    1.008486   -0.676857
  C      6.691292    0.928922    1.751247
  H      6.229298    2.415626    0.282476
  H      6.698997   -0.170102    1.812665
  C      5.626116    1.470939    2.710854
  C      8.070327    1.428618    2.195805
  H      7.223673    1.207629   -1.709984
  H      7.804664   -0.050760   -0.607614
  H      8.414658    1.614330   -0.467010
  H      5.816293    1.132400    3.735417
  H      4.618701    1.155742    2.427081
  H      5.647846    2.568357    2.712215
  H      8.154901    2.513029    2.046581
  H      8.884834    0.945966    1.648363
  H      8.219778    1.226070    3.262050
  H      4.575019   -2.377880   -1.546476
  H      2.868241   -2.839349   -1.610112
  H      3.792636   -3.075617   -0.115404

----------------------------
CARTESIAN COORDINATES (A.U.)
----------------------------
  NO LB      ZA    FRAG     MASS         X           Y           Z
   0 C     6.0000    0    12.011   -9.544536    0.499260    0.607575
   1 C     6.0000    0    12.011  -12.202865   -0.294188   -0.065368
   2 C     6.0000    0    12.011  -13.251245    1.234746   -2.292947
   3 H     1.0000    0     1.008  -13.458568    0.049937    1.563172
   4 H     1.0000    0     1.008  -12.273884   -2.316823   -0.501353
   5 C     6.0000    0    12.011   -9.219580    3.254896    0.934641
   6 C     6.0000    0    12.011  -10.345700    4.833108   -1.164271
   7 C     6.0000    0    12.011  -13.080661    4.056930   -1.738286
   8 H     1.0000    0     1.008   -9.209200    4.546440   -2.882338
   9 H     1.0000    0     1.008  -10.242668    6.842982   -0.682400
  10 H     1.0000    0     1.008  -13.808442    5.131193   -3.353460
  11 H     1.0000    0     1.008  -14.286390    4.486641   -0.099189
  12 O     8.0000    0    15.999  -15.781202    0.477331   -2.897454
  13 H     1.0000    0     1.008  -12.142338    0.799053   -3.994020
  14 C     6.0000    0    12.011   -7.664658   -1.227150    0.790668
  15 C     6.0000    0    12.011   -8.106334    4.295185    2.952249
  16 H     1.0000    0     1.008   -7.352160    3.139916    4.472796
  17 H     1.0000    0     1.008   -7.943771    6.335612    3.134557
  18 C     6.0000    0    12.011   -5.024116   -0.706963    1.249278
  19 H     1.0000    0     1.008   -8.202178   -3.190688    0.487484
  20 C     6.0000    0    12.011   -3.175554   -2.434100    1.583841
  21 H     1.0000    0     1.008   -4.496893    1.278655    1.311295
  22 C     6.0000    0    12.011   -3.530975   -5.260580    1.648063
  23 C     6.0000    0    12.011   -1.731416   -6.618467   -0.193187
  24 H     1.0000    0     1.008   -5.483497   -5.815460    1.262014
  25 H     1.0000    0     1.008   -3.093319   -5.909875    3.577437
  26 C     6.0000    0    12.011    1.031139   -5.798866    0.136727
  27 H     1.0000    0     1.008   -2.346003   -6.245122   -2.138289
  28 H     1.0000    0     1.008   -1.886391   -8.665989    0.090599
  29 C     6.0000    0    12.011    1.328652   -2.919154   -0.039746
  30 H     1.0000    0     1.008    2.192426   -6.764941   -1.277222
  31 H     1.0000    0     1.008    1.708693   -6.416453    2.003533
  32 C     6.0000    0    12.011   -0.463606   -1.720189    1.973930
  33 H     1.0000    0     1.008    0.118084   -2.599612    3.778429
  34 C     6.0000    0    12.011    0.347352    1.044515    2.080909
  35 H     1.0000    0     1.008  -16.827970    0.845238   -1.446420
  36 C     6.0000    0    12.011    3.247908    0.918399    1.715216
  37 H     1.0000    0     1.008   -0.201928    1.950158    3.858829
  38 H     1.0000    0     1.008   -0.531221    2.124920    0.548340
  39 C     6.0000    0    12.011    3.898228   -1.827951    0.872074
  40 H     1.0000    0     1.008    4.260385    1.404543    3.452014
  41 H     1.0000    0     1.008    3.875491    2.270715    0.276509
  42 H     1.0000    0     1.008    4.436612   -2.926661    2.558527
  43 C     6.0000    0    12.011    6.175630   -1.877582   -0.944675
  44 C     6.0000    0    12.011    0.686776   -1.964711   -2.702609
  45 H     1.0000    0     1.008   -1.320061   -2.216687   -3.134350
  46 H     1.0000    0     1.008    1.780126   -2.992102   -4.129338
  47 H     1.0000    0     1.008    1.115038    0.047828   -2.915016
  48 H     1.0000    0     1.008    5.711093   -0.723066   -2.610355
  49 C     6.0000    0    12.011    6.884156   -4.548333   -1.836738
  50 C     6.0000    0    12.011    8.433135   -0.703483    0.332354
  51 C     6.0000    0    12.011    9.670756    1.321248   -0.508144
  52 H     1.0000    0     1.008    9.052217   -1.663222    2.052473
  53 H     1.0000    0     1.008    8.989295    2.209445   -2.245262
  54 C     6.0000    0    12.011   12.045650    2.497368    0.557461
  55 C     6.0000    0    12.011   14.226371    1.905762   -1.279074
  56 C     6.0000    0    12.011   12.644709    1.755408    3.309377
  57 H     1.0000    0     1.008   11.771667    4.564871    0.533803
  58 H     1.0000    0     1.008   12.659269   -0.321447    3.425441
  59 C     6.0000    0    12.011   10.631819    2.779673    5.122771
  60 C     6.0000    0    12.011   15.250708    2.699697    4.149469
  61 H     1.0000    0     1.008   13.650763    2.282089   -3.231401
  62 H     1.0000    0     1.008   14.748677   -0.095923   -1.148223
  63 H     1.0000    0     1.008   15.901399    3.050642   -0.882521
  64 H     1.0000    0     1.008   10.991201    2.139925    7.058916
  65 H     1.0000    0     1.008    8.728080    2.184036    4.586518
  66 H     1.0000    0     1.008   10.672883    4.853491    5.125343
  67 H     1.0000    0     1.008   15.410530    4.748936    3.867477
  68 H     1.0000    0     1.008   16.789902    1.787616    3.114954
  69 H     1.0000    0     1.008   15.533129    2.316936    6.164382
  70 H     1.0000    0     1.008    8.645532   -4.493542   -2.922417
  71 H     1.0000    0     1.008    5.420190   -5.365592   -3.042670
  72 H     1.0000    0     1.008    7.167044   -5.812074   -0.218081

--------------------------------
INTERNAL COORDINATES (ANGSTROEM)
--------------------------------
 C      0   0   0     0.000000000000     0.00000000     0.00000000
 C      1   0   0     1.510624818935     0.00000000     0.00000000
 C      2   1   0     1.533596026667   111.80372424     0.00000000
 H      2   1   3     1.103350751211   109.31905206   241.48347658
 H      2   1   3     1.095560359806   110.67914691   122.93793640
 C      1   2   3     1.478489554742   114.20739729    50.32969043
 C      6   1   2     1.512033508621   114.38941107   312.01333785
 C      3   2   1     1.524679608025   110.32654976   305.19365822
 H      7   6   1     1.100582854359   108.37981658   290.26039237
 H      7   6   1     1.095078284118   110.22934944   172.98620608
 H      8   3   2     1.096367218195   109.69472657   179.15934040
 H      8   3   2     1.100519638879   108.65018052   296.62316725
 O      3   2   1     1.433649201010   111.21264470   180.48452348
 H      3   2   1     1.099002307887   109.01063674    65.29964947
 C      1   2   3     1.354109742304   120.89464513   232.41291917
 C      6   1   2     1.337914496305   123.39773175   129.74049009
 H     16   6   1     1.086488286074   121.41387717     0.68023339
 H     16   6   1     1.087456794856   120.94194805   181.34494873
 C     15   1   2     1.444700424427   126.44258591   175.55308290
 H     15   1   2     1.089171121840   116.18254965   358.08349813
 C     19  15   1     1.350398944369   126.41978293   175.69309093
 H     19  15   1     1.087647862246   115.92791820   355.16177036
 C     21  19  15     1.507870978854   125.72877242   357.36027793
 C     23  21  19     1.540303598601   111.80025203   127.97566475
 H     23  21  19     1.093396649830   112.33617298     3.84298487
 H     23  21  19     1.101859495132   107.69686911   246.58918015
 C     24  23  21     1.534823581638   112.64890684    50.97413485
 H     24  23  21     1.097392055285   109.03281866   288.86902603
 H     24  23  21     1.096929293861   109.14586925   172.90100798
 C     27  24  23     1.534832845387   111.79862023   306.04988509
 H     27  24  23     1.094916262997   108.96006875   182.51766137
 H     27  24  23     1.100568281027   109.17699353    66.01392153
 C     21  19  15     1.498281850889   122.76897606   178.10883695
 H     33  21  19     1.105962872773   106.22716353   123.73336634
 C     33  21  19     1.525709297631   121.08499376     1.59291203
 H     13   3   2     0.966611180245   107.55285812    62.80985641
 C     35  33  21     1.548497520569   103.46433329   195.86910080
 H     35  33  21     1.095141072317   112.13883134    73.89198005
 H     35  33  21     1.095784413712   110.70224266   314.28195356
 C     30  27  24     1.554093695622   116.08898625   166.36173693
 H     37  35  33     1.094503975188   111.72502921   250.06401443
 H     37  35  33     1.096367519792   111.03285829   131.52433912
 H     40  30  27     1.102562469812   106.34737960   321.03557388
 C     40  30  27     1.541859334711   118.94453579    81.83434985
 C     30  27  24     1.534960954344   111.09117245   294.25270894
 H     45  30  27     1.094423548542   111.48623117    66.97247129
 H     45  30  27     1.095601304424   110.63898919   306.83344895
 H     45  30  27     1.094621511327   111.62861817   187.01144354
 H     44  40  30     1.100280438331   108.38616116    61.94621850
 C     44  40  30     1.536500867929   113.45090585   301.23121873
 C     44  40  30     1.506588881120   109.45512714   179.40282423
 C     51  44  40     1.332190436657   124.87135399   239.87137265
 H     51  44  40     1.092615800333   114.81805615    60.84171966
 H     52  51  44     1.093601054868   117.65785867     0.57307591
 C     52  51  44     1.511529997547   127.97746385   184.64199951
 C     55  52  51     1.540841943070   107.68178125   107.70954917
 C     55  52  51     1.541206707104   114.74741714   340.99299553
 H     55  52  51     1.103711606096   107.13995257   222.52716839
 H     57  55  52     1.100765978632   107.96951399    53.51908063
 C     57  55  52     1.532718897664   111.01033370   294.28903593
 C     57  55  52     1.532666348145   112.09104179   171.90780245
 H     56  55  52     1.095349460335   110.46859764    46.49980569
 H     56  55  52     1.096900059559   110.18794181   287.53254399
 H     56  55  52     1.093967306913   111.92020328   166.61671339
 H     60  57  55     1.095676522523   110.82766699   176.09213081
 H     60  57  55     1.093051727897   112.08586449    54.99421153
 H     60  57  55     1.097633391142   109.91221607   295.04580125
 H     61  57  55     1.097892072150   110.60448818    55.07389298
 H     61  57  55     1.093648362247   112.39760160   294.16165606
 H     61  57  55     1.095555276088   110.16712511   174.05420547
 H     50  44  40     1.095300504203   110.14872489   187.09301693
 H     50  44  40     1.092899012826   111.74066367    67.16952618
 H     50  44  40     1.096957651669   110.74153058   306.53669619

---------------------------
INTERNAL COORDINATES (A.U.)
---------------------------
 C      0   0   0     0.000000000000     0.00000000     0.00000000
 C      1   0   0     2.854667198891     0.00000000     0.00000000
 C      2   1   0     2.898076490471   111.80372424     0.00000000
 H      2   1   3     2.085030749444   109.31905206   241.48347658
 H      2   1   3     2.070309043214   110.67914691   122.93793640
 C      1   2   3     2.793940350325   114.20739729    50.32969043
 C      6   1   2     2.857329236606   114.38941107   312.01333785
 C      3   2   1     2.881226901142   110.32654976   305.19365822
 H      7   6   1     2.079800182428   108.37981658   290.26039237
 H      7   6   1     2.069398052188   110.22934944   172.98620608
 H      8   3   2     2.071833784597   109.69472657   179.15934040
 H      8   3   2     2.079680722483   108.65018052   296.62316725
 O      3   2   1     2.709204362024   111.21264470   180.48452348
 H      3   2   1     2.076813382454   109.01063674    65.29964947
 C      1   2   3     2.558896568230   120.89464513   232.41291917
 C      6   1   2     2.528291988619   123.39773175   129.74049009
 H     16   6   1     2.053165308394   121.41387717     0.68023339
 H     16   6   1     2.054995524749   120.94194805   181.34494873
 C     15   1   2     2.730088147727   126.44258591   175.55308290
 H     15   1   2     2.058235133253   116.18254965   358.08349813
 C     19  15   1     2.551884176393   126.41978293   175.69309093
 H     19  15   1     2.055356589790   115.92791820   355.16177036
 C     21  19  15     2.849463195322   125.72877242   357.36027793
 C     23  21  19     2.910751964449   111.80025203   127.97566475
 H     23  21  19     2.066220223925   112.33617298     3.84298487
 H     23  21  19     2.082212683861   107.69686911   246.58918015
 C     24  23  21     2.900396233181   112.64890684    50.97413485
 H     24  23  21     2.073770446030   109.03281866   288.86902603
 H     24  23  21     2.072895953673   109.14586925   172.90100798
 C     27  24  23     2.900413739128   111.79862023   306.04988509
 H     27  24  23     2.069091876641   108.96006875   182.51766137
 H     27  24  23     2.079772642821   109.17699353    66.01392153
 C     21  19  15     2.831342369605   122.76897606   178.10883695
 H     33  21  19     2.089966943825   106.22716353   123.73336634
 C     33  21  19     2.883172732501   121.08499376     1.59291203
 H     13   3   2     1.826630408649   107.55285812    62.80985641
 C     35  33  21     2.926236232931   103.46433329   195.86910080
 H     35  33  21     2.069516704687   112.13883134    73.89198005
 H     35  33  21     2.070732443734   110.70224266   314.28195356
 C     30  27  24     2.936811471179   116.08898625   166.36173693
 H     37  35  33     2.068312765593   111.72502921   250.06401443
 H     37  35  33     2.071834354533   111.03285829   131.52433912
 H     40  30  27     2.083541113484   106.34737960   321.03557388
 C     40  30  27     2.913691879633   118.94453579    81.83434985
 C     30  27  24     2.900655829973   111.09117245   294.25270894
 H     45  30  27     2.068160781258   111.48623117    66.97247129
 H     45  30  27     2.070386417329   110.63898919   306.83344895
 H     45  30  27     2.068534876707   111.62861817   187.01144354
 H     44  40  30     2.079228698957   108.38616116    61.94621850
 C     44  40  30     2.903565844917   113.45090585   301.23121873
 C     44  40  30     2.847040381727   109.45512714   179.40282423
 C     51  44  40     2.517475083510   124.87135399   239.87137265
 H     51  44  40     2.064744632225   114.81805615    60.84171966
 H     52  51  44     2.066606493468   117.65785867     0.57307591
 C     52  51  44     2.856377738571   127.97746385   184.64199951
 C     55  52  51     2.911769288061   107.68178125   107.70954917
 C     55  52  51     2.912458592190   114.74741714   340.99299553
 H     55  52  51     2.085712666352   107.13995257   222.52716839
 H     57  55  52     2.080146237152   107.96951399    53.51908063
 C     57  55  52     2.896418956871   111.01033370   294.28903593
 C     57  55  52     2.896319652672   112.09104179   171.90780245
 H     56  55  52     2.069910500972   110.46859764    46.49980569
 H     56  55  52     2.072840708849   110.18794181   287.53254399
 H     56  55  52     2.067298609530   111.92020328   166.61671339
 H     60  57  55     2.070528558936   110.82766699   176.09213081
 H     60  57  55     2.065568415935   112.08586449    54.99421153
 H     60  57  55     2.074226504706   109.91221607   295.04580125
 H     61  57  55     2.074715340967   110.60448818    55.07389298
 H     61  57  55     2.066695891458   112.39760160   294.16165606
 H     61  57  55     2.070299436379   110.16712511   174.05420547
 H     50  44  40     2.069817987290   110.14872489   187.09301693
 H     50  44  40     2.065279826274   111.74066367    67.16952618
 H     50  44  40     2.072949542164   110.74153058   306.53669619

---------------------
BASIS SET INFORMATION
---------------------
There are 3 groups of distinct atoms

 Group   1 Type C   : 7s4p contracted to 4s3p pattern {4111/211}
 Group   2 Type H   : 5s contracted to 3s pattern {311}
 Group   3 Type O   : 7s4p contracted to 4s3p pattern {4111/211}

Atom   0C    basis set group =>   1
Atom   1C    basis set group =>   1
Atom   2C    basis set group =>   1
Atom   3H    basis set group =>   2
Atom   4H    basis set group =>   2
Atom   5C    basis set group =>   1
Atom   6C    basis set group =>   1
Atom   7C    basis set group =>   1
Atom   8H    basis set group =>   2
Atom   9H    basis set group =>   2
Atom  10H    basis set group =>   2
Atom  11H    basis set group =>   2
Atom  12O    basis set group =>   3
Atom  13H    basis set group =>   2
Atom  14C    basis set group =>   1
Atom  15C    basis set group =>   1
Atom  16H    basis set group =>   2
Atom  17H    basis set group =>   2
Atom  18C    basis set group =>   1
Atom  19H    basis set group =>   2
Atom  20C    basis set group =>   1
Atom  21H    basis set group =>   2
Atom  22C    basis set group =>   1
Atom  23C    basis set group =>   1
Atom  24H    basis set group =>   2
Atom  25H    basis set group =>   2
Atom  26C    basis set group =>   1
Atom  27H    basis set group =>   2
Atom  28H    basis set group =>   2
Atom  29C    basis set group =>   1
Atom  30H    basis set group =>   2
Atom  31H    basis set group =>   2
Atom  32C    basis set group =>   1
Atom  33H    basis set group =>   2
Atom  34C    basis set group =>   1
Atom  35H    basis set group =>   2
Atom  36C    basis set group =>   1
Atom  37H    basis set group =>   2
Atom  38H    basis set group =>   2
Atom  39C    basis set group =>   1
Atom  40H    basis set group =>   2
Atom  41H    basis set group =>   2
Atom  42H    basis set group =>   2
Atom  43C    basis set group =>   1
Atom  44C    basis set group =>   1
Atom  45H    basis set group =>   2
Atom  46H    basis set group =>   2
Atom  47H    basis set group =>   2
Atom  48H    basis set group =>   2
Atom  49C    basis set group =>   1
Atom  50C    basis set group =>   1
Atom  51C    basis set group =>   1
Atom  52H    basis set group =>   2
Atom  53H    basis set group =>   2
Atom  54C    basis set group =>   1
Atom  55C    basis set group =>   1
Atom  56C    basis set group =>   1
Atom  57H    basis set group =>   2
Atom  58H    basis set group =>   2
Atom  59C    basis set group =>   1
Atom  60C    basis set group =>   1
Atom  61H    basis set group =>   2
Atom  62H    basis set group =>   2
Atom  63H    basis set group =>   2
Atom  64H    basis set group =>   2
Atom  65H    basis set group =>   2
Atom  66H    basis set group =>   2
Atom  67H    basis set group =>   2
Atom  68H    basis set group =>   2
Atom  69H    basis set group =>   2
Atom  70H    basis set group =>   2
Atom  71H    basis set group =>   2
Atom  72H    basis set group =>   2

-------------------------
BASIS SET IN INPUT FORMAT
-------------------------

 # Basis set for element : H 
 NewGTO H 
 S 3 
   1    1357.7500000000      0.0012928364
   2      54.3100000000      0.0588280685
   3       4.3448000000      0.9761499708
 S 1 
   1       0.6604910000      1.0000000000
 S 1 
   1       0.1366870000      1.0000000000
  end;

 # Basis set for element : C 
 NewGTO C 
 S 4 
   1  139534.0000000000      0.0001655246
   2    5581.3600000000      0.0074486101
   3     446.5090000000      0.1285821065
   4      67.4620000000      0.9218029311
 S 1 
   1      15.0674000000      1.0000000000
 S 1 
   1       3.9387600000      1.0000000000
 S 1 
   1       0.2999150000      1.0000000000
 P 2 
   1      28.3900000000      0.0816325586
   2       4.3676900000      0.9660360576
 P 1 
   1       0.8698170000      1.0000000000
 P 1 
   1       0.1889340000      1.0000000000
  end;

 # Basis set for element : O 
 NewGTO O 
 S 4 
   1  253789.0000000000      0.0001641076
   2   10151.6000000000      0.0074010921
   3     812.1250000000      0.1277711901
   4     122.6930000000      0.9223372164
 S 1 
   1      27.5608000000      1.0000000000
 S 1 
   1       7.3172600000      1.0000000000
 S 1 
   1       0.5792400000      1.0000000000
 P 2 
   1      53.4157000000      0.0793786106
   2       8.2177900000      0.9670506337
 P 1 
   1       1.6754400000      1.0000000000
 P 1 
   1       0.3506720000      1.0000000000
  end;

---------------------------------
AUXILIARY/J BASIS SET INFORMATION
---------------------------------
There are 3 groups of distinct atoms

 Group   1 Type C   : 12s5p4d2f1g contracted to 6s4p3d1f1g pattern {711111/2111/211/2/1}
 Group   2 Type H   : 5s2p1d contracted to 3s1p1d pattern {311/2/1}
 Group   3 Type O   : 12s5p4d2f1g contracted to 6s4p3d1f1g pattern {711111/2111/211/2/1}

Atom   0C    basis set group =>   1
Atom   1C    basis set group =>   1
Atom   2C    basis set group =>   1
Atom   3H    basis set group =>   2
Atom   4H    basis set group =>   2
Atom   5C    basis set group =>   1
Atom   6C    basis set group =>   1
Atom   7C    basis set group =>   1
Atom   8H    basis set group =>   2
Atom   9H    basis set group =>   2
Atom  10H    basis set group =>   2
Atom  11H    basis set group =>   2
Atom  12O    basis set group =>   3
Atom  13H    basis set group =>   2
Atom  14C    basis set group =>   1
Atom  15C    basis set group =>   1
Atom  16H    basis set group =>   2
Atom  17H    basis set group =>   2
Atom  18C    basis set group =>   1
Atom  19H    basis set group =>   2
Atom  20C    basis set group =>   1
Atom  21H    basis set group =>   2
Atom  22C    basis set group =>   1
Atom  23C    basis set group =>   1
Atom  24H    basis set group =>   2
Atom  25H    basis set group =>   2
Atom  26C    basis set group =>   1
Atom  27H    basis set group =>   2
Atom  28H    basis set group =>   2
Atom  29C    basis set group =>   1
Atom  30H    basis set group =>   2
Atom  31H    basis set group =>   2
Atom  32C    basis set group =>   1
Atom  33H    basis set group =>   2
Atom  34C    basis set group =>   1
Atom  35H    basis set group =>   2
Atom  36C    basis set group =>   1
Atom  37H    basis set group =>   2
Atom  38H    basis set group =>   2
Atom  39C    basis set group =>   1
Atom  40H    basis set group =>   2
Atom  41H    basis set group =>   2
Atom  42H    basis set group =>   2
Atom  43C    basis set group =>   1
Atom  44C    basis set group =>   1
Atom  45H    basis set group =>   2
Atom  46H    basis set group =>   2
Atom  47H    basis set group =>   2
Atom  48H    basis set group =>   2
Atom  49C    basis set group =>   1
Atom  50C    basis set group =>   1
Atom  51C    basis set group =>   1
Atom  52H    basis set group =>   2
Atom  53H    basis set group =>   2
Atom  54C    basis set group =>   1
Atom  55C    basis set group =>   1
Atom  56C    basis set group =>   1
Atom  57H    basis set group =>   2
Atom  58H    basis set group =>   2
Atom  59C    basis set group =>   1
Atom  60C    basis set group =>   1
Atom  61H    basis set group =>   2
Atom  62H    basis set group =>   2
Atom  63H    basis set group =>   2
Atom  64H    basis set group =>   2
Atom  65H    basis set group =>   2
Atom  66H    basis set group =>   2
Atom  67H    basis set group =>   2
Atom  68H    basis set group =>   2
Atom  69H    basis set group =>   2
Atom  70H    basis set group =>   2
Atom  71H    basis set group =>   2
Atom  72H    basis set group =>   2

-------------------------------------
AUXILIARY/J BASIS SET IN INPUT FORMAT
-------------------------------------

 # Auxiliary/J basis set for element : H 
 NewAuxJGTO H 
 S 3 
   1      15.6752927000      0.1007184237
   2       3.6063578000      0.3404257499
   3       1.2080016000      0.6491996172
 S 1 
   1       0.4726794000      1.0000000000
 S 1 
   1       0.2018100000      1.0000000000
 P 2 
   1       2.0281365000      0.5596620919
   2       0.5358730000      0.5596620919
 D 1 
   1       2.2165124000      1.0000000000
  end;

 # Auxiliary/J basis set for element : C 
 NewAuxJGTO C 
 S 7 
   1    1861.0916331000      0.0134602335
   2     642.9939764000      0.0299160374
   3     235.1105725000      0.1008649584
   4      90.7028894000      0.2370970548
   5      36.7794552000      0.3924037254
   6      15.6046273000      0.3195862154
   7       6.8907294000      0.0530104441
 S 1 
   1       3.1478850000     -1.0000000000
 S 1 
   1       1.4777287000      1.0000000000
 S 1 
   1       0.7076466000      1.0000000000
 S 1 
   1       0.3430122000      1.0000000000
 S 1 
   1       0.1669453000      1.0000000000
 P 2 
   1      13.5472892000     -0.6769313712
   2       5.4669419000     -0.3779500978
 P 1 
   1       2.1751721000      1.0000000000
 P 1 
   1       0.8582194000      1.0000000000
 P 1 
   1       0.3376720000      1.0000000000
 D 2 
   1       5.9287253000     -0.3533329857
   2       1.9809209000     -0.7456525731
 D 1 
   1       0.8055417000     -1.0000000000
 D 1 
   1       0.3531244000     -1.0000000000
 F 2 
   1       1.6755626000      0.6311076882
   2       0.5997536000      0.4968166032
 G 1 
   1       1.0024600000     -1.0000000000
  end;

 # Auxiliary/J basis set for element : O 
 NewAuxJGTO O 
 S 7 
   1    2876.8216605000      0.0168151159
   2    1004.7443032000      0.0340137548
   3     369.7579954000      0.1194951309
   4     142.9442404000      0.2664627624
   5      57.8366425000      0.4202764046
   6      24.3864983000      0.2765077335
   7      10.6622662000      0.0057008815
 S 1 
   1       4.8070437000     -1.0000000000
 S 1 
   1       2.2210770000      1.0000000000
 S 1 
   1       1.0447795000      1.0000000000
 S 1 
   1       0.4968425000      1.0000000000
 S 1 
   1       0.2371384000      1.0000000000
 P 2 
   1      64.2613382000     -0.2731534179
   2      16.3006076000     -0.8168011598
 P 1 
   1       4.3550542000      1.0000000000
 P 1 
   1       1.2019554000      1.0000000000
 P 1 
   1       0.3354196000      1.0000000000
 D 2 
   1       9.2146611000     -0.4661230638
   2       2.8435251000     -0.6600908911
 D 1 
   1       0.9955759000     -1.0000000000
 D 1 
   1       0.3649441000     -1.0000000000
 F 2 
   1       2.6420115000      0.5931563945
   2       0.7345613000      0.5931563945
 G 1 
   1       1.3931000000     -1.0000000000
  end;


Checking for AutoStart:
The File: inpJ.gbw exists
Trying to determine its content:
     ... Fine, the file contains calculation information
     ... Fine, the calculation information was read
     ... Fine, the file contains a basis set
     ... Fine, the basis set was read
     ... Fine, the file contains a geometry
     ... Fine, the geometry was read
     ... Fine, the file contains a set of orbitals
     ... Fine, the orbitals can be read
     => possible old guess file was deleted
     => GBW file was renamed to GES file
     => GES file is set as startup file
     => Guess is set to MORead
     ... now leaving AutoStart



           ************************************************************
           *        Program running with 4 parallel MPI-processes     *
           *              working on a common directory               *
           ************************************************************
------------------------------------------------------------------------------
                             ORCA STARTUP CALCULATIONS
                           -- RI-GTO INTEGRALS CHOSEN --
------------------------------------------------------------------------------
------------------------------------------------------------------------------
                   ___                                                        
                  /   \      - P O W E R E D   B Y -                         
                 /     \                                                     
                 |  |  |   _    _      __       _____    __    __             
                 |  |  |  | |  | |    /  \     |  _  \  |  |  /  |          
                  \  \/   | |  | |   /    \    | | | |  |  | /  /          
                 / \  \   | |__| |  /  /\  \   | |_| |  |  |/  /          
                |  |  |   |  __  | /  /__\  \  |    /   |      \           
                |  |  |   | |  | | |   __   |  |    \   |  |\   \          
                \     /   | |  | | |  |  |  |  | |\  \  |  | \   \       
                 \___/    |_|  |_| |__|  |__|  |_| \__\ |__|  \__/        
                                                                              
                      - O R C A' S   B I G   F R I E N D -                    
                                      &                                       
                       - I N T E G R A L  F E E D E R -                       
                                                                              
 v1 FN, 2020, v2 2021, v3 2022-2024                                           
------------------------------------------------------------------------------


----------------------
SHARK INTEGRAL PACKAGE
----------------------

Number of atoms                             ...     73
Number of basis functions                   ...    509
Number of shells                            ...    335
Maximum angular momentum                    ...      1
Integral batch strategy                     ... SHARK/LIBINT Hybrid
RI-J (if used) integral strategy            ... SPLIT-RIJ (Revised 2003 algorithm where possible)
Printlevel                                  ...      1
Contraction scheme used                     ... SEGMENTED contraction
Prescreening option                         ... SCHWARTZ
   Thresh                                   ... 3.000e-11
   Tcut                                     ... 1.000e-12
   Tpresel                                  ... 1.000e-12 
Coulomb Range Separation                    ... NOT USED
Exchange Range Separation                   ... NOT USED
Multipole approximations                    ... NOT USED
Finite Nucleus Model                        ... NOT USED
CABS basis                                  ... NOT available
Auxiliary Coulomb fitting basis             ... AVAILABLE
   # of basis functions in Aux-J            ...   1905
   # of shells in Aux-J                     ...    655
   Maximum angular momentum in Aux-J        ...      4
Auxiliary J/K fitting basis                 ... NOT available
Auxiliary Correlation fitting basis         ... NOT available
Auxiliary 'external' fitting basis          ... NOT available

Checking pre-screening integrals            ... done (  0.0 sec) Dimension = 335
Check shell pair data                       ... done (  0.0 sec)
Shell pair information
Shell pair cut-off parameter TPreSel        ...   1.0e-12
Total number of shell pairs                 ...     56280
Shell pairs after pre-screening             ...     21713
Total number of primitive shell pairs       ...    145865
Primitive shell pairs kept                  ...     37365
          la=0 lb=0:  10927 shell pairs
          la=1 lb=0:   8923 shell pairs
          la=1 lb=1:   1863 shell pairs

Calculating one electron integrals          ... done (  0.0 sec)
Calculating RI/J V-Matrix + Cholesky decomp.... done (  0.2 sec)
Calculating Nuclear repulsion               ... done (  0.0 sec) ENN=   2767.237381647059 Eh

Diagonalization of the overlap matrix:
Smallest eigenvalue                        ... 7.553e-03
Time for diagonalization                   ...    0.025 sec
Threshold for overlap eigenvalues          ... 1.000e-07
Number of eigenvalues below threshold      ... 0
Time for construction of square roots      ...    0.013 sec
Total time needed                          ...    0.040 sec

-------------------
DFT GRID GENERATION
-------------------

General Integration Accuracy     IntAcc      ... 4.388
Radial Grid Type                 RadialGrid  ... OptM3 with GC (2021)
Angular Grid (max. ang.)         AngularGrid ... 4 (Lebedev-302)
Angular grid pruning method      GridPruning ... 4 (adaptive)
Weight generation scheme         WeightScheme... mBecke (2022)
Basis function cutoff            BFCut       ... 1.0000e-11
Integration weight cutoff        WCut        ... 1.0000e-14
Partially contracted basis set               ... off
Rotationally invariant grid construction     ... off
Angular grids for H and He will be reduced by one unit

Total number of grid points                  ...   309911
Total number of batches                      ...     4881
Average number of points per batch           ...       63
Average number of grid points per atom       ...     4245

--------------------
COSX GRID GENERATION
--------------------

GRIDX 1
-------
General Integration Accuracy     IntAcc      ... 3.816
Radial Grid Type                 RadialGrid  ... OptM3 with GC (2021)
Angular Grid (max. ang.)         AngularGrid ... 1 (Lebedev-50)
Angular grid pruning method      GridPruning ... 4 (adaptive)
Weight generation scheme         WeightScheme... mBecke (2022)
Basis function cutoff            BFCut       ... 1.0000e-11
Integration weight cutoff        WCut        ... 1.0000e-14
Partially contracted basis set               ... on
Rotationally invariant grid construction     ... off
Angular grids for H and He will be reduced by one unit

Total number of grid points                  ...    39418
Total number of batches                      ...      351
Average number of points per batch           ...      112
Average number of grid points per atom       ...      540
UseSFitting                                  ... on

GRIDX 2
-------
General Integration Accuracy     IntAcc      ... 4.020
Radial Grid Type                 RadialGrid  ... OptM3 with GC (2021)
Angular Grid (max. ang.)         AngularGrid ... 2 (Lebedev-110)
Angular grid pruning method      GridPruning ... 4 (adaptive)
Weight generation scheme         WeightScheme... mBecke (2022)
Basis function cutoff            BFCut       ... 1.0000e-11
Integration weight cutoff        WCut        ... 1.0000e-14
Partially contracted basis set               ... on
Rotationally invariant grid construction     ... off
Angular grids for H and He will be reduced by one unit

Total number of grid points                  ...    81453
Total number of batches                      ...      679
Average number of points per batch           ...      119
Average number of grid points per atom       ...     1116
UseSFitting                                  ... on

GRIDX 3
-------
General Integration Accuracy     IntAcc      ... 4.338
Radial Grid Type                 RadialGrid  ... OptM3 with GC (2021)
Angular Grid (max. ang.)         AngularGrid ... 3 (Lebedev-194)
Angular grid pruning method      GridPruning ... 4 (adaptive)
Weight generation scheme         WeightScheme... mBecke (2022)
Basis function cutoff            BFCut       ... 1.0000e-11
Integration weight cutoff        WCut        ... 1.0000e-14
Partially contracted basis set               ... on
Rotationally invariant grid construction     ... off
Angular grids for H and He will be reduced by one unit

Total number of grid points                  ...   176402
Total number of batches                      ...     1420
Average number of points per batch           ...      124
Average number of grid points per atom       ...     2416
UseSFitting                                  ... on
Initializing property integral containers    ... done (  0.0 sec)

SHARK setup successfully completed in   3.6 seconds

Maximum memory used throughout the entire STARTUP-calculation: 85.2 MB


           ************************************************************
           *        Program running with 4 parallel MPI-processes     *
           *              working on a common directory               *
           ************************************************************
-------------------------------------------------------------------------------
                                 ORCA GUESS
                   Start orbitals & Density for SCF / CASSCF
-------------------------------------------------------------------------------

------------
SCF SETTINGS
------------
Hamiltonian:
 Density Functional     Method          .... DFT(GTOs)
 Exchange Functional    Exchange        .... PBE
   PBE kappa parameter   XKappa         ....  0.804000
   PBE mue parameter    XMuePBE         ....  0.219520
 Correlation Functional Correlation     .... PBE
   PBE beta parameter  CBetaPBE         ....  0.066725
 LDA part of GGA corr.  LDAOpt          .... PW91-LDA
 Gradients option       PostSCFGGA      .... off
 Hybrid DFT is turned on
   Fraction HF Exchange ScalHFX         ....  0.250000
   Scaling of DF-GGA-X  ScalDFX         ....  0.750000
   Scaling of DF-GGA-C  ScalDFC         ....  1.000000
   Scaling of DF-LDA-C  ScalLDAC        ....  1.000000
   Perturbative correction              ....  0.000000
   NL short-range parameter             ....  6.900000
 RI-approximation to the Coulomb term is turned on
   Number of AuxJ basis functions       .... 1905
   RIJ-COSX (HFX calculated with COS-X)).... on


General Settings:
 Integral files         IntName         .... inpJ
 Hartree-Fock type      HFTyp           .... RHF
 Total Charge           Charge          ....    0
 Multiplicity           Mult            ....    1
 Number of Electrons    NEL             ....  220
 Basis Dimension        Dim             ....  509
 Nuclear Repulsion      ENuc            ....   2767.2373816471 Eh

Convergence Acceleration:
 AO-DIIS                CNVDIIS         .... on
   Start iteration      DIISMaxIt       ....    12
   Startup error        DIISStart       ....  0.200000
   # of expansion vecs  DIISMaxEq       ....     5
   Bias factor          DIISBfac        ....   1.050
   Max. coefficient     DIISMaxC        ....  10.000
 MO-DIIS                CNVKDIIS        .... off
 Trust-Rad. Augm. Hess. CNVTRAH         .... auto
   Auto Start mean grad. ratio tolernc. ....  1.125000
   Auto Start start iteration           ....     1
   Auto Start num. interpolation iter.  ....    10
   Max. Number of Micro iterations      ....    24
   Max. Number of Macro iterations      .... Maxiter - #DIIS iter
   Number of Davidson start vectors     ....     2
   Converg. threshold    (grad. norm)   ....   1.000e-04
   Grad. Scal. Fac. for Micro threshold ....   0.100
   Minimum threshold for Micro iter.    ....   1.000e-02
   NR start threshold (gradient norm)   ....   1.000e-04
   Initial trust radius                 ....   0.400
   Minimum AH scaling param. (alpha)    ....   1.000
   Maximum AH scaling param. (alpha)    .... 1000.000
   Quad. conv. algorithm                .... NR
   White noise on init. David. guess    .... on
   Maximum white noise                  ....   0.010
   Pseudo random numbers                .... off
   Inactive MOs                         .... canonical
   Orbital update algorithm             .... Taylor
   Preconditioner                       .... Diag
   Full preconditioner red. dimension   ....   250
 SOSCF                  CNVSOSCF        .... off
 Level Shifting         CNVShift        .... on
   Level shift para.    LevelShift      ....    0.2500
   Turn off err/grad.   ShiftErr        ....    0.0010
 Zerner damping         CNVZerner       .... off
 Static damping         CNVDamp         .... on
   Fraction old density DampFac         ....    0.7000
   Max. Damping (<1)    DampMax         ....    0.9800
   Min. Damping (>=0)   DampMin         ....    0.0000
   Turn off err/grad.   DampErr         ....    0.1000

SCF Procedure:
 Maximum # iterations   MaxIter         ....   125
 SCF integral mode      SCFMode         .... Direct
   Integral package                     .... SHARK and LIBINT hybrid scheme
 Reset frequency        DirectResetFreq ....    20
 Integral Threshold     Thresh          ....  3.000e-11 Eh
 Primitive CutOff       TCut            ....  1.000e-12 Eh

Convergence Tolerance:
 Convergence Check Mode ConvCheckMode   .... Total+1el-Energy
 Convergence forced     ConvForced      .... 0
 Energy Change          TolE            ....  1.000e-07 Eh
 1-El. energy change                    ....  1.000e-04 Eh
 DIIS Error             TolErr          ....  1.000e-07

---------------------
INITIAL GUESS: MOREAD
---------------------
Guess MOs are being read from file: inpJ.ges
Input Geometry matches current geometry (good)
Input basis set matches current basis set (good)
Occupation numbers will be reassigned to an Aufbau configuration
MOs were renormalized
MOs were reorthogonalized (Cholesky)
                      ------------------
                      INITIAL GUESS DONE (   0.1 sec)
                      ------------------
             **** ENERGY FILE WAS UPDATED (inpJ.en.tmp) ****
Finished Guess after   0.2 sec
Maximum memory used throughout the entire GUESS-calculation: 36.6 MB


           ************************************************************
           *        Program running with 4 parallel MPI-processes     *
           *              working on a common directory               *
           ************************************************************

-------------------------------------------------------------------------------------------
                                      ORCA LEAN-SCF
                              memory conserving SCF solver
-------------------------------------------------------------------------------------------

--------------------
CPCM SOLVATION MODEL
--------------------
CPCM parameters:
  Epsilon                                         ...       4.8030
  Refrac                                          ...       1.4459
  Rsolv                                           ...       1.3000
  Surface type                                    ... GAUSSIAN VDW
  Discretization scheme                           ... Constant charge density
    Threshold for H atoms                         ...       5.0000 (charges/Ang^2)
    Threshold for non-H atoms                     ...       5.0000 (charges/Ang^2)
  Epsilon function type                           ...         CPCM
Solvent:                                          ... CHLOROFORM
Radii:
  Scheme                                          ... Element-dependent radii
  Radius for C  used is    3.8550 Bohr (=   2.0400 Ang.)
  Radius for H  used is    2.4944 Bohr (=   1.3200 Ang.)
  Radius for O  used is    3.4469 Bohr (=   1.8240 Ang.)
Calculating surface                               ...        done! (  0.0s)
Cavity surface points                             ...         5410
Cavity Volume                                     ...    3615.8444
Cavity Surface-area                               ...    1800.5986
Calculating surface distance matrix               ...        done! (  0.4s)
Performing Cholesky decomposition & store         ...        done! (  1.0s)
Overall time for CPCM initialization              ...                 1.5s

----------------------------------------D-I-I-S--------------------------------------------
Iteration    Energy (Eh)           Delta-E    RMSDP     MaxDP     DIISErr   Damp  Time(sec)
-------------------------------------------------------------------------------------------
               ***  Starting incremental Fock matrix formation  ***
    1    -1165.5081544559516260     0.00e+00  4.56e-08  5.66e-06  8.12e-06  0.700   6.1

  HOMO= 109 E= -5.922 eV LUMO=  5.984 eV gap=  11.905 eV
    2    -1165.5081544752224545    -1.93e-08  3.07e-08  3.37e-06  3.80e-06  0.700   2.0
                 **** Energy Check signals convergence ****

  HOMO= 109 E= -5.922 eV LUMO=  5.984 eV gap=  11.905 eV

               *****************************************************
               *                     SUCCESS                       *
               *           SCF CONVERGED AFTER   2 CYCLES          *
               *****************************************************

Recomputing exchange energy using gridx3       ... done (    8.106 sec)
Old exchange energy                            :    -42.066973554 Eh
New exchange energy                            :    -42.067028274 Eh
Exchange energy change after final integration :     -0.000054719 Eh
Total energy after final integration           :  -1165.508209194 Eh
             **** ENERGY FILE WAS UPDATED (inpJ.en.tmp) ****

----------------
TOTAL SCF ENERGY
----------------

Total Energy       :      -1165.50820919435205 Eh          -31715.09074 eV

Components:
Nuclear Repulsion  :       2767.23738164705946 Eh           75300.35735 eV
Electronic Energy  :      -3932.73013981561189 Eh         -107015.02764 eV
One Electron Energy:      -7076.53732617443166 Eh         -192562.37033 eV
Two Electron Energy:       3143.80718635881976 Eh           85547.34268 eV
CPCM Dielectric    :         -0.01539630666983 Eh              -0.41895 eV

Virial components:
Potential Energy   :      -2322.40518939186404 Eh          -63195.85802 eV
Kinetic Energy     :       1156.89698019751199 Eh           31480.76728 eV
Virial Ratio       :          2.00744338445362

DFT components:
N(Alpha)           :      110.000148695536 electrons
N(Beta)            :      110.000148695536 electrons
N(Total)           :      220.000297391073 electrons
E(X)               :     -125.744211381742 Eh       
E(C)               :       -7.326484027273 Eh       
E(XC)              :     -133.070695409015 Eh       

CPCM Solvation Model Properties:
Surface-charge          :         -0.03343120334445
Corrected charge        :          0.00000000000000
Outlying charge corr.   :          0.00003895889951 Eh               0.00106 eV
Free-energy (cav+disp)  :  This term is not implemented in the current solvation scheme

---------------
SCF CONVERGENCE
---------------

  Last Energy change         ...    1.9271e-08  Tolerance :   1.0000e-07
  Last MAX-Density change    ...    3.3675e-06  Tolerance :   1.0000e-05
  Last RMS-Density change    ...    3.0706e-08  Tolerance :   1.0000e-06
  Last DIIS Error            ...    3.7975e-06  Tolerance :   1.0000e-07


----------------
ORBITAL ENERGIES
----------------

  NO   OCC          E(Eh)            E(eV) 
   0   2.0000     -19.215128      -522.8702 
   1   2.0000     -10.301399      -280.3153 
   2   2.0000     -10.269518      -279.4478 
   3   2.0000     -10.266824      -279.3745 
   4   2.0000     -10.261833      -279.2387 
   5   2.0000     -10.256135      -279.0836 
   6   2.0000     -10.253485      -279.0115 
   7   2.0000     -10.252100      -278.9738 
   8   2.0000     -10.249993      -278.9165 
   9   2.0000     -10.249240      -278.8960 
  10   2.0000     -10.247856      -278.8583 
  11   2.0000     -10.246136      -278.8115 
  12   2.0000     -10.245291      -278.7885 
  13   2.0000     -10.245208      -278.7863 
  14   2.0000     -10.244668      -278.7716 
  15   2.0000     -10.243919      -278.7512 
  16   2.0000     -10.243139      -278.7300 
  17   2.0000     -10.242965      -278.7252 
  18   2.0000     -10.242003      -278.6991 
  19   2.0000     -10.241122      -278.6751 
  20   2.0000     -10.239183      -278.6223 
  21   2.0000     -10.233930      -278.4794 
  22   2.0000     -10.233647      -278.4717 
  23   2.0000     -10.232679      -278.4453 
  24   2.0000     -10.227665      -278.3089 
  25   2.0000     -10.225841      -278.2593 
  26   2.0000     -10.224434      -278.2210 
  27   2.0000     -10.221703      -278.1467 
  28   2.0000     -10.220281      -278.1080 
  29   2.0000      -1.045852       -28.4591 
  30   2.0000      -0.900641       -24.5077 
  31   2.0000      -0.883690       -24.0464 
  32   2.0000      -0.860556       -23.4169 
  33   2.0000      -0.845724       -23.0133 
  34   2.0000      -0.822058       -22.3693 
  35   2.0000      -0.813721       -22.1425 
  36   2.0000      -0.794921       -21.6309 
  37   2.0000      -0.794750       -21.6262 
  38   2.0000      -0.777183       -21.1482 
  39   2.0000      -0.757540       -20.6137 
  40   2.0000      -0.741487       -20.1769 
  41   2.0000      -0.735658       -20.0183 
  42   2.0000      -0.713557       -19.4169 
  43   2.0000      -0.700070       -19.0499 
  44   2.0000      -0.699097       -19.0234 
  45   2.0000      -0.693463       -18.8701 
  46   2.0000      -0.668911       -18.2020 
  47   2.0000      -0.657050       -17.8792 
  48   2.0000      -0.629017       -17.1164 
  49   2.0000      -0.621682       -16.9168 
  50   2.0000      -0.619414       -16.8551 
  51   2.0000      -0.606942       -16.5157 
  52   2.0000      -0.596826       -16.2404 
  53   2.0000      -0.593283       -16.1440 
  54   2.0000      -0.557974       -15.1832 
  55   2.0000      -0.551281       -15.0011 
  56   2.0000      -0.539312       -14.6754 
  57   2.0000      -0.529815       -14.4170 
  58   2.0000      -0.515132       -14.0175 
  59   2.0000      -0.508275       -13.8309 
  60   2.0000      -0.496296       -13.5049 
  61   2.0000      -0.489027       -13.3071 
  62   2.0000      -0.486906       -13.2494 
  63   2.0000      -0.480025       -13.0621 
  64   2.0000      -0.475901       -12.9499 
  65   2.0000      -0.468540       -12.7496 
  66   2.0000      -0.460179       -12.5221 
  67   2.0000      -0.457557       -12.4508 
  68   2.0000      -0.456735       -12.4284 
  69   2.0000      -0.449297       -12.2260 
  70   2.0000      -0.444609       -12.0984 
  71   2.0000      -0.438678       -11.9370 
  72   2.0000      -0.435665       -11.8550 
  73   2.0000      -0.433881       -11.8065 
  74   2.0000      -0.430587       -11.7169 
  75   2.0000      -0.422032       -11.4841 
  76   2.0000      -0.415699       -11.3117 
  77   2.0000      -0.414278       -11.2731 
  78   2.0000      -0.407450       -11.0873 
  79   2.0000      -0.403309       -10.9746 
  80   2.0000      -0.402050       -10.9403 
  81   2.0000      -0.396657       -10.7936 
  82   2.0000      -0.394258       -10.7283 
  83   2.0000      -0.391644       -10.6572 
  84   2.0000      -0.390404       -10.6234 
  85   2.0000      -0.385114       -10.4795 
  86   2.0000      -0.378111       -10.2889 
  87   2.0000      -0.370286       -10.0760 
  88   2.0000      -0.368628       -10.0309 
  89   2.0000      -0.367302        -9.9948 
  90   2.0000      -0.363269        -9.8850 
  91   2.0000      -0.358454        -9.7540 
  92   2.0000      -0.352602        -9.5948 
  93   2.0000      -0.342829        -9.3288 
  94   2.0000      -0.341687        -9.2978 
  95   2.0000      -0.339811        -9.2467 
  96   2.0000      -0.338474        -9.2103 
  97   2.0000      -0.333848        -9.0845 
  98   2.0000      -0.331050        -9.0083 
  99   2.0000      -0.329206        -8.9581 
 100   2.0000      -0.326339        -8.8801 
 101   2.0000      -0.318770        -8.6742 
 102   2.0000      -0.316437        -8.6107 
 103   2.0000      -0.316091        -8.6013 
 104   2.0000      -0.311436        -8.4746 
 105   2.0000      -0.299815        -8.1584 
 106   2.0000      -0.280016        -7.6196 
 107   2.0000      -0.274828        -7.4784 
 108   2.0000      -0.256821        -6.9885 
 109   2.0000      -0.217624        -5.9218 
 110   0.0000      -0.030109        -0.8193 
 111   0.0000       0.021216         0.5773 
 112   0.0000       0.028359         0.7717 
 113   0.0000       0.079849         2.1728 
 114   0.0000       0.089341         2.4311 
 115   0.0000       0.101256         2.7553 
 116   0.0000       0.102561         2.7908 
 117   0.0000       0.107792         2.9332 
 118   0.0000       0.113317         3.0835 
 119   0.0000       0.116380         3.1669 
 120   0.0000       0.118634         3.2282 
*Only the first 10 virtual orbitals were printed.

                    ********************************
                    * MULLIKEN POPULATION ANALYSIS *
                    ********************************

-----------------------
MULLIKEN ATOMIC CHARGES
-----------------------
   0 C :    0.107743
   1 C :   -0.499696
   2 C :   -0.054875
   3 H :    0.207243
   4 H :    0.222165
   5 C :    0.135499
   6 C :   -0.475782
   7 C :   -0.451678
   8 H :    0.214220
   9 H :    0.224114
  10 H :    0.229109
  11 H :    0.204655
  12 O :   -0.487432
  13 H :    0.233843
  14 C :   -0.283391
  15 C :   -0.516728
  16 H :    0.201282
  17 H :    0.196732
  18 C :   -0.259955
  19 H :    0.217651
  20 C :    0.151000
  21 H :    0.219181
  22 C :   -0.480084
  23 C :   -0.427265
  24 H :    0.211633
  25 H :    0.206441
  26 C :   -0.397197
  27 H :    0.208132
  28 H :    0.216737
  29 C :    0.003025
  30 H :    0.221519
  31 H :    0.193992
  32 C :   -0.228610
  33 H :    0.226714
  34 C :   -0.433627
  35 H :    0.343200
  36 C :   -0.422764
  37 H :    0.207389
  38 H :    0.198253
  39 C :   -0.186451
  40 H :    0.214353
  41 H :    0.205861
  42 H :    0.209215
  43 C :   -0.249396
  44 C :   -0.626894
  45 H :    0.208200
  46 H :    0.200412
  47 H :    0.205399
  48 H :    0.218413
  49 C :   -0.619202
  50 C :   -0.183154
  51 C :   -0.173560
  52 H :    0.212071
  53 H :    0.211211
  54 C :   -0.231327
  55 C :   -0.615817
  56 C :   -0.214529
  57 H :    0.214297
  58 H :    0.210393
  59 C :   -0.619936
  60 C :   -0.609719
  61 H :    0.207820
  62 H :    0.196216
  63 H :    0.208837
  64 H :    0.197436
  65 H :    0.222887
  66 H :    0.189386
  67 H :    0.191180
  68 H :    0.210132
  69 H :    0.206562
  70 H :    0.202610
  71 H :    0.211521
  72 H :    0.193182
Sum of atomic charges:    0.0000000

--------------------------------
MULLIKEN REDUCED ORBITAL CHARGES
--------------------------------
  0 C s       :     3.355793  s :     3.355793
      pz      :     1.007235  p :     2.536464
      px      :     0.794357
      py      :     0.734872

  1 C s       :     3.383643  s :     3.383643
      pz      :     1.031111  p :     3.116053
      px      :     0.946151
      py      :     1.138791

  2 C s       :     3.306267  s :     3.306267
      pz      :     1.067931  p :     2.748608
      px      :     0.793078
      py      :     0.887599

  3 H s       :     0.792757  s :     0.792757

  4 H s       :     0.777835  s :     0.777835

  5 C s       :     3.345253  s :     3.345253
      pz      :     0.821741  p :     2.519248
      px      :     0.940109
      py      :     0.757398

  6 C s       :     3.368293  s :     3.368293
      pz      :     1.041978  p :     3.107489
      px      :     0.945722
      py      :     1.119789

  7 C s       :     3.340440  s :     3.340440
      pz      :     1.184691  p :     3.111238
      px      :     0.987953
      py      :     0.938594

  8 H s       :     0.785780  s :     0.785780

  9 H s       :     0.775886  s :     0.775886

 10 H s       :     0.770891  s :     0.770891

 11 H s       :     0.795345  s :     0.795345

 12 O s       :     3.685496  s :     3.685496
      pz      :     1.639458  p :     4.801935
      px      :     1.284450
      py      :     1.878028

 13 H s       :     0.766157  s :     0.766157

 14 C s       :     3.392374  s :     3.392374
      pz      :     1.010854  p :     2.891017
      px      :     0.805328
      py      :     1.074835

 15 C s       :     3.386902  s :     3.386902
      pz      :     0.989792  p :     3.129826
      px      :     1.012672
      py      :     1.127362

 16 H s       :     0.798718  s :     0.798718

 17 H s       :     0.803268  s :     0.803268

 18 C s       :     3.396717  s :     3.396717
      pz      :     1.032000  p :     2.863239
      px      :     0.755034
      py      :     1.076205

 19 H s       :     0.782349  s :     0.782349

 20 C s       :     3.350459  s :     3.350459
      pz      :     0.957253  p :     2.498541
      px      :     0.752970
      py      :     0.788318

 21 H s       :     0.780819  s :     0.780819

 22 C s       :     3.372495  s :     3.372495
      pz      :     1.094938  p :     3.107589
      px      :     1.122708
      py      :     0.889943

 23 C s       :     3.327081  s :     3.327081
      pz      :     1.083213  p :     3.100184
      px      :     0.897033
      py      :     1.119939

 24 H s       :     0.788367  s :     0.788367

 25 H s       :     0.793559  s :     0.793559

 26 C s       :     3.349760  s :     3.349760
      pz      :     1.178533  p :     3.047437
      px      :     0.958042
      py      :     0.910862

 27 H s       :     0.791868  s :     0.791868

 28 H s       :     0.783263  s :     0.783263

 29 C s       :     3.317696  s :     3.317696
      pz      :     0.867448  p :     2.679279
      px      :     0.905709
      py      :     0.906121

 30 H s       :     0.778481  s :     0.778481

 31 H s       :     0.806008  s :     0.806008

 32 C s       :     3.362484  s :     3.362484
      pz      :     1.064796  p :     2.866126
      px      :     0.869023
      py      :     0.932307

 33 H s       :     0.773286  s :     0.773286

 34 C s       :     3.344348  s :     3.344348
      pz      :     1.188633  p :     3.089279
      px      :     0.934512
      py      :     0.966134

 35 H s       :     0.656800  s :     0.656800

 36 C s       :     3.336581  s :     3.336581
      pz      :     1.165536  p :     3.086183
      px      :     0.940242
      py      :     0.980405

 37 H s       :     0.792611  s :     0.792611

 38 H s       :     0.801747  s :     0.801747

 39 C s       :     3.337442  s :     3.337442
      pz      :     1.048130  p :     2.849009
      px      :     0.863948
      py      :     0.936932

 40 H s       :     0.785647  s :     0.785647

 41 H s       :     0.794139  s :     0.794139

 42 H s       :     0.790785  s :     0.790785

 43 C s       :     3.345297  s :     3.345297
      pz      :     1.057429  p :     2.904100
      px      :     0.878284
      py      :     0.968386

 44 C s       :     3.366087  s :     3.366087
      pz      :     0.964971  p :     3.260807
      px      :     1.157668
      py      :     1.138167

 45 H s       :     0.791800  s :     0.791800

 46 H s       :     0.799588  s :     0.799588

 47 H s       :     0.794601  s :     0.794601

 48 H s       :     0.781587  s :     0.781587

 49 C s       :     3.347318  s :     3.347318
      pz      :     1.138473  p :     3.271885
      px      :     1.156665
      py      :     0.976748

 50 C s       :     3.341599  s :     3.341599
      pz      :     1.055841  p :     2.841555
      px      :     0.895844
      py      :     0.889870

 51 C s       :     3.342665  s :     3.342665
      pz      :     1.064679  p :     2.830895
      px      :     0.874859
      py      :     0.891356

 52 H s       :     0.787929  s :     0.787929

 53 H s       :     0.788789  s :     0.788789

 54 C s       :     3.340481  s :     3.340481
      pz      :     0.887375  p :     2.890845
      px      :     0.884143
      py      :     1.119327

 55 C s       :     3.344325  s :     3.344325
      pz      :     1.081733  p :     3.271492
      px      :     1.033410
      py      :     1.156348

 56 C s       :     3.315194  s :     3.315194
      pz      :     0.876220  p :     2.899336
      px      :     0.890379
      py      :     1.132736

 57 H s       :     0.785703  s :     0.785703

 58 H s       :     0.789607  s :     0.789607

 59 C s       :     3.343540  s :     3.343540
      pz      :     1.074812  p :     3.276396
      px      :     1.073762
      py      :     1.127821

 60 C s       :     3.341061  s :     3.341061
      pz      :     1.150088  p :     3.268659
      px      :     0.984969
      py      :     1.133601

 61 H s       :     0.792180  s :     0.792180

 62 H s       :     0.803784  s :     0.803784

 63 H s       :     0.791163  s :     0.791163

 64 H s       :     0.802564  s :     0.802564

 65 H s       :     0.777113  s :     0.777113

 66 H s       :     0.810614  s :     0.810614

 67 H s       :     0.808820  s :     0.808820

 68 H s       :     0.789868  s :     0.789868

 69 H s       :     0.793438  s :     0.793438

 70 H s       :     0.797390  s :     0.797390

 71 H s       :     0.788479  s :     0.788479

 72 H s       :     0.806818  s :     0.806818


------------------------
MULLIKEN OVERLAP CHARGES
------------------------
B(  0-C ,  1-C ) :   0.4958 B(  0-C ,  2-C ) :  -0.1304 B(  0-C ,  3-H ) :  -0.0878 
B(  0-C ,  4-H ) :  -0.0673 B(  0-C ,  5-C ) :   0.4215 B(  0-C ,  6-C ) :  -0.1566 
B(  0-C , 14-C ) :   0.9464 B(  0-C , 15-C ) :  -0.2027 B(  0-C , 18-C ) :  -0.1835 
B(  0-C , 19-H ) :  -0.0751 B(  1-C ,  2-C ) :   0.5269 B(  1-C ,  3-H ) :   0.7958 
B(  1-C ,  4-H ) :   0.8137 B(  1-C ,  5-C ) :  -0.1483 B(  1-C ,  7-C ) :  -0.1690 
B(  1-C , 12-O ) :  -0.0831 B(  1-C , 13-H ) :  -0.0844 B(  1-C , 14-C ) :  -0.1077 
B(  2-C ,  3-H ) :  -0.0820 B(  2-C ,  4-H ) :  -0.0580 B(  2-C ,  6-C ) :  -0.1288 
B(  2-C ,  7-C ) :   0.5344 B(  2-C , 10-H ) :  -0.0697 B(  2-C , 11-H ) :  -0.0825 
B(  2-C , 12-O ) :   0.6904 B(  2-C , 13-H ) :   0.7985 B(  2-C , 35-H ) :  -0.1131 
B(  5-C ,  6-C ) :   0.5392 B(  5-C ,  7-C ) :  -0.1716 B(  5-C ,  8-H ) :  -0.0880 
B(  5-C ,  9-H ) :  -0.0736 B(  5-C , 14-C ) :  -0.1962 B(  5-C , 15-C ) :   1.0583 
B(  5-C , 16-H ) :  -0.0994 B(  5-C , 17-H ) :  -0.0943 B(  6-C ,  7-C ) :   0.5413 
B(  6-C ,  8-H ) :   0.8036 B(  6-C ,  9-H ) :   0.8190 B(  6-C , 11-H ) :  -0.0739 
B(  6-C , 15-C ) :  -0.1289 B(  7-C ,  8-H ) :  -0.0771 B(  7-C , 10-H ) :   0.8059 
B(  7-C , 11-H ) :   0.7944 B(  7-C , 12-O ) :  -0.0901 B(  7-C , 13-H ) :  -0.0841 
B( 12-O , 35-H ) :   0.6599 B( 14-C , 18-C ) :   0.6127 B( 14-C , 19-H ) :   0.8251 
B( 14-C , 20-C ) :  -0.1952 B( 14-C , 21-H ) :  -0.0734 B( 15-C , 16-H ) :   0.8143 
B( 15-C , 17-H ) :   0.8069 B( 18-C , 19-H ) :  -0.0609 B( 18-C , 20-C ) :   0.9220 
B( 18-C , 21-H ) :   0.8317 B( 18-C , 22-C ) :  -0.1496 B( 18-C , 32-C ) :  -0.1481 
B( 20-C , 21-H ) :  -0.0846 B( 20-C , 22-C ) :   0.5323 B( 20-C , 23-C ) :  -0.1709 
B( 20-C , 24-H ) :  -0.0668 B( 20-C , 25-H ) :  -0.0931 B( 20-C , 29-C ) :  -0.1243 
B( 20-C , 32-C ) :   0.5177 B( 20-C , 33-H ) :  -0.0920 B( 20-C , 34-C ) :  -0.0986 
[...]
        0.0000         1.9439        0.0000
        0.0000         0.0000        1.9439

 Diagonalized JT*J matrix:
 
 J[55,60](FC)             1.944            1.944            1.944  iso=      1.944
                ---------------  ---------------  ---------------  ---------------
 J[55,60](Total)          1.944            1.944            1.944  iso=      1.944



-----------------------------------------------------------
 NUCLEUS A = C   56 NUCLEUS B = C   59 
 ( 13C  gnA =  1.405  13C  gnB =  1.405) r(AB) =     1.5327
-----------------------------------------------------------

Fermi-contact contribution to J (Hz):
       26.5800         0.0000        0.0000
        0.0000        26.5800        0.0000
        0.0000         0.0000       26.5800

Total spin-spin coupling tensor J (Hz):
       26.5800         0.0000        0.0000
        0.0000        26.5800        0.0000
        0.0000         0.0000       26.5800

 Diagonalized JT*J matrix:
 
 J[56,59](FC)            26.580           26.580           26.580  iso=     26.580
                ---------------  ---------------  ---------------  ---------------
 J[56,59](Total)         26.580           26.580           26.580  iso=     26.580



-----------------------------------------------------------
 NUCLEUS A = C   56 NUCLEUS B = C   60 
 ( 13C  gnA =  1.405  13C  gnB =  1.405) r(AB) =     1.5327
-----------------------------------------------------------

Fermi-contact contribution to J (Hz):
       27.0582         0.0000        0.0000
        0.0000        27.0582        0.0000
        0.0000         0.0000       27.0582

Total spin-spin coupling tensor J (Hz):
       27.0582         0.0000        0.0000
        0.0000        27.0582        0.0000
        0.0000         0.0000       27.0582

 Diagonalized JT*J matrix:
 
 J[56,60](FC)            27.058           27.058           27.058  iso=     27.058
                ---------------  ---------------  ---------------  ---------------
 J[56,60](Total)         27.058           27.058           27.058  iso=     27.058



-----------------------------------------------------------
 NUCLEUS A = C   59 NUCLEUS B = C   60 
 ( 13C  gnA =  1.405  13C  gnB =  1.405) r(AB) =     2.4982
-----------------------------------------------------------

Fermi-contact contribution to J (Hz):
       -1.0991         0.0000        0.0000
        0.0000        -1.0991        0.0000
        0.0000         0.0000       -1.0991

Total spin-spin coupling tensor J (Hz):
       -1.0991         0.0000        0.0000
        0.0000        -1.0991        0.0000
        0.0000         0.0000       -1.0991

 Diagonalized JT*J matrix:
 
 J[59,60](FC)            -1.099           -1.099           -1.099  iso=     -1.099
                ---------------  ---------------  ---------------  ---------------
 J[59,60](Total)         -1.099           -1.099           -1.099  iso=     -1.099



-----------------------------------------------------------------------------
                SUMMARY OF ISOTROPIC COUPLING CONSTANTS J (Hz)                
-----------------------------------------------------------------------------
                  0 C        1 C        2 C        5 C        6 C        7 C  
      0 C        0.000     32.391     -2.377     42.188     -0.175      0.894
      1 C       32.391      0.000     25.315     -1.185      0.380     -0.383
      2 C       -2.377     25.315      0.000      1.995     -1.352     25.795
      5 C       42.188     -1.185      1.995      0.000     30.965     -2.907
      6 C       -0.175      0.380     -1.352     30.965      0.000     23.036
      7 C        0.894     -0.383     25.795     -2.907     23.036      0.000
     14 C       70.199     -0.380      3.560     -3.184      2.745     -0.710
     15 C       -3.289      2.723     -0.835     64.311     -0.907      2.834
     18 C       -2.640      4.228     -1.064      3.289     -1.018      0.208
     20 C        6.954     -1.153      1.251     -1.505      0.786     -0.147
     22 C       -0.941      0.333     -0.379      0.445     -0.238      0.047
     23 C        0.794     -0.269      0.291     -0.332      0.190      0.000
     26 C       -0.077      0.030      0.000      0.041      0.000      0.000
     29 C        1.122     -0.359      0.000     -0.485      0.258      0.000
     32 C       -1.149      0.555     -0.412      0.513     -0.278      0.058
     34 C        0.021     -0.015      0.015     -0.017      0.009     -0.002
     36 C       -0.013      0.000      0.000      0.015     -0.009      0.000
     39 C       -0.078      0.000      0.000      0.033      0.000      0.000
     43 C        0.000      0.000      0.000      0.000      0.000      0.000
     44 C        0.006     -0.002      0.004     -0.005      0.003     -0.000
     49 C        0.000      0.000      0.000      0.000      0.000      0.000
     50 C        0.000      0.000      0.000      0.000      0.000      0.000
     51 C        0.000      0.000      0.000      0.000      0.000      0.000
     54 C        0.000      0.000      0.000      0.000      0.000      0.000
     55 C        0.000      0.000      0.000      0.000      0.000      0.000
     56 C        0.000      0.000      0.000      0.000      0.000      0.000
     59 C        0.000      0.000      0.000      0.000      0.000      0.000
     60 C        0.000      0.000      0.000      0.000      0.000      0.000
                 14 C       15 C       18 C       20 C       22 C       23 C  
      0 C       70.199     -3.289     -2.640      6.954     -0.941      0.794
      1 C       -0.380      2.723      4.228     -1.153      0.333     -0.269
      2 C        3.560     -0.835     -1.064      1.251     -0.379      0.291
      5 C       -3.184     64.311      3.289     -1.505      0.445     -0.332
      6 C        2.745     -0.907     -1.018      0.786     -0.238      0.190
      7 C       -0.710      2.834      0.208     -0.147      0.047      0.000
     14 C        0.000      3.064     54.442     -2.785      3.876     -0.889
     15 C        3.064      0.000     -1.125      1.071     -0.275      0.236
     18 C       54.442     -1.125      0.000     70.017     -2.170      2.469
     20 C       -2.785      1.071     70.017      0.000     32.207     -2.865
     22 C        3.876     -0.275     -2.170     32.207      0.000     24.475
     23 C       -0.889      0.236      2.469     -2.865     24.475      0.000
     26 C        0.115     -0.020     -0.366      1.019     -1.920     25.398
     29 C       -1.149      0.340      2.398     -2.357      1.093     -2.187
     32 C        4.412     -0.336     -1.318     36.950     -0.217      1.525
     34 C        0.064      0.004      2.448     -1.344      1.617     -0.252
     36 C        0.012     -0.014     -0.150      3.432      0.068      0.183
     39 C        0.265     -0.023     -0.045      2.900     -0.336      2.529
     43 C        0.014      0.000      0.301      0.192      0.001     -0.110
     44 C        0.005      0.002     -0.081      0.692     -0.133      0.626
     49 C        0.000      0.000     -0.010     -0.050      0.137      0.043
     50 C        0.000      0.000      0.025      0.130     -0.006      0.117
     51 C        0.000      0.000      0.017      0.046      0.001     -0.003
     54 C        0.000      0.000      0.000      0.000      0.000      0.000
     55 C        0.000      0.000      0.000      0.000      0.000      0.000
     56 C        0.000      0.000      0.000      0.000      0.000      0.000
     59 C        0.000      0.000      0.000      0.000      0.000      0.000
     60 C        0.000      0.000      0.000      0.000      0.000      0.000
                 26 C       29 C       32 C       34 C       36 C       39 C  
      0 C       -0.077      1.122     -1.149      0.021     -0.013     -0.078
      1 C        0.030     -0.359      0.555     -0.015      0.000      0.000
      2 C        0.000      0.000     -0.412      0.015      0.000      0.000
      5 C        0.041     -0.485      0.513     -0.017      0.015      0.033
      6 C        0.000      0.258     -0.278      0.009     -0.009      0.000
      7 C        0.000      0.000      0.058     -0.002      0.000      0.000
     14 C        0.115     -1.149      4.412      0.064      0.012      0.265
     15 C       -0.020      0.340     -0.336      0.004     -0.014     -0.023
     18 C       -0.366      2.398     -1.318      2.448     -0.150     -0.045
     20 C        1.019     -2.357     36.950     -1.344      3.432      2.900
     22 C       -1.920      1.093     -0.217      1.617      0.068     -0.336
     23 C       25.398     -2.187      1.525     -0.252      0.183      2.529
     26 C        0.000     27.851     -0.939      2.298      3.029     -0.609
     29 C       27.851      0.000     23.434      0.806      0.785     28.380
     32 C       -0.939     23.434      0.000     27.857      1.201      3.337
     34 C        2.298      0.806     27.857      0.000     25.872      0.200
     36 C        3.029      0.785      1.201     25.872      0.000     26.912
     39 C       -0.609     28.380      3.337      0.200     26.912      0.000
     43 C       -0.019     -0.621      2.706      1.815      0.400     29.000
     44 C       -0.586     27.216     -0.975      0.806      0.293     -1.176
     49 C        0.359      0.080     -0.031      0.051      3.299     -1.227
     50 C       -0.121      3.606     -0.082     -0.049      0.585     -1.851
     51 C       -0.022      0.227      0.118      0.068     -0.033      3.191
     54 C       -0.000      0.084     -0.016      0.001     -0.023     -0.516
     55 C        0.000      0.038      0.000      0.004      0.034      0.982
     56 C        0.000      0.002      0.001     -0.001      0.009      0.031
     59 C        0.000      0.005     -0.002      0.010      0.017     -0.006
     60 C        0.000      0.000      0.000      0.000      0.030     -0.009
                 43 C       44 C       49 C       50 C       51 C       54 C  
      0 C        0.000      0.006      0.000      0.000      0.000      0.000
      1 C        0.000     -0.002      0.000      0.000      0.000      0.000
      2 C        0.000      0.004      0.000      0.000      0.000      0.000
      5 C        0.000     -0.005      0.000      0.000      0.000      0.000
      6 C        0.000      0.003      0.000      0.000      0.000      0.000
      7 C        0.000     -0.000      0.000      0.000      0.000      0.000
     14 C        0.014      0.005      0.000      0.000      0.000      0.000
     15 C        0.000      0.002      0.000      0.000      0.000      0.000
     18 C        0.301     -0.081     -0.010      0.025      0.017      0.000
     20 C        0.192      0.692     -0.050      0.130      0.046      0.000
     22 C        0.001     -0.133      0.137     -0.006      0.001      0.000
     23 C       -0.110      0.626      0.043      0.117     -0.003      0.000
     26 C       -0.019     -0.586      0.359     -0.121     -0.022     -0.000
     29 C       -0.621     27.216      0.080      3.606      0.227      0.084
     32 C        2.706     -0.975     -0.031     -0.082      0.118     -0.016
     34 C        1.815      0.806      0.051     -0.049      0.068      0.001
     36 C        0.400      0.293      3.299      0.585     -0.033     -0.023
     39 C       29.000     -1.176     -1.227     -1.851      3.191     -0.516
     43 C        0.000      1.443     25.832     36.303     -0.365      3.733
     44 C        1.443      0.000     -0.088     -0.172     -0.008     -0.001
     49 C       25.832     -0.088      0.000     -2.993      3.599     -0.738
     50 C       36.303     -0.172     -2.993      0.000     68.698     -1.937
     51 C       -0.365     -0.008      3.599     68.698      0.000     35.469
     54 C        3.733     -0.001     -0.738     -1.937     35.469      0.000
     55 C       -0.988      0.001      1.520      3.502     -3.150     25.903
     56 C       -0.130      0.000      0.045      2.308     -1.338     27.590
     59 C        0.016     -0.000     -0.045      0.035      0.580     -0.549
     60 C        0.028      0.000     -0.035     -0.134      3.096     -0.647
                 55 C       56 C       59 C       60 C  
      0 C        0.000      0.000      0.000      0.000
      1 C        0.000      0.000      0.000      0.000
      2 C        0.000      0.000      0.000      0.000
      5 C        0.000      0.000      0.000      0.000
      6 C        0.000      0.000      0.000      0.000
      7 C        0.000      0.000      0.000      0.000
     14 C        0.000      0.000      0.000      0.000
     15 C        0.000      0.000      0.000      0.000
     18 C        0.000      0.000      0.000      0.000
     20 C        0.000      0.000      0.000      0.000
     22 C        0.000      0.000      0.000      0.000
     23 C        0.000      0.000      0.000      0.000
     26 C        0.000      0.000      0.000      0.000
     29 C        0.038      0.002      0.005      0.000
     32 C        0.000      0.001     -0.002      0.000
     34 C        0.004     -0.001      0.010      0.000
     36 C        0.034      0.009      0.017      0.030
     39 C        0.982      0.031     -0.006     -0.009
     43 C       -0.988     -0.130      0.016      0.028
     44 C        0.001      0.000     -0.000      0.000
     49 C        1.520      0.045     -0.045     -0.035
     50 C        3.502      2.308      0.035     -0.134
     51 C       -3.150     -1.338      0.580      3.096
     54 C       25.903     27.590     -0.549     -0.647
     55 C        0.000     -0.899      2.558      1.944
     56 C       -0.899      0.000     26.580     27.058
     59 C        2.558     26.580      0.000     -1.099
     60 C        1.944     27.058     -1.099      0.000

NMR spin-spin coupling calculation done in   0.3 sec 

Maximum memory used throughout the entire PROP-calculation: 34.1 MB

--------------------------------
SUGGESTED CITATIONS FOR THIS RUN
--------------------------------

Below you find a list of papers that are relevant to this ORCA run
We neither can nor want to force you to cite these papers, but we appreciate if you do
You receive ORCA, which is the product of decades of hard work by many enthusiastic individuals, for free
The only thing we kindly ask in return is that you cite our papers,
We deeply appreciate it, if you show your appreciation for ORCA by not just citing the generic ORCA reference.

Please note that relegating all ORCA citations to the supporting information does *not* help us.
SI sections are not indexed - citations you put there will not count into any citation statistics
But we need these citations in order to attract the funding resources that allow us to do what we are doing

Therefore, if you are a happy ORCA user, please consider citing a few of the papers listed below in the main body of your paper

In addition to the list printed below, the program has created the file inpJ.bibtex that contains the list in bibtex format
You can import this file easily into all common literature databanks and citation aid programs


List of essential papers. We consider these as the minimum necessary citations

  1. Neese,F.
     Software update: the ORCA program system, version 5.0
     WIRES Comput. Molec. Sci., 2022 12(1)e1606
     doi.org/10.1002/wcms.1606

List of papers to cite with high priority. The work reported in these papers was absolutely
necessary for this run to complete.
Our perspective: the developers of density functionals and basis sets usually get cited in chemistry papers
Good! But without the algorithms to do something with them, the functionals or basis sets would not do anything.
Hence, in our opinion, the algorithm design and method developments papers are equally worthy of getting cited

  1. Neese,F.
     An improvement of the resolution of the identity approximation for the formation of the Coulomb matrix
     J. Comp. Chem., 2003 24(14)1740-1747
     doi.org/10.1002/jcc.10318
  2. Neese,F.; Wennmohs,F.; Hansen,A.; Becker,U.
     Efficient, approximate and parallel Hartree-Fock and hybrid DFT calculations. A 'chain-of-spheres' algorithm for the Hartree-Fock exchange
     Chem. Phys., 2009 356(1-3)98-109
     doi.org/10.1016/j.chemphys.2008.10.036
  3. Stoychev,G.L.; Auer,A.A.; Izsak,R.; Neese,F.
     Self-Consistent Field Calculation of Nuclear Magnetic Resonance Chemical Shielding Constants Using Gauge-Including Atomic Orbitals and Approximate Two-Electron Integrals
     J. Chem. Theory Comput., 2018 14(2)619-637
     doi.org/10.1021/acs.jctc.7b01006
  4. Garcia-Rates,M.; Neese,F.
     Effect of the Solute Cavity on the Solvation Energy and its Derivatives within the Framework of the Gaussian Charge Scheme
     J. Comput. Chem., 2020 41 922-939
     doi.org/10.1002/jcc.26139
  5. Helmich-Paris,B.; de Souza,B.; Neese,F.; Izsák,R.
     An improved chain of spheres for exchange algorithm
     J. Chem. Phys., 2021 155 104109
     doi.org/doi: 10.1063/5.0058766.
  6. Neese,F.
     The SHARK Integral Generation and Digestion System
     J. Comp. Chem., 2022  1-16
     doi.org/10.1002/jcc.26942
  7. Grimme,S.; Bannwarth,C.; Dohm,S.; Hansen,A.; Pisarek,J.; Pracht,P.; Seibert,J.; Neese,F.
     Fully Automated Quantum-Chemistry-Based Computation of Spin-Spin-Coupled Nuclear Magnetic Resonance Spectra
     Angew. Chem., Int. Ed., 2017 56 14763-14769
     doi.org/10.1002/anie.201708266
  8. Caldeweyher,E.; Bannwarth,C.; Grimme,S.
     Extension of the D3 dispersion coefficient model
     J. Chem. Phys., 2017 147 034112-XXXX
     doi.org/10.1063/1.4993215
  9. Caldeweyher,E.; Ehlert,S.; Hansen,A.; Neugebauer,H.; Spicher,S.; Bannwarth,C.; Grimme,S.
     A generally applicable atomic-charge dependent London dispersion correction
     J. Chem. Phys., 2019 150 154122-XXXX
     doi.org/10.1063/1.5090222
 10. Caldeweyher,E.; Mewes,J.; Ehlert,S.; Grimme,S.
     Extension and evaluation of the D4 London-dispersion model for periodic systems
     Phys. Chem. Chem. Phys., 2020 22(16)8499-8512
     doi.org/10.1039/D0CP00502A

List of suggested additional citations. These are papers that are important in the 'surrounding' of 
of this run, or papers that preceded the highly important papers. If you like your results we are grateful for a citation.

  1. Izsak,R.; Neese,F.
     An overlap fitted chain of spheres exchange method
     J. Chem. Phys., 2011 135 144105
     doi.org/10.1063/1.3646921
  2. Izsak,R.; Hansen,A.; Neese,F.
     The resolution of identity and chain of spheres approximations for the LPNO-CCSD singles Fock term
     Molec. Phys., 2012 110 2413-2417
     doi.org/10.1080/00268976.2012.687466
  3. Neese,F.
     The ORCA program system
     WIRES Comput. Molec. Sci., 2012 2(1)73-78
     doi.org/10.1002/wcms.81
  4. Izsak,R.; Neese,F.; Klopper,W.
     Robust fitting techniques in the chain of spheres approximation to the Fock exchange: The role of the complementary space
     J. Chem. Phys., 2013 139 
     doi.org/10.1063/1.4819264
  5. Neese,F.
     Software update: the ORCA program system, version 4.0
     WIRES Comput. Molec. Sci., 2018 8(1)1-6
     doi.org/10.1002/wcms.1327
  6. Neese,F.; Wennmohs,F.; Becker,U.; Riplinger,C.
     The ORCA quantum chemistry program package
     J. Chem. Phys., 2020 152 Art. No. L224108
     doi.org/10.1063/5.0004608

Timings for individual modules:

Sum of individual times          ...      136.563 sec (=   2.276 min)
Startup calculation              ...        3.825 sec (=   0.064 min)   2.8 %
SCF iterations                   ...       18.875 sec (=   0.315 min)  13.8 %
Property integrals               ...        0.723 sec (=   0.012 min)   0.5 %
SCF Response                     ...      112.630 sec (=   1.877 min)  82.5 %
Property calculations            ...        0.510 sec (=   0.008 min)   0.4 %
                             ****ORCA TERMINATED NORMALLY****
TOTAL RUN TIME: 0 days 0 hours 2 minutes 16 seconds 840 msec
