
                                 *****************
                                 * O   R   C   A *
                                 *****************

                                            #,                                       
                                            ###                                      
                                            ####                                     
                                            #####                                    
                                            ######                                   
                                           ########,                                 
                                     ,,################,,,,,                         
                               ,,#################################,,                 
                          ,,##########################################,,             
                       ,#########################################, ''#####,          
                    ,#############################################,,   '####,        
                  ,##################################################,,,,####,       
                ,###########''''           ''''###############################       
              ,#####''   ,,,,##########,,,,          '''####'''          '####       
            ,##' ,,,,###########################,,,                        '##       
           ' ,,###''''                  '''############,,,                           
         ,,##''                                '''############,,,,        ,,,,,,###''
      ,#''                                            '''#######################'''  
     '                                                          ''''####''''         
             ,#######,   #######,   ,#######,      ##                                
            ,#'     '#,  ##    ##  ,#'     '#,    #''#        ,####,   ,####,        
            ##       ##  ##   ,#'  ##            #'  '#       #'       #'  '#        
            ##       ##  #######   ##           ,######,      #####,   #    #        
            '#,     ,#'  ##    ##  '#,     ,#' ,#      #,     #,   #   #,  ,#        
             '#######'   ##     ##  '#######'  #'      '#     '####' # '####'        



                #########################################################
                #                        -***-                          #
                #          Department of theory and spectroscopy        #
                #                                                       #
                #                      Frank Neese                      #
                #                                                       #
                #     Directorship, Architecture, Infrastructure        #
                #                    SHARK, DRIVERS                     #
                #        Core code/Algorithms in most modules           #
                #                                                       #
                #        Max Planck Institute fuer Kohlenforschung      #
                #                Kaiser Wilhelm Platz 1                 #
                #                 D-45470 Muelheim/Ruhr                 #
                #                      Germany                          #
                #                                                       #
                #                  All rights reserved                  #
                #                        -***-                          #
                #########################################################


                         Program Version 6.0.0  -   RELEASE  -


 With contributions from (in alphabetic order):
   Daniel Aravena         : Magnetic Suceptibility
   Michael Atanasov       : Ab Initio Ligand Field Theory (pilot matlab implementation)
   Alexander A. Auer      : GIAO ZORA, VPT2 properties, NMR spectrum
   Ute Becker             : All parallelization in ORCA, NUMFREQ, NUMCALC
   Giovanni Bistoni       : ED, misc. LED, open-shell LED, HFLD
   Martin Brehm           : Molecular dynamics
   Dmytro Bykov           : pre 5.0 version of the SCF Hessian
   Marcos Casanova-Páez   : Triplet and SCS-CIS(D). UHF-(DLPNO)-IP/EA/STEOM-CCSD. UHF-CVS-IP/STEOM-CCSD
   Vijay G. Chilkuri      : MRCI spin determinant printing, contributions to CSF-ICE
   Pauline Colinet        : FMM embedding
   Dipayan Datta          : RHF DLPNO-CCSD density
   Achintya Kumar Dutta   : EOM-CC, STEOM-CC
   Nicolas Foglia         : Exact transition moments, OPA infrastructure, MCD improvements
   Dmitry Ganyushin       : Spin-Orbit,Spin-Spin,Magnetic field MRCI
   Miquel Garcia          : C-PCM and meta-GGA Hessian, CCSD/C-PCM, Gaussian charge scheme
   Tiago L. C. Gouveia    : GS-ROHF, GS-ROCIS
   Yang Guo               : DLPNO-NEVPT2, F12-NEVPT2, CIM, IAO-localization
   Andreas Hansen         : Spin unrestricted coupled pair/coupled cluster methods
   Ingolf Harden          : AUTO-CI MPn and infrastructure 
   Benjamin Helmich-Paris : MC-RPA, TRAH-(SCF,CASSCF), AVAS, COSX integrals, SCF dyn. polar.
   Lee Huntington         : MR-EOM, pCC
   Robert Izsak           : Overlap fitted RIJCOSX, COSX-SCS-MP3, EOM
   Riya Kayal             : Wick's Theorem for AUTO-CI, AUTO-CI UHF-CCSDT
   Emily Kempfer          : AUTO-CI, RHF CISDT and CCSDT
   Christian Kollmar      : KDIIS, OOCD, Brueckner-CCSD(T), CCSD density, CASPT2, CASPT2-K, improved NEVPT2
   Axel Koslowski         : Symmetry handling
   Simone Kossmann        : Meta GGA functionals, TD-DFT gradient, OOMP2, (MP2 Hessian; deprecated post 5.0)
   Lucas Lang             : DCDCAS
   Marvin Lechner         : AUTO-CI (C++ implementation), FIC-MRCC
   Spencer Leger          : CASSCF response
   Dagmar Lenk            : GEPOL surface, SMD, ORCA-2-JSON
   Dimitrios Liakos       : Extrapolation schemes; Compound Job, initial MDCI parallelization
   Dimitrios Manganas     : Further ROCIS development; embedding schemes. LFT, Crystal Embedding
   Dimitrios Pantazis     : SARC Basis sets
   Anastasios Papadopoulos: AUTO-CI, single reference methods and gradients
   Taras Petrenko         : pre 6.0 DFT Hessian and TD-DFT gradient, (ASA, deprecated), ECA, 1-Electron XAS/XES, NRVS
   Peter Pinski           : DLPNO-MP2, DLPNO-MP2 Gradient
   Christoph Reimann      : Effective Core Potentials
   Marius Retegan         : Local ZFS, SOC
   Christoph Riplinger    : Optimizer, TS searches, QM/MM, DLPNO-CCSD(T), (RO)-DLPNO pert. Triples
   Michael Roemelt        : Original ROCIS implementation
   Masaaki Saitow         : Open-shell DLPNO-CCSD energy and density
   Barbara Sandhoefer     : DKH picture change effects
   Kantharuban Sivalingam : CASSCF convergence/infrastructure, NEVPT2 and variants, FIC-MRCI
   Bernardo de Souza      : ESD, SOC TD-DFT
   Georgi Stoychev        : AutoAux, RI-MP2 NMR, DLPNO-MP2 response, X2C
   Van Anh Tran           : RI-MP2 g-tensors
   Willem Van den Heuvel  : Paramagnetic NMR
   Zikuan Wang            : NOTCH, Electric field optimization 
   Frank Wennmohs         : Technical directorship and infrastructure
   Hang Xu                : AUTO-CI-Response properties 


 We gratefully acknowledge several colleagues who have allowed us to
 interface, adapt or use parts of their codes:
   Stefan Grimme, W. Hujo, H. Kruse, P. Pracht,  : VdW corrections, initial TS optimization,
                  C. Bannwarth, S. Ehlert,         DFT functionals, gCP, sTDA/sTD-DF
                  L. Wittmann, M. Mueller
   Ed Valeev, F. Pavosevic, A. Kumar             : LibInt (2-el integral package), F12 methods
   Garnet Chan, S. Sharma, J. Yang, R. Olivares  : DMRG
   Ulf Ekstrom                                   : XCFun DFT Library
   Mihaly Kallay                                 : mrcc  (arbitrary order and MRCC methods)
   Frank Weinhold                                : gennbo (NPA and NBO analysis)
   Simon Mueller                                 : openCOSMO-RS
   Christopher J. Cramer and Donald G. Truhlar   : smd solvation model
   Lars Goerigk                                  : TD-DFT with DH, B97 family of functionals
   V. Asgeirsson, H. Jonsson                     : NEB implementation
   FAccTs GmbH                                   : IRC, NEB, NEB-TS, DLPNO-Multilevel, CI-OPT
                                                   MM, QMMM, 2- and 3-layer-ONIOM, Crystal-QMMM,
                                                   LR-CPCM, SF, NACMEs, symmetry and pop. for TD-DFT,
                                                   nearIR, NL-DFT gradient (VV10), updates on ESD,
                                                   ML-optimized integration grids, MBIS, APM,
                                                   GOAT, DOCKER, SOLVATOR, interface openCOSMO-RS
   S Lehtola, MJT Oliveira, MAL Marques          : LibXC Library
   Liviu Ungur et al                             : ANISO software


 Your calculation uses the libint2 library for the computation of 2-el integrals
 For citations please refer to: http://libint.valeyev.net

 Your ORCA version has been built with support for libXC version: 6.2.2
 For citations please refer to: https://libxc.gitlab.io

 This ORCA versions uses:
   CBLAS   interface :  Fast vector & matrix operations
   LAPACKE interface :  Fast linear algebra routines
   SCALAPACK package :  Parallel linear algebra routines
   Shared memory     :  Shared parallel matrices
   BLAS/LAPACK       :  OpenBLAS 0.3.27  USE64BITINT DYNAMIC_ARCH NO_AFFINITY Zen SINGLE_THREADED
        Core in use  :  Zen
   Copyright (c) 2011-2014, The OpenBLAS Project


NOTE: MaxCore=8000 MB was set to SCF,MP2,MDCI,CIPSI,MRCI and CIS
      => If you want to overwrite this, your respective input block should be placed after the MaxCore statement
Your calculation utilizes the atom-pairwise dispersion correction
based on EEQ partial charges (D4)


================================================================================

----- Orbital basis set information -----
Your calculation utilizes the basis: pcJ-0
   F. Jensen, Theor. Chem. Acc. 126, 371 (2010).

----- AuxJ basis set information -----
Your calculation utilizes the auxiliary basis: def2/J
   F. Weigend, Phys. Chem. Chem. Phys. 8, 1057 (2006).

================================================================================
                                        WARNINGS
                       Please study these warnings very carefully!
================================================================================

WARNING: Old DensityContainer found on disk!
         Will remove this file - 
         If you want to keep old densities, please start your calculation with a different basename. 


================================================================================
                                       INPUT FILE
================================================================================
NAME = inpJ
|  1> ! pbe0
|  2> ! D4
|  3> ! pcJ-0
|  4> ! def2/J RIJCOSX
|  5> ! DEFGRID2
|  6> ! scfconv7
|  7> ! smallprint printgap noloewdin
|  8> ! NOSOSCF
|  9> %MaxCore 8000
| 10> %output
| 11>        print[P_BondOrder_M] 1
| 12>        print[P_Mayer] 1
| 13>        print[P_basis] 2
| 14> end
| 15> %pal
| 16>     nprocs 4
| 17> end
| 18> ! CPCM(chloroform)
| 19> *xyz 0 1
| 20> C   -5.0492570300   0.3352656400   0.3096650700
| 21> C   -6.4583702600  -0.0817239500  -0.0400744900
| 22> C   -6.9895123900   0.6794581300  -1.2607971900
| 23> H   -7.1288010000   0.1487346900   0.8053205000
| 24> H   -6.5089150600  -1.1609062500  -0.2218786800
| 25> C   -4.8597200800   1.7972169100   0.4202479400
| 26> C   -5.4372710700   2.5917923000  -0.7293653300
| 27> C   -6.8851140100   2.1832711000  -1.0330698400
| 28> H   -4.8272405600   2.3996160500  -1.6251069800
| 29> H   -5.3755138400   3.6642390100  -0.5165196800
| 30> H   -7.2525795900   2.7172790000  -1.9172966200
| 31> H   -7.5317214300   2.4566450900  -0.1855706400
| 32> O   -8.3292011900   0.2800137100  -1.5787976200
| 33> H   -6.3953836200   0.4016220000  -2.1426465300
| 34> C   -4.0677191100  -0.5863801700   0.4536039200
| 35> C   -4.2685685400   2.3858282400   1.4663063300
| 36> H   -3.8818094800   1.8045736000   2.2986779900
| 37> H   -4.1691279100   3.4675447700   1.5163752500
| 38> C   -2.6679135800  -0.3210547600   0.6917179900
| 39> H   -4.3661905300  -1.6272849900   0.3367746800
| 40> C   -1.7036012000  -1.2414515400   0.9074578000
| 41> H   -2.3736536400   0.7259777200   0.6826356500
| 42> C   -1.9141081000  -2.7316512500   0.9999941700
| 43> C   -0.9762004300  -3.5019592800   0.0515950400
| 44> H   -2.9522632600  -3.0175016100   0.8099924400
| 45> H   -1.6849652100  -3.0393991300   2.0328922400
| 46> C    0.4925329500  -3.0836270400   0.2043107300
| 47> H   -1.3020176800  -3.3400354600  -0.9836639800
| 48> H   -1.0736787900  -4.5774412500   0.2442077700
| 49> C    0.6723787400  -1.5666412200   0.0539728400
| 50> H    1.0961301100  -3.6312190300  -0.5269462000
| 51> H    0.8510496300  -3.3789160100   1.2020332500
| 52> C   -0.2627427900  -0.8786043700   1.0986865200
| 53> H    0.0402663500  -1.3149151700   2.0685944100
| 54> C    0.1899395700   0.5785362700   1.1026168000
| 55> H   -8.8890699200   0.5128464300  -0.8260540100
| 56> C    1.7221083900   0.4824738100   0.8982763500
| 57> H   -0.0855098100   1.0932834400   2.0291534800
| 58> H   -0.2728161100   1.1305880000   0.2769000200
| 59> C    2.0416523200  -0.9929327700   0.5121719700
| 60> H    2.2739218300   0.7734731600   1.7977052600
| 61> H    2.0541020700   1.1581302800   0.1011809800
| 62> H    2.3169508900  -1.5428821800   1.4271983300
| 63> C    3.2466057100  -1.0774371800  -0.4464796800
| 64> C    0.3362228600  -1.1089744800  -1.3715935800
| 65> H   -0.7271472000  -1.2406308800  -1.5943045600
| 66> H    0.9090805000  -1.6839958300  -2.1075550700
| 67> H    0.5724108900  -0.0506857000  -1.5210070400
| 68> H    3.0072904300  -0.5058802000  -1.3555119800
| 69> C    3.6073509400  -2.5153183600  -0.8490890200
| 70> C    4.4438840400  -0.4360899000   0.2054642600
| 71> C    5.1192792600   0.5987041400  -0.2929915600
| 72> H    4.7530806200  -0.8969413300   1.1459491800
| 73> H    4.7719271600   1.0201583900  -1.2410887800
| 74> C    6.3251217300   1.2969695100   0.2874507400
| 75> C    7.3898643200   1.4632728200  -0.8105109300
| 76> C    6.8784443000   0.6646355400   1.5825834300
| 77> H    5.9890042900   2.3139558600   0.5548733200
| 78> H    6.0120982200   0.4467421700   2.2237727400
| 79> C    7.7637649600   1.6498460400   2.3521906800
| 80> C    7.6351510000  -0.6453232000   1.3378178800
| 81> H    6.9805478300   2.0300612300  -1.6535923300
| 82> H    7.7174700300   0.4902369900  -1.1914368300
| 83> H    8.2684459700   2.0016029200  -0.4410803300
| 84> H    8.0940899100   1.2104068500   3.3001467400
| 85> H    7.2239201600   2.5763651700   2.5785570500
| 86> H    8.6622570900   1.9113533900   1.7813085800
| 87> H    8.5934514700  -0.4535788600   0.8414834100
| 88> H    7.0650787300  -1.3383359500   0.7108653300
| 89> H    7.8510710600  -1.1449809600   2.2887168000
| 90> H    4.5418141800  -2.5244795200  -1.4203879800
| 91> H    2.8303591300  -2.9697909100  -1.4689608300
| 92> H    3.7464911200  -3.1442165300   0.0389191000
| 93> *
| 94> %eprnmr
| 95>  Nuclei = all C { ssfc }
| 96>  SpinSpinRThresh 8.0
| 97> end
| 98> 
| 99>                          ****END OF INPUT****
================================================================================

                       ****************************
                       * Single Point Calculation *
                       ****************************

---------------------------------
CARTESIAN COORDINATES (ANGSTROEM)
---------------------------------
  C     -5.049257    0.335266    0.309665
  C     -6.458370   -0.081724   -0.040074
  C     -6.989512    0.679458   -1.260797
  H     -7.128801    0.148735    0.805320
  H     -6.508915   -1.160906   -0.221879
  C     -4.859720    1.797217    0.420248
  C     -5.437271    2.591792   -0.729365
  C     -6.885114    2.183271   -1.033070
  H     -4.827241    2.399616   -1.625107
  H     -5.375514    3.664239   -0.516520
  H     -7.252580    2.717279   -1.917297
  H     -7.531721    2.456645   -0.185571
  O     -8.329201    0.280014   -1.578798
  H     -6.395384    0.401622   -2.142647
  C     -4.067719   -0.586380    0.453604
  C     -4.268569    2.385828    1.466306
  H     -3.881809    1.804574    2.298678
  H     -4.169128    3.467545    1.516375
  C     -2.667914   -0.321055    0.691718
  H     -4.366191   -1.627285    0.336775
  C     -1.703601   -1.241452    0.907458
  H     -2.373654    0.725978    0.682636
  C     -1.914108   -2.731651    0.999994
  C     -0.976200   -3.501959    0.051595
  H     -2.952263   -3.017502    0.809992
  H     -1.684965   -3.039399    2.032892
  C      0.492533   -3.083627    0.204311
  H     -1.302018   -3.340035   -0.983664
  H     -1.073679   -4.577441    0.244208
  C      0.672379   -1.566641    0.053973
  H      1.096130   -3.631219   -0.526946
  H      0.851050   -3.378916    1.202033
  C     -0.262743   -0.878604    1.098687
  H      0.040266   -1.314915    2.068594
  C      0.189940    0.578536    1.102617
  H     -8.889070    0.512846   -0.826054
  C      1.722108    0.482474    0.898276
  H     -0.085510    1.093283    2.029153
  H     -0.272816    1.130588    0.276900
  C      2.041652   -0.992933    0.512172
  H      2.273922    0.773473    1.797705
  H      2.054102    1.158130    0.101181
  H      2.316951   -1.542882    1.427198
  C      3.246606   -1.077437   -0.446480
  C      0.336223   -1.108974   -1.371594
  H     -0.727147   -1.240631   -1.594305
  H      0.909080   -1.683996   -2.107555
  H      0.572411   -0.050686   -1.521007
  H      3.007290   -0.505880   -1.355512
  C      3.607351   -2.515318   -0.849089
  C      4.443884   -0.436090    0.205464
  C      5.119279    0.598704   -0.292992
  H      4.753081   -0.896941    1.145949
  H      4.771927    1.020158   -1.241089
  C      6.325122    1.296970    0.287451
  C      7.389864    1.463273   -0.810511
  C      6.878444    0.664636    1.582583
  H      5.989004    2.313956    0.554873
  H      6.012098    0.446742    2.223773
  C      7.763765    1.649846    2.352191
  C      7.635151   -0.645323    1.337818
  H      6.980548    2.030061   -1.653592
  H      7.717470    0.490237   -1.191437
  H      8.268446    2.001603   -0.441080
  H      8.094090    1.210407    3.300147
  H      7.223920    2.576365    2.578557
  H      8.662257    1.911353    1.781309
  H      8.593451   -0.453579    0.841483
  H      7.065079   -1.338336    0.710865
  H      7.851071   -1.144981    2.288717
  H      4.541814   -2.524480   -1.420388
  H      2.830359   -2.969791   -1.468961
  H      3.746491   -3.144217    0.038919

----------------------------
CARTESIAN COORDINATES (A.U.)
----------------------------
  NO LB      ZA    FRAG     MASS         X           Y           Z
   0 C     6.0000    0    12.011   -9.541713    0.633560    0.585182
   1 C     6.0000    0    12.011  -12.204551   -0.154436   -0.075730
   2 C     6.0000    0    12.011  -13.208264    1.283990   -2.382561
   3 H     1.0000    0     1.008  -13.471482    0.281068    1.521835
   4 H     1.0000    0     1.008  -12.300067   -2.193795   -0.419290
   5 C     6.0000    0    12.011   -9.183540    3.396248    0.794154
   6 C     6.0000    0    12.011  -10.274953    4.897778   -1.378301
   7 C     6.0000    0    12.011  -13.010980    4.125784   -1.952219
   8 H     1.0000    0     1.008   -9.122163    4.534617   -3.071007
   9 H     1.0000    0     1.008  -10.158249    6.924408   -0.976081
  10 H     1.0000    0     1.008  -13.705389    5.134913   -3.623166
  11 H     1.0000    0     1.008  -14.232891    4.642386   -0.350678
  12 O     8.0000    0    15.999  -15.739909    0.529149   -2.983495
  13 H     1.0000    0     1.008  -12.085524    0.758956   -4.049015
  14 C     6.0000    0    12.011   -7.686875   -1.108098    0.857187
  15 C     6.0000    0    12.011   -8.066426    4.508562    2.770917
  16 H     1.0000    0     1.008   -7.335557    3.410150    4.343872
  17 H     1.0000    0     1.008   -7.878510    6.552710    2.865534
  18 C     6.0000    0    12.011   -5.041626   -0.606706    1.307158
  19 H     1.0000    0     1.008   -8.250904   -3.075123    0.636412
  20 C     6.0000    0    12.011   -3.219340   -2.346003    1.714847
  21 H     1.0000    0     1.008   -4.485555    1.371899    1.289994
  22 C     6.0000    0    12.011   -3.617140   -5.162073    1.889715
  23 C     6.0000    0    12.011   -1.844751   -6.617744    0.097500
  24 H     1.0000    0     1.008   -5.578969   -5.702252    1.530664
  25 H     1.0000    0     1.008   -3.184123   -5.743632    3.841610
  26 C     6.0000    0    12.011    0.930752   -5.827211    0.386091
  27 H     1.0000    0     1.008   -2.460457   -6.311752   -1.858856
  28 H     1.0000    0     1.008   -2.028959   -8.650110    0.461486
  29 C     6.0000    0    12.011    1.270612   -2.960523    0.101994
  30 H     1.0000    0     1.008    2.071386   -6.862009   -0.995784
  31 H     1.0000    0     1.008    1.608251   -6.385226    2.271514
  32 C     6.0000    0    12.011   -0.496512   -1.660322    2.076217
  33 H     1.0000    0     1.008    0.076092   -2.484830    3.909077
  34 C     6.0000    0    12.011    0.358934    1.093275    2.083644
  35 H     1.0000    0     1.008  -16.797908    0.969139   -1.561016
  36 C     6.0000    0    12.011    3.254313    0.911743    1.697496
  37 H     1.0000    0     1.008   -0.161590    2.066006    3.834544
  38 H     1.0000    0     1.008   -0.515548    2.136502    0.523265
  39 C     6.0000    0    12.011    3.858164   -1.876371    0.967865
  40 H     1.0000    0     1.008    4.297090    1.461652    3.397171
  41 H     1.0000    0     1.008    3.881690    2.188549    0.191204
  42 H     1.0000    0     1.008    4.378403   -2.915625    2.697014
  43 C     6.0000    0    12.011    6.135196   -2.036061   -0.843724
  44 C     6.0000    0    12.011    0.635369   -2.095658   -2.591936
  45 H     1.0000    0     1.008   -1.374109   -2.344453   -3.012799
  46 H     1.0000    0     1.008    1.717913   -3.182291   -3.982702
  47 H     1.0000    0     1.008    1.081700   -0.095782   -2.874287
  48 H     1.0000    0     1.008    5.682955   -0.955975   -2.561546
  49 C     6.0000    0    12.011    6.816905   -4.753263   -1.604546
  50 C     6.0000    0    12.011    8.397724   -0.824090    0.388271
  51 C     6.0000    0    12.011    9.674036    1.131387   -0.553674
  52 H     1.0000    0     1.008    8.982021   -1.694973    2.165530
  53 H     1.0000    0     1.008    9.017635    1.927820   -2.345318
  54 C     6.0000    0    12.011   11.952748    2.450917    0.543203
  55 C     6.0000    0    12.011   13.964820    2.765185   -1.531644
  56 C     6.0000    0    12.011   12.998376    1.255979    2.990649
  57 H     1.0000    0     1.008   11.317578    4.372743    1.048559
  58 H     1.0000    0     1.008   11.361219    0.844220    4.202321
  59 C     6.0000    0    12.011   14.671390    3.117757    4.444996
  60 C     6.0000    0    12.011   14.428344   -1.219484    2.528109
  61 H     1.0000    0     1.008   13.191324    3.836260   -3.124837
  62 H     1.0000    0     1.008   14.583905    0.926414   -2.251489
  63 H     1.0000    0     1.008   15.625098    3.782481   -0.833521
  64 H     1.0000    0     1.008   15.295613    2.287337    6.236374
  65 H     1.0000    0     1.008   13.651231    4.868625    4.872767
  66 H     1.0000    0     1.008   16.369294    3.611934    3.366185
  67 H     1.0000    0     1.008   16.239270   -0.857140    1.590173
  68 H     1.0000    0     1.008   13.351064   -2.529088    1.343341
  69 H     1.0000    0     1.008   14.836374   -2.163700    4.325048
  70 H     1.0000    0     1.008    8.582785   -4.770575   -2.684144
  71 H     1.0000    0     1.008    5.348604   -5.612091   -2.775934
  72 H     1.0000    0     1.008    7.079842   -5.941708    0.073546

--------------------------------
INTERNAL COORDINATES (ANGSTROEM)
--------------------------------
 C      0   0   0     0.000000000000     0.00000000     0.00000000
 C      1   0   0     1.510562204266     0.00000000     0.00000000
 C      2   1   0     1.533516883334   111.73890249     0.00000000
 H      2   1   3     1.103304695451   109.37677375   241.45782138
 H      2   1   3     1.095555556301   110.69437543   122.88129406
 C      1   2   3     1.478328225533   114.19917856    50.51635035
 C      6   1   2     1.512126273498   114.44431429   312.11740747
 C      3   2   1     1.524536721901   110.30343171   304.96769973
 H      7   6   1     1.100646190989   108.37803312   289.82160228
 H      7   6   1     1.095106922620   110.19957777   172.64536676
 H      8   3   2     1.096381497571   109.69550939   179.11899799
 H      8   3   2     1.100495064963   108.65279224   296.55086231
 O      3   2   1     1.433682740007   111.21806437   180.28237329
 H      3   2   1     1.099017820116   109.02669813    65.11806576
 C      1   2   3     1.354092345458   120.85771076   232.66903311
 C      6   1   2     1.337969206050   123.37969370   129.95066666
 H     16   6   1     1.086407891809   121.39446625     0.63723846
 H     16   6   1     1.087430911332   120.93184335   181.33299309
 C     15   1   2     1.444490015660   126.50884768   175.33522582
 H     15   1   2     1.089135943845   116.13245550   357.97124352
 C     19  15   1     1.350397076594   126.38073881   176.11762462
 H     19  15   1     1.087634320608   115.95268176   355.38724483
 C     21  19  15     1.507836632532   125.71214589   357.22083093
 C     23  21  19     1.540294182392   111.80555592   127.65008509
 H     23  21  19     1.093424538754   112.34956674     3.53176963
 H     23  21  19     1.101859176434   107.72977911   246.29946229
 C     24  23  21     1.534764374919   112.65215896    50.93803460
 H     24  23  21     1.097331965438   109.04450415   288.84545192
 H     24  23  21     1.096933526802   109.15331720   172.87617616
 C     27  24  23     1.534989240168   111.82370506   306.18195074
 H     27  24  23     1.094953522642   108.95160258   182.65292909
 H     27  24  23     1.100536238639   109.19740123    66.15751387
 C     21  19  15     1.498098611506   122.82827398   177.77680750
 H     33  21  19     1.105849432882   106.25607449   124.15788768
 C     33  21  19     1.525842590471   121.12921497     1.95448388
 H     13   3   2     0.966585233040   107.54172226    62.61694243
 C     35  33  21     1.548716987932   103.52872225   196.32124656
 H     35  33  21     1.095128864267   112.11261671    74.29431279
 H     35  33  21     1.095770109440   110.72528236   314.71457309
 C     30  27  24     1.553704593937   116.05884446   166.25047670
 H     37  35  33     1.094600867170   111.95204846   249.34369045
 H     37  35  33     1.096399789259   110.93244647   130.76054361
 H     40  30  27     1.102500292834   106.29797653   320.80937216
 C     40  30  27     1.542098133528   119.01612556    81.59684745
 C     30  27  24     1.534502928766   111.10473300   294.17279300
 H     45  30  27     1.094390000310   111.47106182    66.61407843
 H     45  30  27     1.095652656377   110.66843302   306.45931059
 H     45  30  27     1.094570376640   111.58666418   186.62935067
 H     44  40  30     1.100131313558   108.37439616    61.46384072
 C     44  40  30     1.536142470418   113.43568688   300.63753146
 C     44  40  30     1.506596373935   109.18481548   178.89078982
 C     51  44  40     1.332447227064   124.85731495   239.07850245
 H     51  44  40     1.092015773862   114.71095607    60.04532435
 H     52  51  44     1.094150585975   117.54079760     0.66394707
 C     52  51  44     1.509484631597   128.33955293   180.20855947
 C     55  52  51     1.538458125093   109.17419551   132.23774804
 C     55  52  51     1.543820197042   114.79872674     3.82850596
 H     55  52  51     1.103970563852   106.02559800   246.61419676
 H     57  55  52     1.099616652420   106.73564807   315.26961574
 C     57  55  52     1.531903299685   111.41826401   198.97170121
 C     57  55  52     1.532483965591   113.14761100    74.20101663
 H     56  55  52     1.095251266935   110.28285939    58.03632799
 H     56  55  52     1.095093041243   111.05379884   298.73642039
 H     56  55  52     1.094615905466   111.57948606   177.78058503
 H     60  57  55     1.095829396389   110.54236525   176.23175600
 H     60  57  55     1.095952480635   111.27193707    56.24546587
 H     60  57  55     1.096166307581   111.43774218   295.59210678
 H     61  57  55     1.096108383708   110.76217807    71.16865744
 H     61  57  55     1.094677379248   112.05401706   310.67256041
 H     61  57  55     1.095667881019   110.39588118   190.10173777
 H     50  44  40     1.095302686686   110.17488361   187.33197529
 H     50  44  40     1.092933041107   111.77272408    67.38442442
 H     50  44  40     1.097010172745   110.74695183   306.76796958

---------------------------
INTERNAL COORDINATES (A.U.)
---------------------------
 C      0   0   0     0.000000000000     0.00000000     0.00000000
 C      1   0   0     2.854548874316     0.00000000     0.00000000
 C      2   1   0     2.897926931245   111.73890249     0.00000000
 H      2   1   3     2.084943716672   109.37677375   241.45782138
 H      2   1   3     2.070299965905   110.69437543   122.88129406
 C      1   2   3     2.793635482303   114.19917856    50.51635035
 C      6   1   2     2.857504536819   114.44431429   312.11740747
 C      3   2   1     2.880956885499   110.30343171   304.96769973
 H      7   6   1     2.079919871314   108.37803312   289.82160228
 H      7   6   1     2.069452171114   110.19957777   172.64536676
 H      8   3   2     2.071860768708   109.69550939   179.11899799
 H      8   3   2     2.079634284512   108.65279224   296.55086231
 O      3   2   1     2.709267741544   111.21806437   180.28237329
 H      3   2   1     2.076842696319   109.02669813    65.11806576
 C      1   2   3     2.558863692955   120.85771076   232.66903311
 C      6   1   2     2.528395375055   123.37969370   129.95066666
 H     16   6   1     2.053013385250   121.39446625     0.63723846
 H     16   6   1     2.054946611978   120.93184335   181.33299309
 C     15   1   2     2.729690532782   126.50884768   175.33522582
 H     15   1   2     2.058168656477   116.13245550   357.97124352
 C     19  15   1     2.551880646811   126.38073881   176.11762462
 H     19  15   1     2.055330999802   115.95268176   355.38724483
 C     21  19  15     2.849398290179   125.71214589   357.22083093
 C     23  21  19     2.910734170394   111.80555592   127.65008509
 H     23  21  19     2.066272926355   112.34956674     3.53176963
 H     23  21  19     2.082212081608   107.72977911   246.29946229
 C     24  23  21     2.900284348697   112.65215896    50.93803460
 H     24  23  21     2.073656892676   109.04450415   288.84545192
 H     24  23  21     2.072903952771   109.15331720   172.87617616
 C     27  24  23     2.900709282433   111.82370506   306.18195074
 H     27  24  23     2.069162287165   108.95160258   182.65292909
 H     27  24  23     2.079712091483   109.19740123    66.15751387
 C     21  19  15     2.830996097355   122.82827398   177.77680750
 H     33  21  19     2.089752573498   106.25607449   124.15788768
 C     33  21  19     2.883424619463   121.12921497     1.95448388
 H     13   3   2     1.826581375537   107.54172226    62.61694243
 C     35  33  21     2.926650966142   103.52872225   196.32124656
 H     35  33  21     2.069493634817   112.11261671    74.29431279
 H     35  33  21     2.070705412578   110.72528236   314.71457309
 C     30  27  24     2.936076175556   116.05884446   166.25047670
 H     37  35  33     2.068495864904   111.95204846   249.34369045
 H     37  35  33     2.071895334989   110.93244647   130.76054361
 H     40  30  27     2.083423616024   106.29797653   320.80937216
 C     40  30  27     2.914143143999   119.01612556    81.59684745
 C     30  27  24     2.899790287068   111.10473300   294.17279300
 H     45  30  27     2.068097384287   111.47106182    66.61407843
 H     45  30  27     2.070483458455   110.66843302   306.45931059
 H     45  30  27     2.068438246153   111.58666418   186.62935067
 H     44  40  30     2.078946893976   108.37439616    61.46384072
 C     44  40  30     2.902888571775   113.43568688   300.63753146
 C     44  40  30     2.847054541096   109.18481548   178.89078982
 C     51  44  40     2.517960347054   124.85731495   239.07850245
 H     51  44  40     2.063610746522   114.71095607    60.04532435
 H     52  51  44     2.067644956762   117.54079760     0.66394707
 C     52  51  44     2.852512557081   128.33955293   180.20855947
 C     55  52  51     2.907264524933   109.17419551   132.23774804
 C     55  52  51     2.917397372425   114.79872674     3.82850596
 H     55  52  51     2.086202025591   106.02559800   246.61419676
 H     57  55  52     2.077974325373   106.73564807   315.26961574
 C     57  55  52     2.894877700055   111.41826401   198.97170121
 C     57  55  52     2.895974999593   113.14761100    74.20101663
 H     56  55  52     2.069724942337   110.28285939    58.03632799
 H     56  55  52     2.069425939113   111.05379884   298.73642039
 H     56  55  52     2.068524283165   111.57948606   177.78058503
 H     60  57  55     2.070817448676   110.54236525   176.23175600
 H     60  57  55     2.071050044192   111.27193707    56.24546587
 H     60  57  55     2.071454118560   111.43774218   295.59210678
 H     61  57  55     2.071344658303   110.76217807    71.16865744
 H     61  57  55     2.068640451777   112.05401706   310.67256041
 H     61  57  55     2.070512228859   110.39588118   190.10173777
 H     50  44  40     2.069822111584   110.17488361   187.33197529
 H     50  44  40     2.065344130406   111.77272408    67.38442442
 H     50  44  40     2.073048792613   110.74695183   306.76796958

---------------------
BASIS SET INFORMATION
---------------------
There are 3 groups of distinct atoms

 Group   1 Type C   : 7s4p contracted to 4s3p pattern {4111/211}
 Group   2 Type H   : 5s contracted to 3s pattern {311}
 Group   3 Type O   : 7s4p contracted to 4s3p pattern {4111/211}

Atom   0C    basis set group =>   1
Atom   1C    basis set group =>   1
Atom   2C    basis set group =>   1
Atom   3H    basis set group =>   2
Atom   4H    basis set group =>   2
Atom   5C    basis set group =>   1
Atom   6C    basis set group =>   1
Atom   7C    basis set group =>   1
Atom   8H    basis set group =>   2
Atom   9H    basis set group =>   2
Atom  10H    basis set group =>   2
Atom  11H    basis set group =>   2
Atom  12O    basis set group =>   3
Atom  13H    basis set group =>   2
Atom  14C    basis set group =>   1
Atom  15C    basis set group =>   1
Atom  16H    basis set group =>   2
Atom  17H    basis set group =>   2
Atom  18C    basis set group =>   1
Atom  19H    basis set group =>   2
Atom  20C    basis set group =>   1
Atom  21H    basis set group =>   2
Atom  22C    basis set group =>   1
Atom  23C    basis set group =>   1
Atom  24H    basis set group =>   2
Atom  25H    basis set group =>   2
Atom  26C    basis set group =>   1
Atom  27H    basis set group =>   2
Atom  28H    basis set group =>   2
Atom  29C    basis set group =>   1
Atom  30H    basis set group =>   2
Atom  31H    basis set group =>   2
Atom  32C    basis set group =>   1
Atom  33H    basis set group =>   2
Atom  34C    basis set group =>   1
Atom  35H    basis set group =>   2
Atom  36C    basis set group =>   1
Atom  37H    basis set group =>   2
Atom  38H    basis set group =>   2
Atom  39C    basis set group =>   1
Atom  40H    basis set group =>   2
Atom  41H    basis set group =>   2
Atom  42H    basis set group =>   2
Atom  43C    basis set group =>   1
Atom  44C    basis set group =>   1
Atom  45H    basis set group =>   2
Atom  46H    basis set group =>   2
Atom  47H    basis set group =>   2
Atom  48H    basis set group =>   2
Atom  49C    basis set group =>   1
Atom  50C    basis set group =>   1
Atom  51C    basis set group =>   1
Atom  52H    basis set group =>   2
Atom  53H    basis set group =>   2
Atom  54C    basis set group =>   1
Atom  55C    basis set group =>   1
Atom  56C    basis set group =>   1
Atom  57H    basis set group =>   2
Atom  58H    basis set group =>   2
Atom  59C    basis set group =>   1
Atom  60C    basis set group =>   1
Atom  61H    basis set group =>   2
Atom  62H    basis set group =>   2
Atom  63H    basis set group =>   2
Atom  64H    basis set group =>   2
Atom  65H    basis set group =>   2
Atom  66H    basis set group =>   2
Atom  67H    basis set group =>   2
Atom  68H    basis set group =>   2
Atom  69H    basis set group =>   2
Atom  70H    basis set group =>   2
Atom  71H    basis set group =>   2
Atom  72H    basis set group =>   2

-------------------------
BASIS SET IN INPUT FORMAT
-------------------------

 # Basis set for element : H 
 NewGTO H 
 S 3 
   1    1357.7500000000      0.0012928364
   2      54.3100000000      0.0588280685
   3       4.3448000000      0.9761499708
 S 1 
   1       0.6604910000      1.0000000000
 S 1 
   1       0.1366870000      1.0000000000
  end;

 # Basis set for element : C 
 NewGTO C 
 S 4 
   1  139534.0000000000      0.0001655246
   2    5581.3600000000      0.0074486101
   3     446.5090000000      0.1285821065
   4      67.4620000000      0.9218029311
 S 1 
   1      15.0674000000      1.0000000000
 S 1 
   1       3.9387600000      1.0000000000
 S 1 
   1       0.2999150000      1.0000000000
 P 2 
   1      28.3900000000      0.0816325586
   2       4.3676900000      0.9660360576
 P 1 
   1       0.8698170000      1.0000000000
 P 1 
   1       0.1889340000      1.0000000000
  end;

 # Basis set for element : O 
 NewGTO O 
 S 4 
   1  253789.0000000000      0.0001641076
   2   10151.6000000000      0.0074010921
   3     812.1250000000      0.1277711901
   4     122.6930000000      0.9223372164
 S 1 
   1      27.5608000000      1.0000000000
 S 1 
   1       7.3172600000      1.0000000000
 S 1 
   1       0.5792400000      1.0000000000
 P 2 
   1      53.4157000000      0.0793786106
   2       8.2177900000      0.9670506337
 P 1 
   1       1.6754400000      1.0000000000
 P 1 
   1       0.3506720000      1.0000000000
  end;

---------------------------------
AUXILIARY/J BASIS SET INFORMATION
---------------------------------
There are 3 groups of distinct atoms

 Group   1 Type C   : 12s5p4d2f1g contracted to 6s4p3d1f1g pattern {711111/2111/211/2/1}
 Group   2 Type H   : 5s2p1d contracted to 3s1p1d pattern {311/2/1}
 Group   3 Type O   : 12s5p4d2f1g contracted to 6s4p3d1f1g pattern {711111/2111/211/2/1}

Atom   0C    basis set group =>   1
Atom   1C    basis set group =>   1
Atom   2C    basis set group =>   1
Atom   3H    basis set group =>   2
Atom   4H    basis set group =>   2
Atom   5C    basis set group =>   1
Atom   6C    basis set group =>   1
Atom   7C    basis set group =>   1
Atom   8H    basis set group =>   2
Atom   9H    basis set group =>   2
Atom  10H    basis set group =>   2
Atom  11H    basis set group =>   2
Atom  12O    basis set group =>   3
Atom  13H    basis set group =>   2
Atom  14C    basis set group =>   1
Atom  15C    basis set group =>   1
Atom  16H    basis set group =>   2
Atom  17H    basis set group =>   2
Atom  18C    basis set group =>   1
Atom  19H    basis set group =>   2
Atom  20C    basis set group =>   1
Atom  21H    basis set group =>   2
Atom  22C    basis set group =>   1
Atom  23C    basis set group =>   1
Atom  24H    basis set group =>   2
Atom  25H    basis set group =>   2
Atom  26C    basis set group =>   1
Atom  27H    basis set group =>   2
Atom  28H    basis set group =>   2
Atom  29C    basis set group =>   1
Atom  30H    basis set group =>   2
Atom  31H    basis set group =>   2
Atom  32C    basis set group =>   1
Atom  33H    basis set group =>   2
Atom  34C    basis set group =>   1
Atom  35H    basis set group =>   2
Atom  36C    basis set group =>   1
Atom  37H    basis set group =>   2
Atom  38H    basis set group =>   2
Atom  39C    basis set group =>   1
Atom  40H    basis set group =>   2
Atom  41H    basis set group =>   2
Atom  42H    basis set group =>   2
Atom  43C    basis set group =>   1
Atom  44C    basis set group =>   1
Atom  45H    basis set group =>   2
Atom  46H    basis set group =>   2
Atom  47H    basis set group =>   2
Atom  48H    basis set group =>   2
Atom  49C    basis set group =>   1
Atom  50C    basis set group =>   1
Atom  51C    basis set group =>   1
Atom  52H    basis set group =>   2
Atom  53H    basis set group =>   2
Atom  54C    basis set group =>   1
Atom  55C    basis set group =>   1
Atom  56C    basis set group =>   1
Atom  57H    basis set group =>   2
Atom  58H    basis set group =>   2
Atom  59C    basis set group =>   1
Atom  60C    basis set group =>   1
Atom  61H    basis set group =>   2
Atom  62H    basis set group =>   2
Atom  63H    basis set group =>   2
Atom  64H    basis set group =>   2
Atom  65H    basis set group =>   2
Atom  66H    basis set group =>   2
Atom  67H    basis set group =>   2
Atom  68H    basis set group =>   2
Atom  69H    basis set group =>   2
Atom  70H    basis set group =>   2
Atom  71H    basis set group =>   2
Atom  72H    basis set group =>   2

-------------------------------------
AUXILIARY/J BASIS SET IN INPUT FORMAT
-------------------------------------

 # Auxiliary/J basis set for element : H 
 NewAuxJGTO H 
 S 3 
   1      15.6752927000      0.1007184237
   2       3.6063578000      0.3404257499
   3       1.2080016000      0.6491996172
 S 1 
   1       0.4726794000      1.0000000000
 S 1 
   1       0.2018100000      1.0000000000
 P 2 
   1       2.0281365000      0.5596620919
   2       0.5358730000      0.5596620919
 D 1 
   1       2.2165124000      1.0000000000
  end;

 # Auxiliary/J basis set for element : C 
 NewAuxJGTO C 
 S 7 
   1    1861.0916331000      0.0134602335
   2     642.9939764000      0.0299160374
   3     235.1105725000      0.1008649584
   4      90.7028894000      0.2370970548
   5      36.7794552000      0.3924037254
   6      15.6046273000      0.3195862154
   7       6.8907294000      0.0530104441
 S 1 
   1       3.1478850000     -1.0000000000
 S 1 
   1       1.4777287000      1.0000000000
 S 1 
   1       0.7076466000      1.0000000000
 S 1 
   1       0.3430122000      1.0000000000
 S 1 
   1       0.1669453000      1.0000000000
 P 2 
   1      13.5472892000     -0.6769313712
   2       5.4669419000     -0.3779500978
 P 1 
   1       2.1751721000      1.0000000000
 P 1 
   1       0.8582194000      1.0000000000
 P 1 
   1       0.3376720000      1.0000000000
 D 2 
   1       5.9287253000     -0.3533329857
   2       1.9809209000     -0.7456525731
 D 1 
   1       0.8055417000     -1.0000000000
 D 1 
   1       0.3531244000     -1.0000000000
 F 2 
   1       1.6755626000      0.6311076882
   2       0.5997536000      0.4968166032
 G 1 
   1       1.0024600000     -1.0000000000
  end;

 # Auxiliary/J basis set for element : O 
 NewAuxJGTO O 
 S 7 
   1    2876.8216605000      0.0168151159
   2    1004.7443032000      0.0340137548
   3     369.7579954000      0.1194951309
   4     142.9442404000      0.2664627624
   5      57.8366425000      0.4202764046
   6      24.3864983000      0.2765077335
   7      10.6622662000      0.0057008815
 S 1 
   1       4.8070437000     -1.0000000000
 S 1 
   1       2.2210770000      1.0000000000
 S 1 
   1       1.0447795000      1.0000000000
 S 1 
   1       0.4968425000      1.0000000000
 S 1 
   1       0.2371384000      1.0000000000
 P 2 
   1      64.2613382000     -0.2731534179
   2      16.3006076000     -0.8168011598
 P 1 
   1       4.3550542000      1.0000000000
 P 1 
   1       1.2019554000      1.0000000000
 P 1 
   1       0.3354196000      1.0000000000
 D 2 
   1       9.2146611000     -0.4661230638
   2       2.8435251000     -0.6600908911
 D 1 
   1       0.9955759000     -1.0000000000
 D 1 
   1       0.3649441000     -1.0000000000
 F 2 
   1       2.6420115000      0.5931563945
   2       0.7345613000      0.5931563945
 G 1 
   1       1.3931000000     -1.0000000000
  end;


Checking for AutoStart:
The File: inpJ.gbw exists
Trying to determine its content:
     ... Fine, the file contains calculation information
     ... Fine, the calculation information was read
     ... Fine, the file contains a basis set
     ... Fine, the basis set was read
     ... Fine, the file contains a geometry
     ... Fine, the geometry was read
     ... Fine, the file contains a set of orbitals
     ... Fine, the orbitals can be read
     => possible old guess file was deleted
     => GBW file was renamed to GES file
     => GES file is set as startup file
     => Guess is set to MORead
     ... now leaving AutoStart



           ************************************************************
           *        Program running with 4 parallel MPI-processes     *
           *              working on a common directory               *
           ************************************************************
------------------------------------------------------------------------------
                             ORCA STARTUP CALCULATIONS
                           -- RI-GTO INTEGRALS CHOSEN --
------------------------------------------------------------------------------
------------------------------------------------------------------------------
                   ___                                                        
                  /   \      - P O W E R E D   B Y -                         
                 /     \                                                     
                 |  |  |   _    _      __       _____    __    __             
                 |  |  |  | |  | |    /  \     |  _  \  |  |  /  |          
                  \  \/   | |  | |   /    \    | | | |  |  | /  /          
                 / \  \   | |__| |  /  /\  \   | |_| |  |  |/  /          
                |  |  |   |  __  | /  /__\  \  |    /   |      \           
                |  |  |   | |  | | |   __   |  |    \   |  |\   \          
                \     /   | |  | | |  |  |  |  | |\  \  |  | \   \       
                 \___/    |_|  |_| |__|  |__|  |_| \__\ |__|  \__/        
                                                                              
                      - O R C A' S   B I G   F R I E N D -                    
                                      &                                       
                       - I N T E G R A L  F E E D E R -                       
                                                                              
 v1 FN, 2020, v2 2021, v3 2022-2024                                           
------------------------------------------------------------------------------


----------------------
SHARK INTEGRAL PACKAGE
----------------------

Number of atoms                             ...     73
Number of basis functions                   ...    509
Number of shells                            ...    335
Maximum angular momentum                    ...      1
Integral batch strategy                     ... SHARK/LIBINT Hybrid
RI-J (if used) integral strategy            ... SPLIT-RIJ (Revised 2003 algorithm where possible)
Printlevel                                  ...      1
Contraction scheme used                     ... SEGMENTED contraction
Prescreening option                         ... SCHWARTZ
   Thresh                                   ... 3.000e-11
   Tcut                                     ... 1.000e-12
   Tpresel                                  ... 1.000e-12 
Coulomb Range Separation                    ... NOT USED
Exchange Range Separation                   ... NOT USED
Multipole approximations                    ... NOT USED
Finite Nucleus Model                        ... NOT USED
CABS basis                                  ... NOT available
Auxiliary Coulomb fitting basis             ... AVAILABLE
   # of basis functions in Aux-J            ...   1905
   # of shells in Aux-J                     ...    655
   Maximum angular momentum in Aux-J        ...      4
Auxiliary J/K fitting basis                 ... NOT available
Auxiliary Correlation fitting basis         ... NOT available
Auxiliary 'external' fitting basis          ... NOT available

Checking pre-screening integrals            ... done (  0.0 sec) Dimension = 335
Check shell pair data                       ... done (  0.0 sec)
Shell pair information
Shell pair cut-off parameter TPreSel        ...   1.0e-12
Total number of shell pairs                 ...     56280
Shell pairs after pre-screening             ...     21520
Total number of primitive shell pairs       ...    145865
Primitive shell pairs kept                  ...     37028
          la=0 lb=0:  10820 shell pairs
          la=1 lb=0:   8857 shell pairs
          la=1 lb=1:   1843 shell pairs

Calculating one electron integrals          ... done (  0.0 sec)
Calculating RI/J V-Matrix + Cholesky decomp.... done (  0.2 sec)
Calculating Nuclear repulsion               ... done (  0.0 sec) ENN=   2757.275562566319 Eh

Diagonalization of the overlap matrix:
Smallest eigenvalue                        ... 7.545e-03
Time for diagonalization                   ...    0.032 sec
Threshold for overlap eigenvalues          ... 1.000e-07
Number of eigenvalues below threshold      ... 0
Time for construction of square roots      ...    0.017 sec
Total time needed                          ...    0.052 sec

-------------------
DFT GRID GENERATION
-------------------

General Integration Accuracy     IntAcc      ... 4.388
Radial Grid Type                 RadialGrid  ... OptM3 with GC (2021)
Angular Grid (max. ang.)         AngularGrid ... 4 (Lebedev-302)
Angular grid pruning method      GridPruning ... 4 (adaptive)
Weight generation scheme         WeightScheme... mBecke (2022)
Basis function cutoff            BFCut       ... 1.0000e-11
Integration weight cutoff        WCut        ... 1.0000e-14
Partially contracted basis set               ... off
Rotationally invariant grid construction     ... off
Angular grids for H and He will be reduced by one unit

Total number of grid points                  ...   310007
Total number of batches                      ...     4880
Average number of points per batch           ...       63
Average number of grid points per atom       ...     4247

--------------------
COSX GRID GENERATION
--------------------

GRIDX 1
-------
General Integration Accuracy     IntAcc      ... 3.816
Radial Grid Type                 RadialGrid  ... OptM3 with GC (2021)
Angular Grid (max. ang.)         AngularGrid ... 1 (Lebedev-50)
Angular grid pruning method      GridPruning ... 4 (adaptive)
Weight generation scheme         WeightScheme... mBecke (2022)
Basis function cutoff            BFCut       ... 1.0000e-11
Integration weight cutoff        WCut        ... 1.0000e-14
Partially contracted basis set               ... on
Rotationally invariant grid construction     ... off
Angular grids for H and He will be reduced by one unit

Total number of grid points                  ...    39435
Total number of batches                      ...      353
Average number of points per batch           ...      111
Average number of grid points per atom       ...      540
UseSFitting                                  ... on

GRIDX 2
-------
General Integration Accuracy     IntAcc      ... 4.020
Radial Grid Type                 RadialGrid  ... OptM3 with GC (2021)
Angular Grid (max. ang.)         AngularGrid ... 2 (Lebedev-110)
Angular grid pruning method      GridPruning ... 4 (adaptive)
Weight generation scheme         WeightScheme... mBecke (2022)
Basis function cutoff            BFCut       ... 1.0000e-11
Integration weight cutoff        WCut        ... 1.0000e-14
Partially contracted basis set               ... on
Rotationally invariant grid construction     ... off
Angular grids for H and He will be reduced by one unit

Total number of grid points                  ...    81493
Total number of batches                      ...      679
Average number of points per batch           ...      120
Average number of grid points per atom       ...     1116
UseSFitting                                  ... on

GRIDX 3
-------
General Integration Accuracy     IntAcc      ... 4.338
Radial Grid Type                 RadialGrid  ... OptM3 with GC (2021)
Angular Grid (max. ang.)         AngularGrid ... 3 (Lebedev-194)
Angular grid pruning method      GridPruning ... 4 (adaptive)
Weight generation scheme         WeightScheme... mBecke (2022)
Basis function cutoff            BFCut       ... 1.0000e-11
Integration weight cutoff        WCut        ... 1.0000e-14
Partially contracted basis set               ... on
Rotationally invariant grid construction     ... off
Angular grids for H and He will be reduced by one unit

Total number of grid points                  ...   176441
Total number of batches                      ...     1420
Average number of points per batch           ...      124
Average number of grid points per atom       ...     2417
UseSFitting                                  ... on
Initializing property integral containers    ... done (  0.0 sec)

SHARK setup successfully completed in   3.9 seconds

Maximum memory used throughout the entire STARTUP-calculation: 85.0 MB


           ************************************************************
           *        Program running with 4 parallel MPI-processes     *
           *              working on a common directory               *
           ************************************************************
-------------------------------------------------------------------------------
                                 ORCA GUESS
                   Start orbitals & Density for SCF / CASSCF
-------------------------------------------------------------------------------

------------
SCF SETTINGS
------------
Hamiltonian:
 Density Functional     Method          .... DFT(GTOs)
 Exchange Functional    Exchange        .... PBE
   PBE kappa parameter   XKappa         ....  0.804000
   PBE mue parameter    XMuePBE         ....  0.219520
 Correlation Functional Correlation     .... PBE
   PBE beta parameter  CBetaPBE         ....  0.066725
 LDA part of GGA corr.  LDAOpt          .... PW91-LDA
 Gradients option       PostSCFGGA      .... off
 Hybrid DFT is turned on
   Fraction HF Exchange ScalHFX         ....  0.250000
   Scaling of DF-GGA-X  ScalDFX         ....  0.750000
   Scaling of DF-GGA-C  ScalDFC         ....  1.000000
   Scaling of DF-LDA-C  ScalLDAC        ....  1.000000
   Perturbative correction              ....  0.000000
   NL short-range parameter             ....  6.900000
 RI-approximation to the Coulomb term is turned on
   Number of AuxJ basis functions       .... 1905
   RIJ-COSX (HFX calculated with COS-X)).... on


General Settings:
 Integral files         IntName         .... inpJ
 Hartree-Fock type      HFTyp           .... RHF
 Total Charge           Charge          ....    0
 Multiplicity           Mult            ....    1
 Number of Electrons    NEL             ....  220
 Basis Dimension        Dim             ....  509
 Nuclear Repulsion      ENuc            ....   2757.2755625663 Eh

Convergence Acceleration:
 AO-DIIS                CNVDIIS         .... on
   Start iteration      DIISMaxIt       ....    12
   Startup error        DIISStart       ....  0.200000
   # of expansion vecs  DIISMaxEq       ....     5
   Bias factor          DIISBfac        ....   1.050
   Max. coefficient     DIISMaxC        ....  10.000
 MO-DIIS                CNVKDIIS        .... off
 Trust-Rad. Augm. Hess. CNVTRAH         .... auto
   Auto Start mean grad. ratio tolernc. ....  1.125000
   Auto Start start iteration           ....     1
   Auto Start num. interpolation iter.  ....    10
   Max. Number of Micro iterations      ....    24
   Max. Number of Macro iterations      .... Maxiter - #DIIS iter
   Number of Davidson start vectors     ....     2
   Converg. threshold    (grad. norm)   ....   1.000e-04
   Grad. Scal. Fac. for Micro threshold ....   0.100
   Minimum threshold for Micro iter.    ....   1.000e-02
   NR start threshold (gradient norm)   ....   1.000e-04
   Initial trust radius                 ....   0.400
   Minimum AH scaling param. (alpha)    ....   1.000
   Maximum AH scaling param. (alpha)    .... 1000.000
   Quad. conv. algorithm                .... NR
   White noise on init. David. guess    .... on
   Maximum white noise                  ....   0.010
   Pseudo random numbers                .... off
   Inactive MOs                         .... canonical
   Orbital update algorithm             .... Taylor
   Preconditioner                       .... Diag
   Full preconditioner red. dimension   ....   250
 SOSCF                  CNVSOSCF        .... off
 Level Shifting         CNVShift        .... on
   Level shift para.    LevelShift      ....    0.2500
   Turn off err/grad.   ShiftErr        ....    0.0010
 Zerner damping         CNVZerner       .... off
 Static damping         CNVDamp         .... on
   Fraction old density DampFac         ....    0.7000
   Max. Damping (<1)    DampMax         ....    0.9800
   Min. Damping (>=0)   DampMin         ....    0.0000
   Turn off err/grad.   DampErr         ....    0.1000

SCF Procedure:
 Maximum # iterations   MaxIter         ....   125
 SCF integral mode      SCFMode         .... Direct
   Integral package                     .... SHARK and LIBINT hybrid scheme
 Reset frequency        DirectResetFreq ....    20
 Integral Threshold     Thresh          ....  3.000e-11 Eh
 Primitive CutOff       TCut            ....  1.000e-12 Eh

Convergence Tolerance:
 Convergence Check Mode ConvCheckMode   .... Total+1el-Energy
 Convergence forced     ConvForced      .... 0
 Energy Change          TolE            ....  1.000e-07 Eh
 1-El. energy change                    ....  1.000e-04 Eh
 DIIS Error             TolErr          ....  1.000e-07

---------------------
INITIAL GUESS: MOREAD
---------------------
Guess MOs are being read from file: inpJ.ges
Input Geometry matches current geometry (good)
Input basis set matches current basis set (good)
Occupation numbers will be reassigned to an Aufbau configuration
MOs were renormalized
MOs were reorthogonalized (Cholesky)
                      ------------------
                      INITIAL GUESS DONE (   0.1 sec)
                      ------------------
             **** ENERGY FILE WAS UPDATED (inpJ.en.tmp) ****
Finished Guess after   0.2 sec
Maximum memory used throughout the entire GUESS-calculation: 36.4 MB


           ************************************************************
           *        Program running with 4 parallel MPI-processes     *
           *              working on a common directory               *
           ************************************************************

-------------------------------------------------------------------------------------------
                                      ORCA LEAN-SCF
                              memory conserving SCF solver
-------------------------------------------------------------------------------------------

--------------------
CPCM SOLVATION MODEL
--------------------
CPCM parameters:
  Epsilon                                         ...       4.8030
  Refrac                                          ...       1.4459
  Rsolv                                           ...       1.3000
  Surface type                                    ... GAUSSIAN VDW
  Discretization scheme                           ... Constant charge density
    Threshold for H atoms                         ...       5.0000 (charges/Ang^2)
    Threshold for non-H atoms                     ...       5.0000 (charges/Ang^2)
  Epsilon function type                           ...         CPCM
Solvent:                                          ... CHLOROFORM
Radii:
  Scheme                                          ... Element-dependent radii
  Radius for C  used is    3.8550 Bohr (=   2.0400 Ang.)
  Radius for H  used is    2.4944 Bohr (=   1.3200 Ang.)
  Radius for O  used is    3.4469 Bohr (=   1.8240 Ang.)
Calculating surface                               ...        done! (  0.0s)
Cavity surface points                             ...         5412
Cavity Volume                                     ...    3620.4513
Cavity Surface-area                               ...    1805.4763
Calculating surface distance matrix               ...        done! (  0.3s)
Performing Cholesky decomposition & store         ...        done! (  0.9s)
Overall time for CPCM initialization              ...                 1.2s

----------------------------------------D-I-I-S--------------------------------------------
Iteration    Energy (Eh)           Delta-E    RMSDP     MaxDP     DIISErr   Damp  Time(sec)
-------------------------------------------------------------------------------------------
               ***  Starting incremental Fock matrix formation  ***
    1    -1165.5081438118054393     0.00e+00  4.65e-08  5.66e-06  8.17e-06  0.700   6.3

  HOMO= 109 E= -5.921 eV LUMO=  5.980 eV gap=  11.901 eV
    2    -1165.5081438224328849    -1.06e-08  3.12e-08  3.36e-06  3.81e-06  0.700   2.0
                 **** Energy Check signals convergence ****

  HOMO= 109 E= -5.921 eV LUMO=  5.981 eV gap=  11.901 eV

               *****************************************************
               *                     SUCCESS                       *
               *           SCF CONVERGED AFTER   2 CYCLES          *
               *****************************************************

Recomputing exchange energy using gridx3       ... done (    8.102 sec)
Old exchange energy                            :    -42.067509397 Eh
New exchange energy                            :    -42.067574529 Eh
Exchange energy change after final integration :     -0.000065132 Eh
Total energy after final integration           :  -1165.508208954 Eh
             **** ENERGY FILE WAS UPDATED (inpJ.en.tmp) ****

----------------
TOTAL SCF ENERGY
----------------

Total Energy       :      -1165.50820895415313 Eh          -31715.09073 eV

Components:
Nuclear Repulsion  :       2757.27556256631851 Eh           75029.28247 eV
Electronic Energy  :      -3922.76827942834143 Eh         -106743.95164 eV
One Electron Energy:      -7056.62004517897822 Eh         -192020.39356 eV
Two Electron Energy:       3133.85176575063679 Eh           85276.44192 eV
CPCM Dielectric    :         -0.01542696040999 Eh              -0.41979 eV

Virial components:
Potential Energy   :      -2322.41066676913488 Eh          -63196.00707 eV
Kinetic Energy     :       1156.90245781498197 Eh           31480.91634 eV
Virial Ratio       :          2.00743861427646

DFT components:
N(Alpha)           :      110.000142818516 electrons
N(Beta)            :      110.000142818516 electrons
N(Total)           :      220.000285637031 electrons
E(X)               :     -125.745603371482 Eh       
E(C)               :       -7.326267043959 Eh       
E(XC)              :     -133.071870415441 Eh       

CPCM Solvation Model Properties:
Surface-charge          :         -0.03344938579723
Corrected charge        :         -0.00000000000000
Outlying charge corr.   :          0.00003885079484 Eh               0.00106 eV
Free-energy (cav+disp)  :  This term is not implemented in the current solvation scheme

---------------
SCF CONVERGENCE
---------------

  Last Energy change         ...    1.0627e-08  Tolerance :   1.0000e-07
  Last MAX-Density change    ...    3.3635e-06  Tolerance :   1.0000e-05
  Last RMS-Density change    ...    3.1173e-08  Tolerance :   1.0000e-06
  Last DIIS Error            ...    3.8144e-06  Tolerance :   1.0000e-07


----------------
ORBITAL ENERGIES
----------------

  NO   OCC          E(Eh)            E(eV) 
   0   2.0000     -19.215135      -522.8704 
   1   2.0000     -10.301379      -280.3148 
   2   2.0000     -10.269535      -279.4483 
   3   2.0000     -10.266796      -279.3737 
   4   2.0000     -10.261865      -279.2395 
   5   2.0000     -10.256177      -279.0848 
   6   2.0000     -10.253460      -279.0108 
   7   2.0000     -10.251894      -278.9682 
   8   2.0000     -10.249957      -278.9155 
   9   2.0000     -10.249257      -278.8965 
  10   2.0000     -10.247520      -278.8492 
  11   2.0000     -10.246102      -278.8106 
  12   2.0000     -10.245386      -278.7911 
  13   2.0000     -10.245318      -278.7893 
  14   2.0000     -10.244661      -278.7714 
  15   2.0000     -10.243901      -278.7507 
  16   2.0000     -10.243160      -278.7306 
  17   2.0000     -10.243011      -278.7265 
  18   2.0000     -10.241992      -278.6988 
  19   2.0000     -10.241100      -278.6745 
  20   2.0000     -10.239208      -278.6230 
  21   2.0000     -10.233893      -278.4784 
  22   2.0000     -10.233674      -278.4724 
  23   2.0000     -10.232611      -278.4435 
  24   2.0000     -10.226655      -278.2814 
  25   2.0000     -10.225829      -278.2590 
  26   2.0000     -10.224859      -278.2326 
  27   2.0000     -10.222208      -278.1604 
  28   2.0000     -10.220302      -278.1085 
  29   2.0000      -1.045875       -28.4597 
  30   2.0000      -0.900685       -24.5089 
  31   2.0000      -0.883674       -24.0460 
  32   2.0000      -0.860253       -23.4087 
  33   2.0000      -0.845760       -23.0143 
  34   2.0000      -0.822117       -22.3709 
  35   2.0000      -0.813658       -22.1408 
  36   2.0000      -0.794920       -21.6309 
  37   2.0000      -0.794798       -21.6276 
  38   2.0000      -0.776533       -21.1305 
  39   2.0000      -0.757503       -20.6127 
  40   2.0000      -0.741184       -20.1687 
  41   2.0000      -0.735131       -20.0039 
  42   2.0000      -0.713631       -19.4189 
  43   2.0000      -0.702167       -19.1069 
  44   2.0000      -0.699111       -19.0238 
  45   2.0000      -0.693492       -18.8709 
  46   2.0000      -0.668988       -18.2041 
  47   2.0000      -0.662161       -18.0183 
  48   2.0000      -0.630000       -17.1432 
  49   2.0000      -0.621697       -16.9172 
  50   2.0000      -0.619413       -16.8551 
  51   2.0000      -0.606534       -16.5046 
  52   2.0000      -0.596776       -16.2391 
  53   2.0000      -0.588328       -16.0092 
  54   2.0000      -0.557937       -15.1822 
  55   2.0000      -0.547061       -14.8863 
  56   2.0000      -0.538820       -14.6620 
  57   2.0000      -0.529812       -14.4169 
  58   2.0000      -0.515054       -14.0153 
  59   2.0000      -0.508100       -13.8261 
  60   2.0000      -0.495825       -13.4921 
  61   2.0000      -0.492186       -13.3931 
  62   2.0000      -0.483858       -13.1665 
  63   2.0000      -0.479807       -13.0562 
  64   2.0000      -0.475994       -12.9525 
  65   2.0000      -0.474615       -12.9149 
  66   2.0000      -0.465382       -12.6637 
  67   2.0000      -0.458952       -12.4887 
  68   2.0000      -0.456961       -12.4345 
  69   2.0000      -0.451043       -12.2735 
  70   2.0000      -0.448340       -12.2000 
  71   2.0000      -0.438569       -11.9341 
  72   2.0000      -0.433395       -11.7933 
  73   2.0000      -0.430564       -11.7163 
  74   2.0000      -0.425619       -11.5817 
  75   2.0000      -0.416191       -11.3251 
  76   2.0000      -0.414266       -11.2728 
  77   2.0000      -0.410949       -11.1825 
  78   2.0000      -0.407735       -11.0950 
  79   2.0000      -0.404676       -11.0118 
  80   2.0000      -0.402362       -10.9488 
  81   2.0000      -0.401856       -10.9351 
  82   2.0000      -0.397843       -10.8259 
  83   2.0000      -0.390168       -10.6170 
  84   2.0000      -0.387555       -10.5459 
  85   2.0000      -0.385982       -10.5031 
  86   2.0000      -0.378776       -10.3070 
  87   2.0000      -0.376687       -10.2502 
  88   2.0000      -0.368954       -10.0398 
  89   2.0000      -0.367310        -9.9950 
  90   2.0000      -0.363036        -9.8787 
  91   2.0000      -0.357962        -9.7406 
  92   2.0000      -0.352086        -9.5808 
  93   2.0000      -0.343977        -9.3601 
  94   2.0000      -0.340607        -9.2684 
  95   2.0000      -0.338963        -9.2236 
  96   2.0000      -0.336994        -9.1701 
  97   2.0000      -0.332642        -9.0516 
  98   2.0000      -0.330125        -8.9832 
  99   2.0000      -0.329569        -8.9680 
 100   2.0000      -0.326323        -8.8797 
 101   2.0000      -0.319775        -8.7015 
 102   2.0000      -0.316624        -8.6158 
 103   2.0000      -0.316241        -8.6054 
 104   2.0000      -0.311526        -8.4771 
 105   2.0000      -0.299772        -8.1572 
 106   2.0000      -0.280054        -7.6206 
 107   2.0000      -0.274795        -7.4776 
 108   2.0000      -0.256833        -6.9888 
 109   2.0000      -0.217592        -5.9210 
 110   0.0000      -0.030220        -0.8223 
 111   0.0000       0.021276         0.5790 
 112   0.0000       0.028510         0.7758 
 113   0.0000       0.080611         2.1935 
 114   0.0000       0.090229         2.4553 
 115   0.0000       0.101823         2.7707 
 116   0.0000       0.105791         2.8787 
 117   0.0000       0.107988         2.9385 
 118   0.0000       0.112415         3.0590 
 119   0.0000       0.118206         3.2165 
 120   0.0000       0.118559         3.2262 
*Only the first 10 virtual orbitals were printed.

                    ********************************
                    * MULLIKEN POPULATION ANALYSIS *
                    ********************************

-----------------------
MULLIKEN ATOMIC CHARGES
-----------------------
   0 C :    0.107899
   1 C :   -0.499977
   2 C :   -0.054934
   3 H :    0.207217
   4 H :    0.222156
   5 C :    0.135601
   6 C :   -0.475700
   7 C :   -0.451673
   8 H :    0.214218
   9 H :    0.224067
  10 H :    0.229096
  11 H :    0.204623
  12 O :   -0.487346
  13 H :    0.233903
  14 C :   -0.283464
  15 C :   -0.516832
  16 H :    0.201331
  17 H :    0.196745
  18 C :   -0.260397
  19 H :    0.217896
  20 C :    0.151190
  21 H :    0.218938
  22 C :   -0.480053
  23 C :   -0.427141
  24 H :    0.211702
  25 H :    0.206502
  26 C :   -0.397129
  27 H :    0.208077
  28 H :    0.216757
  29 C :    0.003374
  30 H :    0.221435
  31 H :    0.194071
  32 C :   -0.228987
  33 H :    0.226829
  34 C :   -0.433466
  35 H :    0.343145
  36 C :   -0.415807
  37 H :    0.207079
  38 H :    0.198091
  39 C :   -0.186564
  40 H :    0.206576
  41 H :    0.205726
  42 H :    0.209776
  43 C :   -0.249388
  44 C :   -0.626540
  45 H :    0.208227
  46 H :    0.200156
  47 H :    0.205430
  48 H :    0.218352
  49 C :   -0.620002
  50 C :   -0.179992
  51 C :   -0.175882
  52 H :    0.214817
  53 H :    0.209717
  54 C :   -0.232484
  55 C :   -0.630413
  56 C :   -0.212721
  57 H :    0.227505
  58 H :    0.221978
  59 C :   -0.609706
  60 C :   -0.620126
  61 H :    0.203284
  62 H :    0.202335
  63 H :    0.208770
  64 H :    0.204354
  65 H :    0.199922
  66 H :    0.196574
  67 H :    0.196838
  68 H :    0.208992
  69 H :    0.198274
  70 H :    0.202631
  71 H :    0.211303
  72 H :    0.193245
Sum of atomic charges:   -0.0000000

--------------------------------
MULLIKEN REDUCED ORBITAL CHARGES
--------------------------------
  0 C s       :     3.355902  s :     3.355902
      pz      :     1.008834  p :     2.536199
      px      :     0.795756
      py      :     0.731609

  1 C s       :     3.383632  s :     3.383632
      pz      :     1.020682  p :     3.116345
      px      :     0.948070
      py      :     1.147592

  2 C s       :     3.306287  s :     3.306287
      pz      :     1.060094  p :     2.748647
      px      :     0.794860
      py      :     0.893693

  3 H s       :     0.792783  s :     0.792783

  4 H s       :     0.777844  s :     0.777844

  5 C s       :     3.345352  s :     3.345352
      pz      :     0.823765  p :     2.519047
      px      :     0.940324
      py      :     0.754957

  6 C s       :     3.368303  s :     3.368303
      pz      :     1.030714  p :     3.107397
      px      :     0.948152
      py      :     1.128531

  7 C s       :     3.340466  s :     3.340466
      pz      :     1.189440  p :     3.111208
      px      :     0.987377
      py      :     0.934391

  8 H s       :     0.785782  s :     0.785782

  9 H s       :     0.775933  s :     0.775933

 10 H s       :     0.770904  s :     0.770904

 11 H s       :     0.795377  s :     0.795377

 12 O s       :     3.685508  s :     3.685508
      pz      :     1.650250  p :     4.801838
      px      :     1.279826
      py      :     1.871761

 13 H s       :     0.766097  s :     0.766097

 14 C s       :     3.392501  s :     3.392501
      pz      :     1.007888  p :     2.890963
      px      :     0.808718
      py      :     1.074357

 15 C s       :     3.386861  s :     3.386861
      pz      :     0.997863  p :     3.129971
      px      :     1.011545
      py      :     1.120563

 16 H s       :     0.798669  s :     0.798669

 17 H s       :     0.803255  s :     0.803255

 18 C s       :     3.396956  s :     3.396956
      pz      :     1.029537  p :     2.863442
      px      :     0.759150
      py      :     1.074755

 19 H s       :     0.782104  s :     0.782104

 20 C s       :     3.350398  s :     3.350398
      pz      :     0.955898  p :     2.498412
      px      :     0.753880
      py      :     0.788634

 21 H s       :     0.781062  s :     0.781062

 22 C s       :     3.372395  s :     3.372395
      pz      :     1.098554  p :     3.107658
      px      :     1.124574
      py      :     0.884531

 23 C s       :     3.327095  s :     3.327095
      pz      :     1.089264  p :     3.100046
      px      :     0.897693
      py      :     1.113088

 24 H s       :     0.788298  s :     0.788298

 25 H s       :     0.793498  s :     0.793498

 26 C s       :     3.349669  s :     3.349669
      pz      :     1.177199  p :     3.047460
      px      :     0.955215
      py      :     0.915046

 27 H s       :     0.791923  s :     0.791923

 28 H s       :     0.783243  s :     0.783243

 29 C s       :     3.317490  s :     3.317490
      pz      :     0.867870  p :     2.679135
      px      :     0.905154
      py      :     0.906111

 30 H s       :     0.778565  s :     0.778565

 31 H s       :     0.805929  s :     0.805929

 32 C s       :     3.362624  s :     3.362624
      pz      :     1.070766  p :     2.866362
      px      :     0.867873
      py      :     0.927722

 33 H s       :     0.773171  s :     0.773171

 34 C s       :     3.344517  s :     3.344517
      pz      :     1.187961  p :     3.088949
      px      :     0.932913
      py      :     0.968075

 35 H s       :     0.656855  s :     0.656855

 36 C s       :     3.336111  s :     3.336111
      pz      :     1.164915  p :     3.079696
      px      :     0.941627
      py      :     0.973153

 37 H s       :     0.792921  s :     0.792921

 38 H s       :     0.801909  s :     0.801909

 39 C s       :     3.337360  s :     3.337360
      pz      :     1.055793  p :     2.849204
      px      :     0.863574
      py      :     0.929836

 40 H s       :     0.793424  s :     0.793424

 41 H s       :     0.794274  s :     0.794274

 42 H s       :     0.790224  s :     0.790224

 43 C s       :     3.345618  s :     3.345618
      pz      :     1.067794  p :     2.903770
      px      :     0.879597
      py      :     0.956378

 44 C s       :     3.366038  s :     3.366038
      pz      :     0.960673  p :     3.260502
      px      :     1.157787
      py      :     1.142042

 45 H s       :     0.791773  s :     0.791773

 46 H s       :     0.799844  s :     0.799844

 47 H s       :     0.794570  s :     0.794570

 48 H s       :     0.781648  s :     0.781648

 49 C s       :     3.347430  s :     3.347430
      pz      :     1.144193  p :     3.272572
      px      :     1.158085
      py      :     0.970294

 50 C s       :     3.340109  s :     3.340109
      pz      :     1.056283  p :     2.839883
      px      :     0.889882
      py      :     0.893718

 51 C s       :     3.345953  s :     3.345953
      pz      :     1.060981  p :     2.829929
      px      :     0.880968
      py      :     0.887980

 52 H s       :     0.785183  s :     0.785183

 53 H s       :     0.790283  s :     0.790283

 54 C s       :     3.342038  s :     3.342038
      pz      :     0.902584  p :     2.890446
      px      :     0.898997
      py      :     1.088865

 55 C s       :     3.347061  s :     3.347061
      pz      :     1.056485  p :     3.283352
      px      :     1.060269
      py      :     1.166598

 56 C s       :     3.315614  s :     3.315614
      pz      :     0.968323  p :     2.897107
      px      :     1.036630
      py      :     0.892154

 57 H s       :     0.772495  s :     0.772495

 58 H s       :     0.778022  s :     0.778022

 59 C s       :     3.340491  s :     3.340491
      pz      :     1.109715  p :     3.269215
      px      :     1.088478
      py      :     1.071022

 60 C s       :     3.346598  s :     3.346598
      pz      :     1.156738  p :     3.273529
      px      :     1.110109
      py      :     1.006681

 61 H s       :     0.796716  s :     0.796716

 62 H s       :     0.797665  s :     0.797665

 63 H s       :     0.791230  s :     0.791230

 64 H s       :     0.795646  s :     0.795646

 65 H s       :     0.800078  s :     0.800078

 66 H s       :     0.803426  s :     0.803426

 67 H s       :     0.803162  s :     0.803162

 68 H s       :     0.791008  s :     0.791008

 69 H s       :     0.801726  s :     0.801726

 70 H s       :     0.797369  s :     0.797369

 71 H s       :     0.788697  s :     0.788697

 72 H s       :     0.806755  s :     0.806755


------------------------
MULLIKEN OVERLAP CHARGES
------------------------
B(  0-C ,  1-C ) :   0.4961 B(  0-C ,  2-C ) :  -0.1307 B(  0-C ,  3-H ) :  -0.0876 
B(  0-C ,  4-H ) :  -0.0673 B(  0-C ,  5-C ) :   0.4213 B(  0-C ,  6-C ) :  -0.1563 
B(  0-C , 14-C ) :   0.9459 B(  0-C , 15-C ) :  -0.2026 B(  0-C , 18-C ) :  -0.1835 
B(  0-C , 19-H ) :  -0.0751 B(  1-C ,  2-C ) :   0.5269 B(  1-C ,  3-H ) :   0.7958 
B(  1-C ,  4-H ) :   0.8136 B(  1-C ,  5-C ) :  -0.1484 B(  1-C ,  7-C ) :  -0.1691 
B(  1-C , 12-O ) :  -0.0832 B(  1-C , 13-H ) :  -0.0844 B(  1-C , 14-C ) :  -0.1080 
B(  2-C ,  3-H ) :  -0.0820 B(  2-C ,  4-H ) :  -0.0581 B(  2-C ,  6-C ) :  -0.1288 
B(  2-C ,  7-C ) :   0.5343 B(  2-C , 10-H ) :  -0.0697 B(  2-C , 11-H ) :  -0.0825 
B(  2-C , 12-O ) :   0.6905 B(  2-C , 13-H ) :   0.7985 B(  2-C , 35-H ) :  -0.1132 
B(  5-C ,  6-C ) :   0.5390 B(  5-C ,  7-C ) :  -0.1710 B(  5-C ,  8-H ) :  -0.0881 
B(  5-C ,  9-H ) :  -0.0736 B(  5-C , 14-C ) :  -0.1965 B(  5-C , 15-C ) :   1.0583 
B(  5-C , 16-H ) :  -0.0995 B(  5-C , 17-H ) :  -0.0943 B(  6-C ,  7-C ) :   0.5411 
B(  6-C ,  8-H ) :   0.8037 B(  6-C ,  9-H ) :   0.8189 B(  6-C , 11-H ) :  -0.0738 
B(  6-C , 15-C ) :  -0.1289 B(  7-C ,  8-H ) :  -0.0769 B(  7-C , 10-H ) :   0.8058 
B(  7-C , 11-H ) :   0.7946 B(  7-C , 12-O ) :  -0.0901 B(  7-C , 13-H ) :  -0.0841 
B( 12-O , 35-H ) :   0.6599 B( 14-C , 18-C ) :   0.6128 B( 14-C , 19-H ) :   0.8251 
B( 14-C , 20-C ) :  -0.1952 B( 14-C , 21-H ) :  -0.0732 B( 15-C , 16-H ) :   0.8143 
B( 15-C , 17-H ) :   0.8069 B( 18-C , 19-H ) :  -0.0610 B( 18-C , 20-C ) :   0.9216 
B( 18-C , 21-H ) :   0.8318 B( 18-C , 22-C ) :  -0.1497 B( 18-C , 32-C ) :  -0.1482 
B( 20-C , 21-H ) :  -0.0845 B( 20-C , 22-C ) :   0.5327 B( 20-C , 23-C ) :  -0.1710 
B( 20-C , 24-H ) :  -0.0667 B( 20-C , 25-H ) :  -0.0929 B( 20-C , 29-C ) :  -0.1246 
B( 20-C , 32-C ) :   0.5177 B( 20-C , 33-H ) :  -0.0919 B( 20-C , 34-C ) :  -0.0986 
[...]
        0.0000         1.6786        0.0000
        0.0000         0.0000        1.6786

 Diagonalized JT*J matrix:
 
 J[55,60](FC)             1.679            1.679            1.679  iso=      1.679
                ---------------  ---------------  ---------------  ---------------
 J[55,60](Total)          1.679            1.679            1.679  iso=      1.679



-----------------------------------------------------------
 NUCLEUS A = C   56 NUCLEUS B = C   59 
 ( 13C  gnA =  1.405  13C  gnB =  1.405) r(AB) =     1.5319
-----------------------------------------------------------

Fermi-contact contribution to J (Hz):
       26.8248         0.0000        0.0000
        0.0000        26.8248        0.0000
        0.0000         0.0000       26.8248

Total spin-spin coupling tensor J (Hz):
       26.8248         0.0000        0.0000
        0.0000        26.8248        0.0000
        0.0000         0.0000       26.8248

 Diagonalized JT*J matrix:
 
 J[56,59](FC)            26.825           26.825           26.825  iso=     26.825
                ---------------  ---------------  ---------------  ---------------
 J[56,59](Total)         26.825           26.825           26.825  iso=     26.825



-----------------------------------------------------------
 NUCLEUS A = C   56 NUCLEUS B = C   60 
 ( 13C  gnA =  1.405  13C  gnB =  1.405) r(AB) =     1.5325
-----------------------------------------------------------

Fermi-contact contribution to J (Hz):
       26.1357         0.0000        0.0000
        0.0000        26.1357        0.0000
        0.0000         0.0000       26.1357

Total spin-spin coupling tensor J (Hz):
       26.1357         0.0000        0.0000
        0.0000        26.1357        0.0000
        0.0000         0.0000       26.1357

 Diagonalized JT*J matrix:
 
 J[56,60](FC)            26.136           26.136           26.136  iso=     26.136
                ---------------  ---------------  ---------------  ---------------
 J[56,60](Total)         26.136           26.136           26.136  iso=     26.136



-----------------------------------------------------------
 NUCLEUS A = C   59 NUCLEUS B = C   60 
 ( 13C  gnA =  1.405  13C  gnB =  1.405) r(AB) =     2.5126
-----------------------------------------------------------

Fermi-contact contribution to J (Hz):
       -1.0367         0.0000        0.0000
        0.0000        -1.0367        0.0000
        0.0000         0.0000       -1.0367

Total spin-spin coupling tensor J (Hz):
       -1.0367         0.0000        0.0000
        0.0000        -1.0367        0.0000
        0.0000         0.0000       -1.0367

 Diagonalized JT*J matrix:
 
 J[59,60](FC)            -1.037           -1.037           -1.037  iso=     -1.037
                ---------------  ---------------  ---------------  ---------------
 J[59,60](Total)         -1.037           -1.037           -1.037  iso=     -1.037



-----------------------------------------------------------------------------
                SUMMARY OF ISOTROPIC COUPLING CONSTANTS J (Hz)                
-----------------------------------------------------------------------------
                  0 C        1 C        2 C        5 C        6 C        7 C  
      0 C        0.000     32.408     -2.387     42.213     -0.174      0.887
      1 C       32.408      0.000     25.300     -1.180      0.381     -0.381
      2 C       -2.387     25.300      0.000      2.020     -1.360     25.808
      5 C       42.213     -1.180      2.020      0.000     30.999     -2.884
      6 C       -0.174      0.381     -1.360     30.999      0.000     23.090
      7 C        0.887     -0.381     25.808     -2.884     23.090      0.000
     14 C       70.210     -0.372      3.569     -3.182      2.737     -0.706
     15 C       -3.283      2.729     -0.838     64.287     -0.896      2.836
     18 C       -2.644      4.229     -1.074      3.275     -1.014      0.206
     20 C        6.944     -1.153      1.259     -1.506      0.782     -0.146
     22 C       -0.940      0.333     -0.381      0.447     -0.236      0.047
     23 C        0.795     -0.270      0.293     -0.333      0.189      0.000
     26 C       -0.078      0.030      0.000      0.042      0.000      0.000
     29 C        1.129     -0.362      0.000     -0.489      0.258      0.000
     32 C       -1.149      0.556     -0.414      0.514     -0.276      0.058
     34 C        0.021     -0.015      0.016     -0.017      0.008     -0.002
     36 C       -0.014      0.000      0.000      0.015     -0.008      0.000
     39 C       -0.078      0.000      0.000      0.033      0.000      0.000
     43 C        0.000      0.000      0.000      0.000      0.000      0.000
     44 C        0.006     -0.002      0.003     -0.005      0.004     -0.000
     49 C        0.000      0.000      0.000      0.000      0.000      0.000
     50 C        0.000      0.000      0.000      0.000      0.000      0.000
     51 C        0.000      0.000      0.000      0.000      0.000      0.000
     54 C        0.000      0.000      0.000      0.000      0.000      0.000
     55 C        0.000      0.000      0.000      0.000      0.000      0.000
     56 C        0.000      0.000      0.000      0.000      0.000      0.000
     59 C        0.000      0.000      0.000      0.000      0.000      0.000
     60 C        0.000      0.000      0.000      0.000      0.000      0.000
                 14 C       15 C       18 C       20 C       22 C       23 C  
      0 C       70.210     -3.283     -2.644      6.944     -0.940      0.795
      1 C       -0.372      2.729      4.229     -1.153      0.333     -0.270
      2 C        3.569     -0.838     -1.074      1.259     -0.381      0.293
      5 C       -3.182     64.287      3.275     -1.506      0.447     -0.333
      6 C        2.737     -0.896     -1.014      0.782     -0.236      0.189
      7 C       -0.706      2.836      0.206     -0.146      0.047      0.000
     14 C        0.000      3.064     54.463     -2.776      3.885     -0.892
     15 C        3.064      0.000     -1.126      1.071     -0.276      0.238
     18 C       54.463     -1.126      0.000     70.010     -2.159      2.468
     20 C       -2.776      1.071     70.010      0.000     32.224     -2.864
     22 C        3.885     -0.276     -2.159     32.224      0.000     24.439
     23 C       -0.892      0.238      2.468     -2.864     24.439      0.000
     26 C        0.116     -0.021     -0.365      1.018     -1.915     25.393
     29 C       -1.157      0.343      2.403     -2.361      1.103     -2.183
     32 C        4.408     -0.337     -1.322     36.945     -0.202      1.519
     34 C        0.063      0.005      2.440     -1.353      1.622     -0.252
     36 C        0.012     -0.014     -0.152      3.418      0.071      0.179
     39 C        0.265     -0.023     -0.045      2.906     -0.334      2.531
     43 C        0.013      0.000      0.301      0.194      0.000     -0.111
     44 C        0.005      0.002     -0.078      0.695     -0.134      0.611
     49 C        0.000      0.000     -0.010     -0.051      0.137      0.044
     50 C        0.000      0.000      0.025      0.131     -0.006      0.116
     51 C        0.000      0.000      0.017      0.048      0.001     -0.003
     54 C        0.000      0.000      0.000      0.000      0.000      0.000
     55 C        0.000      0.000      0.000      0.000      0.000      0.000
     56 C        0.000      0.000      0.000      0.000      0.000      0.000
     59 C        0.000      0.000      0.000      0.000      0.000      0.000
     60 C        0.000      0.000      0.000      0.000      0.000      0.000
                 26 C       29 C       32 C       34 C       36 C       39 C  
      0 C       -0.078      1.129     -1.149      0.021     -0.014     -0.078
      1 C        0.030     -0.362      0.556     -0.015      0.000      0.000
      2 C        0.000      0.000     -0.414      0.016      0.000      0.000
      5 C        0.042     -0.489      0.514     -0.017      0.015      0.033
      6 C        0.000      0.258     -0.276      0.008     -0.008      0.000
      7 C        0.000      0.000      0.058     -0.002      0.000      0.000
     14 C        0.116     -1.157      4.408      0.063      0.012      0.265
     15 C       -0.021      0.343     -0.337      0.005     -0.014     -0.023
     18 C       -0.365      2.403     -1.322      2.440     -0.152     -0.045
     20 C        1.018     -2.361     36.945     -1.353      3.418      2.906
     22 C       -1.915      1.103     -0.202      1.622      0.071     -0.334
     23 C       25.393     -2.183      1.519     -0.252      0.179      2.531
     26 C        0.000     27.807     -0.928      2.295      3.033     -0.598
     29 C       27.807      0.000     23.341      0.783      0.772     28.378
     32 C       -0.928     23.341      0.000     27.898      1.181      3.368
     34 C        2.295      0.783     27.898      0.000     25.939      0.195
     36 C        3.033      0.772      1.181     25.939      0.000     26.975
     39 C       -0.598     28.378      3.368      0.195     26.975      0.000
     43 C       -0.024     -0.615      2.718      1.835      0.380     28.873
     44 C       -0.573     27.246     -0.970      0.801      0.302     -1.173
     49 C        0.357      0.069     -0.032      0.046      3.241     -1.228
     50 C       -0.121      3.589     -0.085     -0.048      0.636     -1.786
     51 C       -0.023      0.237      0.122      0.068     -0.014      3.244
     54 C       -0.000      0.068     -0.014     -0.003     -0.030     -0.532
     55 C        0.000      0.008      0.000      0.004      0.027      0.582
     56 C       -0.001      0.008      0.002     -0.001      0.002      0.023
     59 C        0.000      0.000      0.000     -0.000      0.000      0.028
     60 C        0.000     -0.003     -0.001      0.000     -0.000     -0.032
                 43 C       44 C       49 C       50 C       51 C       54 C  
      0 C        0.000      0.006      0.000      0.000      0.000      0.000
      1 C        0.000     -0.002      0.000      0.000      0.000      0.000
      2 C        0.000      0.003      0.000      0.000      0.000      0.000
      5 C        0.000     -0.005      0.000      0.000      0.000      0.000
      6 C        0.000      0.004      0.000      0.000      0.000      0.000
      7 C        0.000     -0.000      0.000      0.000      0.000      0.000
     14 C        0.013      0.005      0.000      0.000      0.000      0.000
     15 C        0.000      0.002      0.000      0.000      0.000      0.000
     18 C        0.301     -0.078     -0.010      0.025      0.017      0.000
     20 C        0.194      0.695     -0.051      0.131      0.048      0.000
     22 C        0.000     -0.134      0.137     -0.006      0.001      0.000
     23 C       -0.111      0.611      0.044      0.116     -0.003      0.000
     26 C       -0.024     -0.573      0.357     -0.121     -0.023     -0.000
     29 C       -0.615     27.246      0.069      3.589      0.237      0.068
     32 C        2.718     -0.970     -0.032     -0.085      0.122     -0.014
     34 C        1.835      0.801      0.046     -0.048      0.068     -0.003
     36 C        0.380      0.302      3.241      0.636     -0.014     -0.030
     39 C       28.873     -1.173     -1.228     -1.786      3.244     -0.532
     43 C        0.000      1.421     25.878     36.211     -0.321      3.667
     44 C        1.421      0.000     -0.100     -0.171     -0.009     -0.001
     49 C       25.878     -0.100      0.000     -2.968      3.439     -0.734
     50 C       36.211     -0.171     -2.968      0.000     69.173     -1.797
     51 C       -0.321     -0.009      3.439     69.173      0.000     35.689
     54 C        3.667     -0.001     -0.734     -1.797     35.689      0.000
     55 C       -0.714      0.002      1.152      3.335     -2.195     25.910
     56 C       -0.121      0.000      0.056      2.451     -1.146     27.150
     59 C        0.012      0.000     -0.026     -0.079      3.297     -0.309
     60 C        0.045      0.001     -0.059     -0.068      0.349     -1.420
                 55 C       56 C       59 C       60 C  
      0 C        0.000      0.000      0.000      0.000
      1 C        0.000      0.000      0.000      0.000
      2 C        0.000      0.000      0.000      0.000
      5 C        0.000      0.000      0.000      0.000
      6 C        0.000      0.000      0.000      0.000
      7 C        0.000      0.000      0.000      0.000
     14 C        0.000      0.000      0.000      0.000
     15 C        0.000      0.000      0.000      0.000
     18 C        0.000      0.000      0.000      0.000
     20 C        0.000      0.000      0.000      0.000
     22 C        0.000      0.000      0.000      0.000
     23 C        0.000      0.000      0.000      0.000
     26 C        0.000     -0.001      0.000      0.000
     29 C        0.008      0.008      0.000     -0.003
     32 C        0.000      0.002      0.000     -0.001
     34 C        0.004     -0.001     -0.000      0.000
     36 C        0.027      0.002      0.000     -0.000
     39 C        0.582      0.023      0.028     -0.032
     43 C       -0.714     -0.121      0.012      0.045
     44 C        0.002      0.000      0.000      0.001
     49 C        1.152      0.056     -0.026     -0.059
     50 C        3.335      2.451     -0.079     -0.068
     51 C       -2.195     -1.146      3.297      0.349
     54 C       25.910     27.150     -0.309     -1.420
     55 C        0.000     -1.595      0.522      1.679
     56 C       -1.595      0.000     26.825     26.136
     59 C        0.522     26.825      0.000     -1.037
     60 C        1.679     26.136     -1.037      0.000

NMR spin-spin coupling calculation done in   0.3 sec 

Maximum memory used throughout the entire PROP-calculation: 33.9 MB

--------------------------------
SUGGESTED CITATIONS FOR THIS RUN
--------------------------------

Below you find a list of papers that are relevant to this ORCA run
We neither can nor want to force you to cite these papers, but we appreciate if you do
You receive ORCA, which is the product of decades of hard work by many enthusiastic individuals, for free
The only thing we kindly ask in return is that you cite our papers,
We deeply appreciate it, if you show your appreciation for ORCA by not just citing the generic ORCA reference.

Please note that relegating all ORCA citations to the supporting information does *not* help us.
SI sections are not indexed - citations you put there will not count into any citation statistics
But we need these citations in order to attract the funding resources that allow us to do what we are doing

Therefore, if you are a happy ORCA user, please consider citing a few of the papers listed below in the main body of your paper

In addition to the list printed below, the program has created the file inpJ.bibtex that contains the list in bibtex format
You can import this file easily into all common literature databanks and citation aid programs


List of essential papers. We consider these as the minimum necessary citations

  1. Neese,F.
     Software update: the ORCA program system, version 5.0
     WIRES Comput. Molec. Sci., 2022 12(1)e1606
     doi.org/10.1002/wcms.1606

List of papers to cite with high priority. The work reported in these papers was absolutely
necessary for this run to complete.
Our perspective: the developers of density functionals and basis sets usually get cited in chemistry papers
Good! But without the algorithms to do something with them, the functionals or basis sets would not do anything.
Hence, in our opinion, the algorithm design and method developments papers are equally worthy of getting cited

  1. Neese,F.
     An improvement of the resolution of the identity approximation for the formation of the Coulomb matrix
     J. Comp. Chem., 2003 24(14)1740-1747
     doi.org/10.1002/jcc.10318
  2. Neese,F.; Wennmohs,F.; Hansen,A.; Becker,U.
     Efficient, approximate and parallel Hartree-Fock and hybrid DFT calculations. A 'chain-of-spheres' algorithm for the Hartree-Fock exchange
     Chem. Phys., 2009 356(1-3)98-109
     doi.org/10.1016/j.chemphys.2008.10.036
  3. Stoychev,G.L.; Auer,A.A.; Izsak,R.; Neese,F.
     Self-Consistent Field Calculation of Nuclear Magnetic Resonance Chemical Shielding Constants Using Gauge-Including Atomic Orbitals and Approximate Two-Electron Integrals
     J. Chem. Theory Comput., 2018 14(2)619-637
     doi.org/10.1021/acs.jctc.7b01006
  4. Garcia-Rates,M.; Neese,F.
     Effect of the Solute Cavity on the Solvation Energy and its Derivatives within the Framework of the Gaussian Charge Scheme
     J. Comput. Chem., 2020 41 922-939
     doi.org/10.1002/jcc.26139
  5. Helmich-Paris,B.; de Souza,B.; Neese,F.; Izsák,R.
     An improved chain of spheres for exchange algorithm
     J. Chem. Phys., 2021 155 104109
     doi.org/doi: 10.1063/5.0058766.
  6. Neese,F.
     The SHARK Integral Generation and Digestion System
     J. Comp. Chem., 2022  1-16
     doi.org/10.1002/jcc.26942
  7. Grimme,S.; Bannwarth,C.; Dohm,S.; Hansen,A.; Pisarek,J.; Pracht,P.; Seibert,J.; Neese,F.
     Fully Automated Quantum-Chemistry-Based Computation of Spin-Spin-Coupled Nuclear Magnetic Resonance Spectra
     Angew. Chem., Int. Ed., 2017 56 14763-14769
     doi.org/10.1002/anie.201708266
  8. Caldeweyher,E.; Bannwarth,C.; Grimme,S.
     Extension of the D3 dispersion coefficient model
     J. Chem. Phys., 2017 147 034112-XXXX
     doi.org/10.1063/1.4993215
  9. Caldeweyher,E.; Ehlert,S.; Hansen,A.; Neugebauer,H.; Spicher,S.; Bannwarth,C.; Grimme,S.
     A generally applicable atomic-charge dependent London dispersion correction
     J. Chem. Phys., 2019 150 154122-XXXX
     doi.org/10.1063/1.5090222
 10. Caldeweyher,E.; Mewes,J.; Ehlert,S.; Grimme,S.
     Extension and evaluation of the D4 London-dispersion model for periodic systems
     Phys. Chem. Chem. Phys., 2020 22(16)8499-8512
     doi.org/10.1039/D0CP00502A

List of suggested additional citations. These are papers that are important in the 'surrounding' of 
of this run, or papers that preceded the highly important papers. If you like your results we are grateful for a citation.

  1. Izsak,R.; Neese,F.
     An overlap fitted chain of spheres exchange method
     J. Chem. Phys., 2011 135 144105
     doi.org/10.1063/1.3646921
  2. Izsak,R.; Hansen,A.; Neese,F.
     The resolution of identity and chain of spheres approximations for the LPNO-CCSD singles Fock term
     Molec. Phys., 2012 110 2413-2417
     doi.org/10.1080/00268976.2012.687466
  3. Neese,F.
     The ORCA program system
     WIRES Comput. Molec. Sci., 2012 2(1)73-78
     doi.org/10.1002/wcms.81
  4. Izsak,R.; Neese,F.; Klopper,W.
     Robust fitting techniques in the chain of spheres approximation to the Fock exchange: The role of the complementary space
     J. Chem. Phys., 2013 139 
     doi.org/10.1063/1.4819264
  5. Neese,F.
     Software update: the ORCA program system, version 4.0
     WIRES Comput. Molec. Sci., 2018 8(1)1-6
     doi.org/10.1002/wcms.1327
  6. Neese,F.; Wennmohs,F.; Becker,U.; Riplinger,C.
     The ORCA quantum chemistry program package
     J. Chem. Phys., 2020 152 Art. No. L224108
     doi.org/10.1063/5.0004608

Timings for individual modules:

Sum of individual times          ...      130.037 sec (=   2.167 min)
Startup calculation              ...        4.083 sec (=   0.068 min)   3.1 %
SCF iterations                   ...       18.821 sec (=   0.314 min)  14.5 %
Property integrals               ...        0.636 sec (=   0.011 min)   0.5 %
SCF Response                     ...      105.895 sec (=   1.765 min)  81.4 %
Property calculations            ...        0.603 sec (=   0.010 min)   0.5 %
                             ****ORCA TERMINATED NORMALLY****
TOTAL RUN TIME: 0 days 0 hours 2 minutes 10 seconds 342 msec
