
                                 *****************
                                 * O   R   C   A *
                                 *****************

                                            #,                                       
                                            ###                                      
                                            ####                                     
                                            #####                                    
                                            ######                                   
                                           ########,                                 
                                     ,,################,,,,,                         
                               ,,#################################,,                 
                          ,,##########################################,,             
                       ,#########################################, ''#####,          
                    ,#############################################,,   '####,        
                  ,##################################################,,,,####,       
                ,###########''''           ''''###############################       
              ,#####''   ,,,,##########,,,,          '''####'''          '####       
            ,##' ,,,,###########################,,,                        '##       
           ' ,,###''''                  '''############,,,                           
         ,,##''                                '''############,,,,        ,,,,,,###''
      ,#''                                            '''#######################'''  
     '                                                          ''''####''''         
             ,#######,   #######,   ,#######,      ##                                
            ,#'     '#,  ##    ##  ,#'     '#,    #''#        ,####,   ,####,        
            ##       ##  ##   ,#'  ##            #'  '#       #'       #'  '#        
            ##       ##  #######   ##           ,######,      #####,   #    #        
            '#,     ,#'  ##    ##  '#,     ,#' ,#      #,     #,   #   #,  ,#        
             '#######'   ##     ##  '#######'  #'      '#     '####' # '####'        



                #########################################################
                #                        -***-                          #
                #          Department of theory and spectroscopy        #
                #                                                       #
                #                      Frank Neese                      #
                #                                                       #
                #     Directorship, Architecture, Infrastructure        #
                #                    SHARK, DRIVERS                     #
                #        Core code/Algorithms in most modules           #
                #                                                       #
                #        Max Planck Institute fuer Kohlenforschung      #
                #                Kaiser Wilhelm Platz 1                 #
                #                 D-45470 Muelheim/Ruhr                 #
                #                      Germany                          #
                #                                                       #
                #                  All rights reserved                  #
                #                        -***-                          #
                #########################################################


                         Program Version 6.0.0  -   RELEASE  -


 With contributions from (in alphabetic order):
   Daniel Aravena         : Magnetic Suceptibility
   Michael Atanasov       : Ab Initio Ligand Field Theory (pilot matlab implementation)
   Alexander A. Auer      : GIAO ZORA, VPT2 properties, NMR spectrum
   Ute Becker             : All parallelization in ORCA, NUMFREQ, NUMCALC
   Giovanni Bistoni       : ED, misc. LED, open-shell LED, HFLD
   Martin Brehm           : Molecular dynamics
   Dmytro Bykov           : pre 5.0 version of the SCF Hessian
   Marcos Casanova-Páez   : Triplet and SCS-CIS(D). UHF-(DLPNO)-IP/EA/STEOM-CCSD. UHF-CVS-IP/STEOM-CCSD
   Vijay G. Chilkuri      : MRCI spin determinant printing, contributions to CSF-ICE
   Pauline Colinet        : FMM embedding
   Dipayan Datta          : RHF DLPNO-CCSD density
   Achintya Kumar Dutta   : EOM-CC, STEOM-CC
   Nicolas Foglia         : Exact transition moments, OPA infrastructure, MCD improvements
   Dmitry Ganyushin       : Spin-Orbit,Spin-Spin,Magnetic field MRCI
   Miquel Garcia          : C-PCM and meta-GGA Hessian, CCSD/C-PCM, Gaussian charge scheme
   Tiago L. C. Gouveia    : GS-ROHF, GS-ROCIS
   Yang Guo               : DLPNO-NEVPT2, F12-NEVPT2, CIM, IAO-localization
   Andreas Hansen         : Spin unrestricted coupled pair/coupled cluster methods
   Ingolf Harden          : AUTO-CI MPn and infrastructure 
   Benjamin Helmich-Paris : MC-RPA, TRAH-(SCF,CASSCF), AVAS, COSX integrals, SCF dyn. polar.
   Lee Huntington         : MR-EOM, pCC
   Robert Izsak           : Overlap fitted RIJCOSX, COSX-SCS-MP3, EOM
   Riya Kayal             : Wick's Theorem for AUTO-CI, AUTO-CI UHF-CCSDT
   Emily Kempfer          : AUTO-CI, RHF CISDT and CCSDT
   Christian Kollmar      : KDIIS, OOCD, Brueckner-CCSD(T), CCSD density, CASPT2, CASPT2-K, improved NEVPT2
   Axel Koslowski         : Symmetry handling
   Simone Kossmann        : Meta GGA functionals, TD-DFT gradient, OOMP2, (MP2 Hessian; deprecated post 5.0)
   Lucas Lang             : DCDCAS
   Marvin Lechner         : AUTO-CI (C++ implementation), FIC-MRCC
   Spencer Leger          : CASSCF response
   Dagmar Lenk            : GEPOL surface, SMD, ORCA-2-JSON
   Dimitrios Liakos       : Extrapolation schemes; Compound Job, initial MDCI parallelization
   Dimitrios Manganas     : Further ROCIS development; embedding schemes. LFT, Crystal Embedding
   Dimitrios Pantazis     : SARC Basis sets
   Anastasios Papadopoulos: AUTO-CI, single reference methods and gradients
   Taras Petrenko         : pre 6.0 DFT Hessian and TD-DFT gradient, (ASA, deprecated), ECA, 1-Electron XAS/XES, NRVS
   Peter Pinski           : DLPNO-MP2, DLPNO-MP2 Gradient
   Christoph Reimann      : Effective Core Potentials
   Marius Retegan         : Local ZFS, SOC
   Christoph Riplinger    : Optimizer, TS searches, QM/MM, DLPNO-CCSD(T), (RO)-DLPNO pert. Triples
   Michael Roemelt        : Original ROCIS implementation
   Masaaki Saitow         : Open-shell DLPNO-CCSD energy and density
   Barbara Sandhoefer     : DKH picture change effects
   Kantharuban Sivalingam : CASSCF convergence/infrastructure, NEVPT2 and variants, FIC-MRCI
   Bernardo de Souza      : ESD, SOC TD-DFT
   Georgi Stoychev        : AutoAux, RI-MP2 NMR, DLPNO-MP2 response, X2C
   Van Anh Tran           : RI-MP2 g-tensors
   Willem Van den Heuvel  : Paramagnetic NMR
   Zikuan Wang            : NOTCH, Electric field optimization 
   Frank Wennmohs         : Technical directorship and infrastructure
   Hang Xu                : AUTO-CI-Response properties 


 We gratefully acknowledge several colleagues who have allowed us to
 interface, adapt or use parts of their codes:
   Stefan Grimme, W. Hujo, H. Kruse, P. Pracht,  : VdW corrections, initial TS optimization,
                  C. Bannwarth, S. Ehlert,         DFT functionals, gCP, sTDA/sTD-DF
                  L. Wittmann, M. Mueller
   Ed Valeev, F. Pavosevic, A. Kumar             : LibInt (2-el integral package), F12 methods
   Garnet Chan, S. Sharma, J. Yang, R. Olivares  : DMRG
   Ulf Ekstrom                                   : XCFun DFT Library
   Mihaly Kallay                                 : mrcc  (arbitrary order and MRCC methods)
   Frank Weinhold                                : gennbo (NPA and NBO analysis)
   Simon Mueller                                 : openCOSMO-RS
   Christopher J. Cramer and Donald G. Truhlar   : smd solvation model
   Lars Goerigk                                  : TD-DFT with DH, B97 family of functionals
   V. Asgeirsson, H. Jonsson                     : NEB implementation
   FAccTs GmbH                                   : IRC, NEB, NEB-TS, DLPNO-Multilevel, CI-OPT
                                                   MM, QMMM, 2- and 3-layer-ONIOM, Crystal-QMMM,
                                                   LR-CPCM, SF, NACMEs, symmetry and pop. for TD-DFT,
                                                   nearIR, NL-DFT gradient (VV10), updates on ESD,
                                                   ML-optimized integration grids, MBIS, APM,
                                                   GOAT, DOCKER, SOLVATOR, interface openCOSMO-RS
   S Lehtola, MJT Oliveira, MAL Marques          : LibXC Library
   Liviu Ungur et al                             : ANISO software


 Your calculation uses the libint2 library for the computation of 2-el integrals
 For citations please refer to: http://libint.valeyev.net

 Your ORCA version has been built with support for libXC version: 6.2.2
 For citations please refer to: https://libxc.gitlab.io

 This ORCA versions uses:
   CBLAS   interface :  Fast vector & matrix operations
   LAPACKE interface :  Fast linear algebra routines
   SCALAPACK package :  Parallel linear algebra routines
   Shared memory     :  Shared parallel matrices
   BLAS/LAPACK       :  OpenBLAS 0.3.27  USE64BITINT DYNAMIC_ARCH NO_AFFINITY Zen SINGLE_THREADED
        Core in use  :  Zen
   Copyright (c) 2011-2014, The OpenBLAS Project


NOTE: MaxCore=8000 MB was set to SCF,MP2,MDCI,CIPSI,MRCI and CIS
      => If you want to overwrite this, your respective input block should be placed after the MaxCore statement
Your calculation utilizes the atom-pairwise dispersion correction
based on EEQ partial charges (D4)


================================================================================

----- Orbital basis set information -----
Your calculation utilizes the basis: def2-SVP
   F. Weigend and R. Ahlrichs, Phys. Chem. Chem. Phys. 7, 3297 (2005).

----- AuxJ basis set information -----
Your calculation utilizes the auxiliary basis: def2/J
   F. Weigend, Phys. Chem. Chem. Phys. 8, 1057 (2006).

================================================================================
                                        WARNINGS
                       Please study these warnings very carefully!
================================================================================

WARNING: Old DensityContainer found on disk!
         Will remove this file - 
         If you want to keep old densities, please start your calculation with a different basename. 


================================================================================
                                       INPUT FILE
================================================================================
NAME = inpS
|  1> ! wb97x-d4
|  2> ! def2-svp
|  3> ! def2/J RIJCOSX
|  4> ! DEFGRID2
|  5> ! scfconv7
|  6> ! smallprint printgap noloewdin
|  7> ! NOSOSCF
|  8> %MaxCore 8000
|  9> %output
| 10>        print[P_BondOrder_M] 1
| 11>        print[P_Mayer] 1
| 12>        print[P_basis] 2
| 13> end
| 14> %pal
| 15>     nprocs 4
| 16> end
| 17> ! CPCM(chloroform)
| 18> *xyz 0 1
| 19> C   -5.0492570300   0.3352656400   0.3096650700
| 20> C   -6.4583702600  -0.0817239500  -0.0400744900
| 21> C   -6.9895123900   0.6794581300  -1.2607971900
| 22> H   -7.1288010000   0.1487346900   0.8053205000
| 23> H   -6.5089150600  -1.1609062500  -0.2218786800
| 24> C   -4.8597200800   1.7972169100   0.4202479400
| 25> C   -5.4372710700   2.5917923000  -0.7293653300
| 26> C   -6.8851140100   2.1832711000  -1.0330698400
| 27> H   -4.8272405600   2.3996160500  -1.6251069800
| 28> H   -5.3755138400   3.6642390100  -0.5165196800
| 29> H   -7.2525795900   2.7172790000  -1.9172966200
| 30> H   -7.5317214300   2.4566450900  -0.1855706400
| 31> O   -8.3292011900   0.2800137100  -1.5787976200
| 32> H   -6.3953836200   0.4016220000  -2.1426465300
| 33> C   -4.0677191100  -0.5863801700   0.4536039200
| 34> C   -4.2685685400   2.3858282400   1.4663063300
| 35> H   -3.8818094800   1.8045736000   2.2986779900
| 36> H   -4.1691279100   3.4675447700   1.5163752500
| 37> C   -2.6679135800  -0.3210547600   0.6917179900
| 38> H   -4.3661905300  -1.6272849900   0.3367746800
| 39> C   -1.7036012000  -1.2414515400   0.9074578000
| 40> H   -2.3736536400   0.7259777200   0.6826356500
| 41> C   -1.9141081000  -2.7316512500   0.9999941700
| 42> C   -0.9762004300  -3.5019592800   0.0515950400
| 43> H   -2.9522632600  -3.0175016100   0.8099924400
| 44> H   -1.6849652100  -3.0393991300   2.0328922400
| 45> C    0.4925329500  -3.0836270400   0.2043107300
| 46> H   -1.3020176800  -3.3400354600  -0.9836639800
| 47> H   -1.0736787900  -4.5774412500   0.2442077700
| 48> C    0.6723787400  -1.5666412200   0.0539728400
| 49> H    1.0961301100  -3.6312190300  -0.5269462000
| 50> H    0.8510496300  -3.3789160100   1.2020332500
| 51> C   -0.2627427900  -0.8786043700   1.0986865200
| 52> H    0.0402663500  -1.3149151700   2.0685944100
| 53> C    0.1899395700   0.5785362700   1.1026168000
| 54> H   -8.8890699200   0.5128464300  -0.8260540100
| 55> C    1.7221083900   0.4824738100   0.8982763500
| 56> H   -0.0855098100   1.0932834400   2.0291534800
| 57> H   -0.2728161100   1.1305880000   0.2769000200
| 58> C    2.0416523200  -0.9929327700   0.5121719700
| 59> H    2.2739218300   0.7734731600   1.7977052600
| 60> H    2.0541020700   1.1581302800   0.1011809800
| 61> H    2.3169508900  -1.5428821800   1.4271983300
| 62> C    3.2466057100  -1.0774371800  -0.4464796800
| 63> C    0.3362228600  -1.1089744800  -1.3715935800
| 64> H   -0.7271472000  -1.2406308800  -1.5943045600
| 65> H    0.9090805000  -1.6839958300  -2.1075550700
| 66> H    0.5724108900  -0.0506857000  -1.5210070400
| 67> H    3.0072904300  -0.5058802000  -1.3555119800
| 68> C    3.6073509400  -2.5153183600  -0.8490890200
| 69> C    4.4438840400  -0.4360899000   0.2054642600
| 70> C    5.1192792600   0.5987041400  -0.2929915600
| 71> H    4.7530806200  -0.8969413300   1.1459491800
| 72> H    4.7719271600   1.0201583900  -1.2410887800
| 73> C    6.3251217300   1.2969695100   0.2874507400
| 74> C    7.3898643200   1.4632728200  -0.8105109300
| 75> C    6.8784443000   0.6646355400   1.5825834300
| 76> H    5.9890042900   2.3139558600   0.5548733200
| 77> H    6.0120982200   0.4467421700   2.2237727400
| 78> C    7.7637649600   1.6498460400   2.3521906800
| 79> C    7.6351510000  -0.6453232000   1.3378178800
| 80> H    6.9805478300   2.0300612300  -1.6535923300
| 81> H    7.7174700300   0.4902369900  -1.1914368300
| 82> H    8.2684459700   2.0016029200  -0.4410803300
| 83> H    8.0940899100   1.2104068500   3.3001467400
| 84> H    7.2239201600   2.5763651700   2.5785570500
| 85> H    8.6622570900   1.9113533900   1.7813085800
| 86> H    8.5934514700  -0.4535788600   0.8414834100
| 87> H    7.0650787300  -1.3383359500   0.7108653300
| 88> H    7.8510710600  -1.1449809600   2.2887168000
| 89> H    4.5418141800  -2.5244795200  -1.4203879800
| 90> H    2.8303591300  -2.9697909100  -1.4689608300
| 91> H    3.7464911200  -3.1442165300   0.0389191000
| 92> *
| 93> %eprnmr
| 94>  Nuclei = all C { shift }
| 95>  origin giao
| 96>  giao_2el giao_2el_same_as_scf
| 97>  giao_1el giao_1el_analytic
| 98> end
| 99> 
|100>                          ****END OF INPUT****
================================================================================

                       ****************************
                       * Single Point Calculation *
                       ****************************

---------------------------------
CARTESIAN COORDINATES (ANGSTROEM)
---------------------------------
  C     -5.049257    0.335266    0.309665
  C     -6.458370   -0.081724   -0.040074
  C     -6.989512    0.679458   -1.260797
  H     -7.128801    0.148735    0.805320
  H     -6.508915   -1.160906   -0.221879
  C     -4.859720    1.797217    0.420248
  C     -5.437271    2.591792   -0.729365
  C     -6.885114    2.183271   -1.033070
  H     -4.827241    2.399616   -1.625107
  H     -5.375514    3.664239   -0.516520
  H     -7.252580    2.717279   -1.917297
  H     -7.531721    2.456645   -0.185571
  O     -8.329201    0.280014   -1.578798
  H     -6.395384    0.401622   -2.142647
  C     -4.067719   -0.586380    0.453604
  C     -4.268569    2.385828    1.466306
  H     -3.881809    1.804574    2.298678
  H     -4.169128    3.467545    1.516375
  C     -2.667914   -0.321055    0.691718
  H     -4.366191   -1.627285    0.336775
  C     -1.703601   -1.241452    0.907458
  H     -2.373654    0.725978    0.682636
  C     -1.914108   -2.731651    0.999994
  C     -0.976200   -3.501959    0.051595
  H     -2.952263   -3.017502    0.809992
  H     -1.684965   -3.039399    2.032892
  C      0.492533   -3.083627    0.204311
  H     -1.302018   -3.340035   -0.983664
  H     -1.073679   -4.577441    0.244208
  C      0.672379   -1.566641    0.053973
  H      1.096130   -3.631219   -0.526946
  H      0.851050   -3.378916    1.202033
  C     -0.262743   -0.878604    1.098687
  H      0.040266   -1.314915    2.068594
  C      0.189940    0.578536    1.102617
  H     -8.889070    0.512846   -0.826054
  C      1.722108    0.482474    0.898276
  H     -0.085510    1.093283    2.029153
  H     -0.272816    1.130588    0.276900
  C      2.041652   -0.992933    0.512172
  H      2.273922    0.773473    1.797705
  H      2.054102    1.158130    0.101181
  H      2.316951   -1.542882    1.427198
  C      3.246606   -1.077437   -0.446480
  C      0.336223   -1.108974   -1.371594
  H     -0.727147   -1.240631   -1.594305
  H      0.909080   -1.683996   -2.107555
  H      0.572411   -0.050686   -1.521007
  H      3.007290   -0.505880   -1.355512
  C      3.607351   -2.515318   -0.849089
  C      4.443884   -0.436090    0.205464
  C      5.119279    0.598704   -0.292992
  H      4.753081   -0.896941    1.145949
  H      4.771927    1.020158   -1.241089
  C      6.325122    1.296970    0.287451
  C      7.389864    1.463273   -0.810511
  C      6.878444    0.664636    1.582583
  H      5.989004    2.313956    0.554873
  H      6.012098    0.446742    2.223773
  C      7.763765    1.649846    2.352191
  C      7.635151   -0.645323    1.337818
  H      6.980548    2.030061   -1.653592
  H      7.717470    0.490237   -1.191437
  H      8.268446    2.001603   -0.441080
  H      8.094090    1.210407    3.300147
  H      7.223920    2.576365    2.578557
  H      8.662257    1.911353    1.781309
  H      8.593451   -0.453579    0.841483
  H      7.065079   -1.338336    0.710865
  H      7.851071   -1.144981    2.288717
  H      4.541814   -2.524480   -1.420388
  H      2.830359   -2.969791   -1.468961
  H      3.746491   -3.144217    0.038919

----------------------------
CARTESIAN COORDINATES (A.U.)
----------------------------
  NO LB      ZA    FRAG     MASS         X           Y           Z
   0 C     6.0000    0    12.011   -9.541713    0.633560    0.585182
   1 C     6.0000    0    12.011  -12.204551   -0.154436   -0.075730
   2 C     6.0000    0    12.011  -13.208264    1.283990   -2.382561
   3 H     1.0000    0     1.008  -13.471482    0.281068    1.521835
   4 H     1.0000    0     1.008  -12.300067   -2.193795   -0.419290
   5 C     6.0000    0    12.011   -9.183540    3.396248    0.794154
   6 C     6.0000    0    12.011  -10.274953    4.897778   -1.378301
   7 C     6.0000    0    12.011  -13.010980    4.125784   -1.952219
   8 H     1.0000    0     1.008   -9.122163    4.534617   -3.071007
   9 H     1.0000    0     1.008  -10.158249    6.924408   -0.976081
  10 H     1.0000    0     1.008  -13.705389    5.134913   -3.623166
  11 H     1.0000    0     1.008  -14.232891    4.642386   -0.350678
  12 O     8.0000    0    15.999  -15.739909    0.529149   -2.983495
  13 H     1.0000    0     1.008  -12.085524    0.758956   -4.049015
  14 C     6.0000    0    12.011   -7.686875   -1.108098    0.857187
  15 C     6.0000    0    12.011   -8.066426    4.508562    2.770917
  16 H     1.0000    0     1.008   -7.335557    3.410150    4.343872
  17 H     1.0000    0     1.008   -7.878510    6.552710    2.865534
  18 C     6.0000    0    12.011   -5.041626   -0.606706    1.307158
  19 H     1.0000    0     1.008   -8.250904   -3.075123    0.636412
  20 C     6.0000    0    12.011   -3.219340   -2.346003    1.714847
  21 H     1.0000    0     1.008   -4.485555    1.371899    1.289994
  22 C     6.0000    0    12.011   -3.617140   -5.162073    1.889715
  23 C     6.0000    0    12.011   -1.844751   -6.617744    0.097500
  24 H     1.0000    0     1.008   -5.578969   -5.702252    1.530664
  25 H     1.0000    0     1.008   -3.184123   -5.743632    3.841610
  26 C     6.0000    0    12.011    0.930752   -5.827211    0.386091
  27 H     1.0000    0     1.008   -2.460457   -6.311752   -1.858856
  28 H     1.0000    0     1.008   -2.028959   -8.650110    0.461486
  29 C     6.0000    0    12.011    1.270612   -2.960523    0.101994
  30 H     1.0000    0     1.008    2.071386   -6.862009   -0.995784
  31 H     1.0000    0     1.008    1.608251   -6.385226    2.271514
  32 C     6.0000    0    12.011   -0.496512   -1.660322    2.076217
  33 H     1.0000    0     1.008    0.076092   -2.484830    3.909077
  34 C     6.0000    0    12.011    0.358934    1.093275    2.083644
  35 H     1.0000    0     1.008  -16.797908    0.969139   -1.561016
  36 C     6.0000    0    12.011    3.254313    0.911743    1.697496
  37 H     1.0000    0     1.008   -0.161590    2.066006    3.834544
  38 H     1.0000    0     1.008   -0.515548    2.136502    0.523265
  39 C     6.0000    0    12.011    3.858164   -1.876371    0.967865
  40 H     1.0000    0     1.008    4.297090    1.461652    3.397171
  41 H     1.0000    0     1.008    3.881690    2.188549    0.191204
  42 H     1.0000    0     1.008    4.378403   -2.915625    2.697014
  43 C     6.0000    0    12.011    6.135196   -2.036061   -0.843724
  44 C     6.0000    0    12.011    0.635369   -2.095658   -2.591936
  45 H     1.0000    0     1.008   -1.374109   -2.344453   -3.012799
  46 H     1.0000    0     1.008    1.717913   -3.182291   -3.982702
  47 H     1.0000    0     1.008    1.081700   -0.095782   -2.874287
  48 H     1.0000    0     1.008    5.682955   -0.955975   -2.561546
  49 C     6.0000    0    12.011    6.816905   -4.753263   -1.604546
  50 C     6.0000    0    12.011    8.397724   -0.824090    0.388271
  51 C     6.0000    0    12.011    9.674036    1.131387   -0.553674
  52 H     1.0000    0     1.008    8.982021   -1.694973    2.165530
  53 H     1.0000    0     1.008    9.017635    1.927820   -2.345318
  54 C     6.0000    0    12.011   11.952748    2.450917    0.543203
  55 C     6.0000    0    12.011   13.964820    2.765185   -1.531644
  56 C     6.0000    0    12.011   12.998376    1.255979    2.990649
  57 H     1.0000    0     1.008   11.317578    4.372743    1.048559
  58 H     1.0000    0     1.008   11.361219    0.844220    4.202321
  59 C     6.0000    0    12.011   14.671390    3.117757    4.444996
  60 C     6.0000    0    12.011   14.428344   -1.219484    2.528109
  61 H     1.0000    0     1.008   13.191324    3.836260   -3.124837
  62 H     1.0000    0     1.008   14.583905    0.926414   -2.251489
  63 H     1.0000    0     1.008   15.625098    3.782481   -0.833521
  64 H     1.0000    0     1.008   15.295613    2.287337    6.236374
  65 H     1.0000    0     1.008   13.651231    4.868625    4.872767
  66 H     1.0000    0     1.008   16.369294    3.611934    3.366185
  67 H     1.0000    0     1.008   16.239270   -0.857140    1.590173
  68 H     1.0000    0     1.008   13.351064   -2.529088    1.343341
  69 H     1.0000    0     1.008   14.836374   -2.163700    4.325048
  70 H     1.0000    0     1.008    8.582785   -4.770575   -2.684144
  71 H     1.0000    0     1.008    5.348604   -5.612091   -2.775934
  72 H     1.0000    0     1.008    7.079842   -5.941708    0.073546

--------------------------------
INTERNAL COORDINATES (ANGSTROEM)
--------------------------------
 C      0   0   0     0.000000000000     0.00000000     0.00000000
 C      1   0   0     1.510562204266     0.00000000     0.00000000
 C      2   1   0     1.533516883334   111.73890249     0.00000000
 H      2   1   3     1.103304695451   109.37677375   241.45782138
 H      2   1   3     1.095555556301   110.69437543   122.88129406
 C      1   2   3     1.478328225533   114.19917856    50.51635035
 C      6   1   2     1.512126273498   114.44431429   312.11740747
 C      3   2   1     1.524536721901   110.30343171   304.96769973
 H      7   6   1     1.100646190989   108.37803312   289.82160228
 H      7   6   1     1.095106922620   110.19957777   172.64536676
 H      8   3   2     1.096381497571   109.69550939   179.11899799
 H      8   3   2     1.100495064963   108.65279224   296.55086231
 O      3   2   1     1.433682740007   111.21806437   180.28237329
 H      3   2   1     1.099017820116   109.02669813    65.11806576
 C      1   2   3     1.354092345458   120.85771076   232.66903311
 C      6   1   2     1.337969206050   123.37969370   129.95066666
 H     16   6   1     1.086407891809   121.39446625     0.63723846
 H     16   6   1     1.087430911332   120.93184335   181.33299309
 C     15   1   2     1.444490015660   126.50884768   175.33522582
 H     15   1   2     1.089135943845   116.13245550   357.97124352
 C     19  15   1     1.350397076594   126.38073881   176.11762462
 H     19  15   1     1.087634320608   115.95268176   355.38724483
 C     21  19  15     1.507836632532   125.71214589   357.22083093
 C     23  21  19     1.540294182392   111.80555592   127.65008509
 H     23  21  19     1.093424538754   112.34956674     3.53176963
 H     23  21  19     1.101859176434   107.72977911   246.29946229
 C     24  23  21     1.534764374919   112.65215896    50.93803460
 H     24  23  21     1.097331965438   109.04450415   288.84545192
 H     24  23  21     1.096933526802   109.15331720   172.87617616
 C     27  24  23     1.534989240168   111.82370506   306.18195074
 H     27  24  23     1.094953522642   108.95160258   182.65292909
 H     27  24  23     1.100536238639   109.19740123    66.15751387
 C     21  19  15     1.498098611506   122.82827398   177.77680750
 H     33  21  19     1.105849432882   106.25607449   124.15788768
 C     33  21  19     1.525842590471   121.12921497     1.95448388
 H     13   3   2     0.966585233040   107.54172226    62.61694243
 C     35  33  21     1.548716987932   103.52872225   196.32124656
 H     35  33  21     1.095128864267   112.11261671    74.29431279
 H     35  33  21     1.095770109440   110.72528236   314.71457309
 C     30  27  24     1.553704593937   116.05884446   166.25047670
 H     37  35  33     1.094600867170   111.95204846   249.34369045
 H     37  35  33     1.096399789259   110.93244647   130.76054361
 H     40  30  27     1.102500292834   106.29797653   320.80937216
 C     40  30  27     1.542098133528   119.01612556    81.59684745
 C     30  27  24     1.534502928766   111.10473300   294.17279300
 H     45  30  27     1.094390000310   111.47106182    66.61407843
 H     45  30  27     1.095652656377   110.66843302   306.45931059
 H     45  30  27     1.094570376640   111.58666418   186.62935067
 H     44  40  30     1.100131313558   108.37439616    61.46384072
 C     44  40  30     1.536142470418   113.43568688   300.63753146
 C     44  40  30     1.506596373935   109.18481548   178.89078982
 C     51  44  40     1.332447227064   124.85731495   239.07850245
 H     51  44  40     1.092015773862   114.71095607    60.04532435
 H     52  51  44     1.094150585975   117.54079760     0.66394707
 C     52  51  44     1.509484631597   128.33955293   180.20855947
 C     55  52  51     1.538458125093   109.17419551   132.23774804
 C     55  52  51     1.543820197042   114.79872674     3.82850596
 H     55  52  51     1.103970563852   106.02559800   246.61419676
 H     57  55  52     1.099616652420   106.73564807   315.26961574
 C     57  55  52     1.531903299685   111.41826401   198.97170121
 C     57  55  52     1.532483965591   113.14761100    74.20101663
 H     56  55  52     1.095251266935   110.28285939    58.03632799
 H     56  55  52     1.095093041243   111.05379884   298.73642039
 H     56  55  52     1.094615905466   111.57948606   177.78058503
 H     60  57  55     1.095829396389   110.54236525   176.23175600
 H     60  57  55     1.095952480635   111.27193707    56.24546587
 H     60  57  55     1.096166307581   111.43774218   295.59210678
 H     61  57  55     1.096108383708   110.76217807    71.16865744
 H     61  57  55     1.094677379248   112.05401706   310.67256041
 H     61  57  55     1.095667881019   110.39588118   190.10173777
 H     50  44  40     1.095302686686   110.17488361   187.33197529
 H     50  44  40     1.092933041107   111.77272408    67.38442442
 H     50  44  40     1.097010172745   110.74695183   306.76796958

---------------------------
INTERNAL COORDINATES (A.U.)
---------------------------
 C      0   0   0     0.000000000000     0.00000000     0.00000000
 C      1   0   0     2.854548874316     0.00000000     0.00000000
 C      2   1   0     2.897926931245   111.73890249     0.00000000
 H      2   1   3     2.084943716672   109.37677375   241.45782138
 H      2   1   3     2.070299965905   110.69437543   122.88129406
 C      1   2   3     2.793635482303   114.19917856    50.51635035
 C      6   1   2     2.857504536819   114.44431429   312.11740747
 C      3   2   1     2.880956885499   110.30343171   304.96769973
 H      7   6   1     2.079919871314   108.37803312   289.82160228
 H      7   6   1     2.069452171114   110.19957777   172.64536676
 H      8   3   2     2.071860768708   109.69550939   179.11899799
 H      8   3   2     2.079634284512   108.65279224   296.55086231
 O      3   2   1     2.709267741544   111.21806437   180.28237329
 H      3   2   1     2.076842696319   109.02669813    65.11806576
 C      1   2   3     2.558863692955   120.85771076   232.66903311
 C      6   1   2     2.528395375055   123.37969370   129.95066666
 H     16   6   1     2.053013385250   121.39446625     0.63723846
 H     16   6   1     2.054946611978   120.93184335   181.33299309
 C     15   1   2     2.729690532782   126.50884768   175.33522582
 H     15   1   2     2.058168656477   116.13245550   357.97124352
 C     19  15   1     2.551880646811   126.38073881   176.11762462
 H     19  15   1     2.055330999802   115.95268176   355.38724483
 C     21  19  15     2.849398290179   125.71214589   357.22083093
 C     23  21  19     2.910734170394   111.80555592   127.65008509
 H     23  21  19     2.066272926355   112.34956674     3.53176963
 H     23  21  19     2.082212081608   107.72977911   246.29946229
 C     24  23  21     2.900284348697   112.65215896    50.93803460
 H     24  23  21     2.073656892676   109.04450415   288.84545192
 H     24  23  21     2.072903952771   109.15331720   172.87617616
 C     27  24  23     2.900709282433   111.82370506   306.18195074
 H     27  24  23     2.069162287165   108.95160258   182.65292909
 H     27  24  23     2.079712091483   109.19740123    66.15751387
 C     21  19  15     2.830996097355   122.82827398   177.77680750
 H     33  21  19     2.089752573498   106.25607449   124.15788768
 C     33  21  19     2.883424619463   121.12921497     1.95448388
 H     13   3   2     1.826581375537   107.54172226    62.61694243
 C     35  33  21     2.926650966142   103.52872225   196.32124656
 H     35  33  21     2.069493634817   112.11261671    74.29431279
 H     35  33  21     2.070705412578   110.72528236   314.71457309
 C     30  27  24     2.936076175556   116.05884446   166.25047670
 H     37  35  33     2.068495864904   111.95204846   249.34369045
 H     37  35  33     2.071895334989   110.93244647   130.76054361
 H     40  30  27     2.083423616024   106.29797653   320.80937216
 C     40  30  27     2.914143143999   119.01612556    81.59684745
 C     30  27  24     2.899790287068   111.10473300   294.17279300
 H     45  30  27     2.068097384287   111.47106182    66.61407843
 H     45  30  27     2.070483458455   110.66843302   306.45931059
 H     45  30  27     2.068438246153   111.58666418   186.62935067
 H     44  40  30     2.078946893976   108.37439616    61.46384072
 C     44  40  30     2.902888571775   113.43568688   300.63753146
 C     44  40  30     2.847054541096   109.18481548   178.89078982
 C     51  44  40     2.517960347054   124.85731495   239.07850245
 H     51  44  40     2.063610746522   114.71095607    60.04532435
 H     52  51  44     2.067644956762   117.54079760     0.66394707
 C     52  51  44     2.852512557081   128.33955293   180.20855947
 C     55  52  51     2.907264524933   109.17419551   132.23774804
 C     55  52  51     2.917397372425   114.79872674     3.82850596
 H     55  52  51     2.086202025591   106.02559800   246.61419676
 H     57  55  52     2.077974325373   106.73564807   315.26961574
 C     57  55  52     2.894877700055   111.41826401   198.97170121
 C     57  55  52     2.895974999593   113.14761100    74.20101663
 H     56  55  52     2.069724942337   110.28285939    58.03632799
 H     56  55  52     2.069425939113   111.05379884   298.73642039
 H     56  55  52     2.068524283165   111.57948606   177.78058503
 H     60  57  55     2.070817448676   110.54236525   176.23175600
 H     60  57  55     2.071050044192   111.27193707    56.24546587
 H     60  57  55     2.071454118560   111.43774218   295.59210678
 H     61  57  55     2.071344658303   110.76217807    71.16865744
 H     61  57  55     2.068640451777   112.05401706   310.67256041
 H     61  57  55     2.070512228859   110.39588118   190.10173777
 H     50  44  40     2.069822111584   110.17488361   187.33197529
 H     50  44  40     2.065344130406   111.77272408    67.38442442
 H     50  44  40     2.073048792613   110.74695183   306.76796958

---------------------
BASIS SET INFORMATION
---------------------
There are 3 groups of distinct atoms

 Group   1 Type C   : 7s4p1d contracted to 3s2p1d pattern {511/31/1}
 Group   2 Type H   : 4s1p contracted to 2s1p pattern {31/1}
 Group   3 Type O   : 7s4p1d contracted to 3s2p1d pattern {511/31/1}

Atom   0C    basis set group =>   1
Atom   1C    basis set group =>   1
Atom   2C    basis set group =>   1
Atom   3H    basis set group =>   2
Atom   4H    basis set group =>   2
Atom   5C    basis set group =>   1
Atom   6C    basis set group =>   1
Atom   7C    basis set group =>   1
Atom   8H    basis set group =>   2
Atom   9H    basis set group =>   2
Atom  10H    basis set group =>   2
Atom  11H    basis set group =>   2
Atom  12O    basis set group =>   3
Atom  13H    basis set group =>   2
Atom  14C    basis set group =>   1
Atom  15C    basis set group =>   1
Atom  16H    basis set group =>   2
Atom  17H    basis set group =>   2
Atom  18C    basis set group =>   1
Atom  19H    basis set group =>   2
Atom  20C    basis set group =>   1
Atom  21H    basis set group =>   2
Atom  22C    basis set group =>   1
Atom  23C    basis set group =>   1
Atom  24H    basis set group =>   2
Atom  25H    basis set group =>   2
Atom  26C    basis set group =>   1
Atom  27H    basis set group =>   2
Atom  28H    basis set group =>   2
Atom  29C    basis set group =>   1
Atom  30H    basis set group =>   2
Atom  31H    basis set group =>   2
Atom  32C    basis set group =>   1
Atom  33H    basis set group =>   2
Atom  34C    basis set group =>   1
Atom  35H    basis set group =>   2
Atom  36C    basis set group =>   1
Atom  37H    basis set group =>   2
Atom  38H    basis set group =>   2
Atom  39C    basis set group =>   1
Atom  40H    basis set group =>   2
Atom  41H    basis set group =>   2
Atom  42H    basis set group =>   2
Atom  43C    basis set group =>   1
Atom  44C    basis set group =>   1
Atom  45H    basis set group =>   2
Atom  46H    basis set group =>   2
Atom  47H    basis set group =>   2
Atom  48H    basis set group =>   2
Atom  49C    basis set group =>   1
Atom  50C    basis set group =>   1
Atom  51C    basis set group =>   1
Atom  52H    basis set group =>   2
Atom  53H    basis set group =>   2
Atom  54C    basis set group =>   1
Atom  55C    basis set group =>   1
Atom  56C    basis set group =>   1
Atom  57H    basis set group =>   2
Atom  58H    basis set group =>   2
Atom  59C    basis set group =>   1
Atom  60C    basis set group =>   1
Atom  61H    basis set group =>   2
Atom  62H    basis set group =>   2
Atom  63H    basis set group =>   2
Atom  64H    basis set group =>   2
Atom  65H    basis set group =>   2
Atom  66H    basis set group =>   2
Atom  67H    basis set group =>   2
Atom  68H    basis set group =>   2
Atom  69H    basis set group =>   2
Atom  70H    basis set group =>   2
Atom  71H    basis set group =>   2
Atom  72H    basis set group =>   2

-------------------------
BASIS SET IN INPUT FORMAT
-------------------------

 # Basis set for element : H 
 NewGTO H 
 S 3 
   1      13.0107010000      0.0334854848
   2       1.9622572000      0.2347218709
   3       0.4445379600      0.8137702853
 S 1 
   1       0.1219496200      1.0000000000
 P 1 
   1       0.8000000000      1.0000000000
  end;

 # Basis set for element : C 
 NewGTO C 
 S 5 
   1    1238.4016938000      0.0055173650
   2     186.2900499200      0.0410888285
   3      42.2511763460      0.1822538213
   4      11.6765579320      0.4682845944
   5       3.5930506482      0.4457581734
 S 1 
   1       0.4024514736      1.0000000000
 S 1 
   1       0.1309018267      1.0000000000
 P 3 
   1       9.4680970621      0.0568883320
   2       2.0103545142      0.3129405934
   3       0.5477100471      0.7606501651
 P 1 
   1       0.1526861379      1.0000000000
 D 1 
   1       0.8000000000      1.0000000000
  end;

 # Basis set for element : O 
 NewGTO O 
 S 5 
   1    2266.1767785000     -0.0053893504
   2     340.8701019100     -0.0402347214
   3      77.3631351670     -0.1800818421
   4      21.4796449400     -0.4682885766
   5       6.6589433124     -0.4469261716
 S 1 
   1       0.8097597567      1.0000000000
 S 1 
   1       0.2553077223      1.0000000000
 P 3 
   1      17.7215043170      0.0626302488
   2       3.8635505440      0.3333113849
   3       1.0480920883      0.7414863830
 P 1 
   1       0.2764154441      1.0000000000
 D 1 
   1       1.2000000000      1.0000000000
  end;

---------------------------------
AUXILIARY/J BASIS SET INFORMATION
---------------------------------
There are 3 groups of distinct atoms

 Group   1 Type C   : 12s5p4d2f1g contracted to 6s4p3d1f1g pattern {711111/2111/211/2/1}
 Group   2 Type H   : 5s2p1d contracted to 3s1p1d pattern {311/2/1}
 Group   3 Type O   : 12s5p4d2f1g contracted to 6s4p3d1f1g pattern {711111/2111/211/2/1}

Atom   0C    basis set group =>   1
Atom   1C    basis set group =>   1
Atom   2C    basis set group =>   1
Atom   3H    basis set group =>   2
Atom   4H    basis set group =>   2
Atom   5C    basis set group =>   1
Atom   6C    basis set group =>   1
Atom   7C    basis set group =>   1
Atom   8H    basis set group =>   2
Atom   9H    basis set group =>   2
Atom  10H    basis set group =>   2
Atom  11H    basis set group =>   2
Atom  12O    basis set group =>   3
Atom  13H    basis set group =>   2
Atom  14C    basis set group =>   1
Atom  15C    basis set group =>   1
Atom  16H    basis set group =>   2
Atom  17H    basis set group =>   2
Atom  18C    basis set group =>   1
Atom  19H    basis set group =>   2
Atom  20C    basis set group =>   1
Atom  21H    basis set group =>   2
Atom  22C    basis set group =>   1
Atom  23C    basis set group =>   1
Atom  24H    basis set group =>   2
Atom  25H    basis set group =>   2
Atom  26C    basis set group =>   1
Atom  27H    basis set group =>   2
Atom  28H    basis set group =>   2
Atom  29C    basis set group =>   1
Atom  30H    basis set group =>   2
Atom  31H    basis set group =>   2
Atom  32C    basis set group =>   1
Atom  33H    basis set group =>   2
Atom  34C    basis set group =>   1
Atom  35H    basis set group =>   2
Atom  36C    basis set group =>   1
Atom  37H    basis set group =>   2
Atom  38H    basis set group =>   2
Atom  39C    basis set group =>   1
Atom  40H    basis set group =>   2
Atom  41H    basis set group =>   2
Atom  42H    basis set group =>   2
Atom  43C    basis set group =>   1
Atom  44C    basis set group =>   1
Atom  45H    basis set group =>   2
Atom  46H    basis set group =>   2
Atom  47H    basis set group =>   2
Atom  48H    basis set group =>   2
Atom  49C    basis set group =>   1
Atom  50C    basis set group =>   1
Atom  51C    basis set group =>   1
Atom  52H    basis set group =>   2
Atom  53H    basis set group =>   2
Atom  54C    basis set group =>   1
Atom  55C    basis set group =>   1
Atom  56C    basis set group =>   1
Atom  57H    basis set group =>   2
Atom  58H    basis set group =>   2
Atom  59C    basis set group =>   1
Atom  60C    basis set group =>   1
Atom  61H    basis set group =>   2
Atom  62H    basis set group =>   2
Atom  63H    basis set group =>   2
Atom  64H    basis set group =>   2
Atom  65H    basis set group =>   2
Atom  66H    basis set group =>   2
Atom  67H    basis set group =>   2
Atom  68H    basis set group =>   2
Atom  69H    basis set group =>   2
Atom  70H    basis set group =>   2
Atom  71H    basis set group =>   2
Atom  72H    basis set group =>   2

-------------------------------------
AUXILIARY/J BASIS SET IN INPUT FORMAT
-------------------------------------

 # Auxiliary/J basis set for element : H 
 NewAuxJGTO H 
 S 3 
   1      15.6752927000      0.1007184237
   2       3.6063578000      0.3404257499
   3       1.2080016000      0.6491996172
 S 1 
   1       0.4726794000      1.0000000000
 S 1 
   1       0.2018100000      1.0000000000
 P 2 
   1       2.0281365000      0.5596620919
   2       0.5358730000      0.5596620919
 D 1 
   1       2.2165124000      1.0000000000
  end;

 # Auxiliary/J basis set for element : C 
 NewAuxJGTO C 
 S 7 
   1    1861.0916331000      0.0134602335
   2     642.9939764000      0.0299160374
   3     235.1105725000      0.1008649584
   4      90.7028894000      0.2370970548
   5      36.7794552000      0.3924037254
   6      15.6046273000      0.3195862154
   7       6.8907294000      0.0530104441
 S 1 
   1       3.1478850000     -1.0000000000
 S 1 
   1       1.4777287000      1.0000000000
 S 1 
   1       0.7076466000      1.0000000000
 S 1 
   1       0.3430122000      1.0000000000
 S 1 
   1       0.1669453000      1.0000000000
 P 2 
   1      13.5472892000     -0.6769313712
   2       5.4669419000     -0.3779500978
 P 1 
   1       2.1751721000      1.0000000000
 P 1 
   1       0.8582194000      1.0000000000
 P 1 
   1       0.3376720000      1.0000000000
 D 2 
   1       5.9287253000     -0.3533329857
   2       1.9809209000     -0.7456525731
 D 1 
   1       0.8055417000     -1.0000000000
 D 1 
   1       0.3531244000     -1.0000000000
 F 2 
   1       1.6755626000      0.6311076882
   2       0.5997536000      0.4968166032
 G 1 
   1       1.0024600000     -1.0000000000
  end;

 # Auxiliary/J basis set for element : O 
 NewAuxJGTO O 
 S 7 
   1    2876.8216605000      0.0168151159
   2    1004.7443032000      0.0340137548
   3     369.7579954000      0.1194951309
   4     142.9442404000      0.2664627624
   5      57.8366425000      0.4202764046
   6      24.3864983000      0.2765077335
   7      10.6622662000      0.0057008815
 S 1 
   1       4.8070437000     -1.0000000000
 S 1 
   1       2.2210770000      1.0000000000
 S 1 
   1       1.0447795000      1.0000000000
 S 1 
   1       0.4968425000      1.0000000000
 S 1 
   1       0.2371384000      1.0000000000
 P 2 
   1      64.2613382000     -0.2731534179
   2      16.3006076000     -0.8168011598
 P 1 
   1       4.3550542000      1.0000000000
 P 1 
   1       1.2019554000      1.0000000000
 P 1 
   1       0.3354196000      1.0000000000
 D 2 
   1       9.2146611000     -0.4661230638
   2       2.8435251000     -0.6600908911
 D 1 
   1       0.9955759000     -1.0000000000
 D 1 
   1       0.3649441000     -1.0000000000
 F 2 
   1       2.6420115000      0.5931563945
   2       0.7345613000      0.5931563945
 G 1 
   1       1.3931000000     -1.0000000000
  end;


Checking for AutoStart:
The File: inpS.gbw exists
Trying to determine its content:
     ... Fine, the file contains calculation information
     ... Fine, the calculation information was read
     ... Fine, the file contains a basis set
     ... Fine, the basis set was read
     ... Fine, the file contains a geometry
     ... Fine, the geometry was read
     ... Fine, the file contains a set of orbitals
     ... Fine, the orbitals can be read
     => possible old guess file was deleted
     => GBW file was renamed to GES file
     => GES file is set as startup file
     => Guess is set to MORead
     ... now leaving AutoStart



           ************************************************************
           *        Program running with 4 parallel MPI-processes     *
           *              working on a common directory               *
           ************************************************************
------------------------------------------------------------------------------
                             ORCA STARTUP CALCULATIONS
                           -- RI-GTO INTEGRALS CHOSEN --
------------------------------------------------------------------------------
------------------------------------------------------------------------------
                   ___                                                        
                  /   \      - P O W E R E D   B Y -                         
                 /     \                                                     
                 |  |  |   _    _      __       _____    __    __             
                 |  |  |  | |  | |    /  \     |  _  \  |  |  /  |          
                  \  \/   | |  | |   /    \    | | | |  |  | /  /          
                 / \  \   | |__| |  /  /\  \   | |_| |  |  |/  /          
                |  |  |   |  __  | /  /__\  \  |    /   |      \           
                |  |  |   | |  | | |   __   |  |    \   |  |\   \          
                \     /   | |  | | |  |  |  |  | |\  \  |  | \   \       
                 \___/    |_|  |_| |__|  |__|  |_| \__\ |__|  \__/        
                                                                              
                      - O R C A' S   B I G   F R I E N D -                    
                                      &                                       
                       - I N T E G R A L  F E E D E R -                       
                                                                              
 v1 FN, 2020, v2 2021, v3 2022-2024                                           
------------------------------------------------------------------------------


----------------------
SHARK INTEGRAL PACKAGE
----------------------

Number of atoms                             ...     73
Number of basis functions                   ...    626
Number of shells                            ...    306
Maximum angular momentum                    ...      2
Integral batch strategy                     ... SHARK/LIBINT Hybrid
RI-J (if used) integral strategy            ... SPLIT-RIJ (Revised 2003 algorithm where possible)
Printlevel                                  ...      1
Contraction scheme used                     ... SEGMENTED contraction
Prescreening option                         ... SCHWARTZ
   Thresh                                   ... 3.000e-11
   Tcut                                     ... 1.000e-12
   Tpresel                                  ... 1.000e-12 
Coulomb Range Separation                    ... NOT USED
Exchange Range Separation                   ... Long Range
   Mu parameter                             ... 3.000e-01
   Scaling (regular/separated)              ... 1.670e-01 8.330e-01
Multipole approximations                    ... NOT USED
Finite Nucleus Model                        ... NOT USED
CABS basis                                  ... NOT available
Auxiliary Coulomb fitting basis             ... AVAILABLE
   # of basis functions in Aux-J            ...   1905
   # of shells in Aux-J                     ...    655
   Maximum angular momentum in Aux-J        ...      4
Auxiliary J/K fitting basis                 ... NOT available
Auxiliary Correlation fitting basis         ... NOT available
Auxiliary 'external' fitting basis          ... NOT available

Checking pre-screening integrals            ... done (  0.0 sec) Dimension = 306
Check shell pair data                       ... done (  0.0 sec)
Shell pair information
Shell pair cut-off parameter TPreSel        ...   1.0e-12
Total number of shell pairs                 ...     46971
Shell pairs after pre-screening             ...     27150
Total number of primitive shell pairs       ...    162105
Primitive shell pairs kept                  ...     59922
          la=0 lb=0:   9496 shell pairs
          la=1 lb=0:  10424 shell pairs
          la=1 lb=1:   2879 shell pairs
          la=2 lb=0:   2700 shell pairs
          la=2 lb=1:   1457 shell pairs
          la=2 lb=2:    194 shell pairs

Calculating one electron integrals          ... done (  0.1 sec)
Calculating RI/J V-Matrix + Cholesky decomp.... done (  0.2 sec)
Calculating Nuclear repulsion               ... done (  0.0 sec) ENN=   2757.275562566319 Eh

Diagonalization of the overlap matrix:
Smallest eigenvalue                        ... 4.572e-04
Time for diagonalization                   ...    0.044 sec
Threshold for overlap eigenvalues          ... 1.000e-07
Number of eigenvalues below threshold      ... 0
Time for construction of square roots      ...    0.024 sec
Total time needed                          ...    0.072 sec

-------------------
DFT GRID GENERATION
-------------------

General Integration Accuracy     IntAcc      ... 4.388
Radial Grid Type                 RadialGrid  ... OptM3 with GC (2021)
Angular Grid (max. ang.)         AngularGrid ... 4 (Lebedev-302)
Angular grid pruning method      GridPruning ... 4 (adaptive)
Weight generation scheme         WeightScheme... mBecke (2022)
Basis function cutoff            BFCut       ... 1.0000e-11
Integration weight cutoff        WCut        ... 1.0000e-14
Partially contracted basis set               ... off
Rotationally invariant grid construction     ... off
Angular grids for H and He will be reduced by one unit

Total number of grid points                  ...   310007
Total number of batches                      ...     4880
Average number of points per batch           ...       63
Average number of grid points per atom       ...     4247

--------------------
COSX GRID GENERATION
--------------------

GRIDX 1
-------
General Integration Accuracy     IntAcc      ... 3.816
Radial Grid Type                 RadialGrid  ... OptM3 with GC (2021)
Angular Grid (max. ang.)         AngularGrid ... 1 (Lebedev-50)
Angular grid pruning method      GridPruning ... 4 (adaptive)
Weight generation scheme         WeightScheme... mBecke (2022)
Basis function cutoff            BFCut       ... 1.0000e-11
Integration weight cutoff        WCut        ... 1.0000e-14
Partially contracted basis set               ... on
Rotationally invariant grid construction     ... off
Angular grids for H and He will be reduced by one unit

Total number of grid points                  ...    39435
Total number of batches                      ...      353
Average number of points per batch           ...      111
Average number of grid points per atom       ...      540
UseSFitting                                  ... on

GRIDX 2
-------
General Integration Accuracy     IntAcc      ... 4.020
Radial Grid Type                 RadialGrid  ... OptM3 with GC (2021)
Angular Grid (max. ang.)         AngularGrid ... 2 (Lebedev-110)
Angular grid pruning method      GridPruning ... 4 (adaptive)
Weight generation scheme         WeightScheme... mBecke (2022)
Basis function cutoff            BFCut       ... 1.0000e-11
Integration weight cutoff        WCut        ... 1.0000e-14
Partially contracted basis set               ... on
Rotationally invariant grid construction     ... off
Angular grids for H and He will be reduced by one unit

Total number of grid points                  ...    81493
Total number of batches                      ...      679
Average number of points per batch           ...      120
Average number of grid points per atom       ...     1116
UseSFitting                                  ... on

GRIDX 3
-------
General Integration Accuracy     IntAcc      ... 4.338
Radial Grid Type                 RadialGrid  ... OptM3 with GC (2021)
Angular Grid (max. ang.)         AngularGrid ... 3 (Lebedev-194)
Angular grid pruning method      GridPruning ... 4 (adaptive)
Weight generation scheme         WeightScheme... mBecke (2022)
Basis function cutoff            BFCut       ... 1.0000e-11
Integration weight cutoff        WCut        ... 1.0000e-14
Partially contracted basis set               ... on
Rotationally invariant grid construction     ... off
Angular grids for H and He will be reduced by one unit

Total number of grid points                  ...   176441
Total number of batches                      ...     1420
Average number of points per batch           ...      124
Average number of grid points per atom       ...     2417
UseSFitting                                  ... on
Initializing property integral containers    ... done (  0.0 sec)

SHARK setup successfully completed in   4.5 seconds

Maximum memory used throughout the entire STARTUP-calculation: 95.1 MB


           ************************************************************
           *        Program running with 4 parallel MPI-processes     *
           *              working on a common directory               *
           ************************************************************
-------------------------------------------------------------------------------
                                 ORCA GUESS
                   Start orbitals & Density for SCF / CASSCF
-------------------------------------------------------------------------------

------------
SCF SETTINGS
------------
Hamiltonian:
 Density Functional     Method          .... DFT(GTOs)
 Exchange Functional    Exchange        .... WB97X-V
 Correlation Functional Correlation     .... WB97X-V
 Gradients option       PostSCFGGA      .... off
 Hybrid DFT is turned on
   Fraction HF Exchange ScalHFX         ....  0.167000
   Scaling of DF-GGA-X  ScalDFX         ....  0.000000
   Scaling of DF-GGA-C  ScalDFC         ....  1.000000
   Scaling of DF-LDA-C  ScalLDAC        ....  1.000000
   Perturbative correction              ....  0.000000
 Long-range corrected/Screened/Range-Separated Hybrid DFT is turned on
   Amount of maximum screened exact exchange              ....  0.833000
   Range separation parameter mu (erf(mu*r12)/r12)        ....  0.300000
 RI-approximation to the Coulomb term is turned on
   Number of AuxJ basis functions       .... 1905
   RIJ-COSX (HFX calculated with COS-X)).... on


General Settings:
 Integral files         IntName         .... inpS
 Hartree-Fock type      HFTyp           .... RHF
 Total Charge           Charge          ....    0
 Multiplicity           Mult            ....    1
 Number of Electrons    NEL             ....  220
 Basis Dimension        Dim             ....  626
 Nuclear Repulsion      ENuc            ....   2757.2755625663 Eh

Convergence Acceleration:
 AO-DIIS                CNVDIIS         .... on
   Start iteration      DIISMaxIt       ....    12
   Startup error        DIISStart       ....  0.200000
   # of expansion vecs  DIISMaxEq       ....     5
   Bias factor          DIISBfac        ....   1.050
   Max. coefficient     DIISMaxC        ....  10.000
 MO-DIIS                CNVKDIIS        .... off
 Trust-Rad. Augm. Hess. CNVTRAH         .... auto
   Auto Start mean grad. ratio tolernc. ....  1.125000
   Auto Start start iteration           ....     1
   Auto Start num. interpolation iter.  ....    10
   Max. Number of Micro iterations      ....    24
   Max. Number of Macro iterations      .... Maxiter - #DIIS iter
   Number of Davidson start vectors     ....     2
   Converg. threshold    (grad. norm)   ....   1.000e-04
   Grad. Scal. Fac. for Micro threshold ....   0.100
   Minimum threshold for Micro iter.    ....   1.000e-02
   NR start threshold (gradient norm)   ....   1.000e-04
   Initial trust radius                 ....   0.400
   Minimum AH scaling param. (alpha)    ....   1.000
   Maximum AH scaling param. (alpha)    .... 1000.000
   Quad. conv. algorithm                .... NR
   White noise on init. David. guess    .... on
   Maximum white noise                  ....   0.010
   Pseudo random numbers                .... off
   Inactive MOs                         .... canonical
   Orbital update algorithm             .... Taylor
   Preconditioner                       .... Diag
   Full preconditioner red. dimension   ....   250
 SOSCF                  CNVSOSCF        .... off
 Level Shifting         CNVShift        .... on
   Level shift para.    LevelShift      ....    0.2500
   Turn off err/grad.   ShiftErr        ....    0.0010
 Zerner damping         CNVZerner       .... off
 Static damping         CNVDamp         .... on
   Fraction old density DampFac         ....    0.7000
   Max. Damping (<1)    DampMax         ....    0.9800
   Min. Damping (>=0)   DampMin         ....    0.0000
   Turn off err/grad.   DampErr         ....    0.1000

SCF Procedure:
 Maximum # iterations   MaxIter         ....   125
 SCF integral mode      SCFMode         .... Direct
   Integral package                     .... SHARK and LIBINT hybrid scheme
 Reset frequency        DirectResetFreq ....    20
 Integral Threshold     Thresh          ....  3.000e-11 Eh
 Primitive CutOff       TCut            ....  1.000e-12 Eh

Convergence Tolerance:
 Convergence Check Mode ConvCheckMode   .... Total+1el-Energy
 Convergence forced     ConvForced      .... 0
 Energy Change          TolE            ....  1.000e-07 Eh
 1-El. energy change                    ....  1.000e-04 Eh
 DIIS Error             TolErr          ....  1.000e-07

---------------------
INITIAL GUESS: MOREAD
---------------------
Guess MOs are being read from file: inpS.ges
Input Geometry matches current geometry (good)
Input basis set matches current basis set (good)
Occupation numbers will be reassigned to an Aufbau configuration
MOs were renormalized
MOs were reorthogonalized (Cholesky)
                      ------------------
                      INITIAL GUESS DONE (   0.2 sec)
                      ------------------
             **** ENERGY FILE WAS UPDATED (inpS.en.tmp) ****
Finished Guess after   0.3 sec
Maximum memory used throughout the entire GUESS-calculation: 52.0 MB


           ************************************************************
           *        Program running with 4 parallel MPI-processes     *
           *              working on a common directory               *
           ************************************************************

-------------------------------------------------------------------------------------------
                                      ORCA LEAN-SCF
                              memory conserving SCF solver
-------------------------------------------------------------------------------------------

--------------------
CPCM SOLVATION MODEL
--------------------
CPCM parameters:
  Epsilon                                         ...       4.8030
  Refrac                                          ...       1.4459
  Rsolv                                           ...       1.3000
  Surface type                                    ... GAUSSIAN VDW
  Discretization scheme                           ... Constant charge density
    Threshold for H atoms                         ...       5.0000 (charges/Ang^2)
    Threshold for non-H atoms                     ...       5.0000 (charges/Ang^2)
  Epsilon function type                           ...         CPCM
Solvent:                                          ... CHLOROFORM
Radii:
  Scheme                                          ... Element-dependent radii
  Radius for C  used is    3.8550 Bohr (=   2.0400 Ang.)
  Radius for H  used is    2.4944 Bohr (=   1.3200 Ang.)
  Radius for O  used is    3.4469 Bohr (=   1.8240 Ang.)
Calculating surface                               ...        done! (  0.0s)
Cavity surface points                             ...         5412
Cavity Volume                                     ...    3620.4513
Cavity Surface-area                               ...    1805.4763
Calculating surface distance matrix               ...        done! (  0.2s)
Performing Cholesky decomposition & store         ...        done! (  0.9s)
Overall time for CPCM initialization              ...                 1.1s

----------------------------------------D-I-I-S--------------------------------------------
Iteration    Energy (Eh)           Delta-E    RMSDP     MaxDP     DIISErr   Damp  Time(sec)
-------------------------------------------------------------------------------------------
               ***  Starting incremental Fock matrix formation  ***
    1    -1168.3617513135691297     0.00e+00  3.22e-08  1.83e-06  6.69e-06  0.700  23.2

  HOMO= 109 E= -7.881 eV LUMO=  8.094 eV gap=  15.975 eV
    2    -1168.3617513013141433     1.23e-08  2.79e-08  1.52e-06  3.36e-06  0.700   4.7
                 **** Energy Check signals convergence ****

  HOMO= 109 E= -7.881 eV LUMO=  8.094 eV gap=  15.975 eV

               *****************************************************
               *                     SUCCESS                       *
               *           SCF CONVERGED AFTER   2 CYCLES          *
               *****************************************************

Recomputing exchange energy using gridx3       ... done (   40.103 sec)
Old exchange energy                            :    -56.782662163 Eh
New exchange energy                            :    -56.782614888 Eh
Exchange energy change after final integration :      0.000047275 Eh
Total energy after final integration           :  -1168.361704026 Eh
             **** ENERGY FILE WAS UPDATED (inpS.en.tmp) ****

----------------
TOTAL SCF ENERGY
----------------

Total Energy       :      -1168.36170402645598 Eh          -31792.73828 eV

Components:
Nuclear Repulsion  :       2757.27556256631851 Eh           75029.28247 eV
Electronic Energy  :      -3925.62668525426170 Eh         -106821.73282 eV
One Electron Energy:      -7059.86006322965477 Eh         -192108.55893 eV
Two Electron Energy:       3134.23337797539307 Eh           85286.82611 eV
CPCM Dielectric    :         -0.01062861337085 Eh              -0.28922 eV

Virial components:
Potential Energy   :      -2321.67615538483096 Eh          -63176.01999 eV
Kinetic Energy     :       1153.31445135837521 Eh           31383.28172 eV
Virial Ratio       :          2.01304696446867

DFT components:
N(Alpha)           :      110.000110795569 electrons
N(Beta)            :      110.000110795569 electrons
N(Total)           :      220.000221591138 electrons
E(X)               :     -111.769205085537 Eh       
E(C)               :       -8.950506488363 Eh       
E(XC)              :     -120.719711573901 Eh       

CPCM Solvation Model Properties:
Surface-charge          :         -0.04186324778463
Corrected charge        :          0.00000000000000
Outlying charge corr.   :          0.00006085404476 Eh               0.00166 eV
Free-energy (cav+disp)  :  This term is not implemented in the current solvation scheme

---------------
SCF CONVERGENCE
---------------

  Last Energy change         ...   -1.2255e-08  Tolerance :   1.0000e-07
  Last MAX-Density change    ...    1.5218e-06  Tolerance :   1.0000e-05
  Last RMS-Density change    ...    2.7902e-08  Tolerance :   1.0000e-06
  Last DIIS Error            ...    3.3599e-06  Tolerance :   1.0000e-07


----------------
ORBITAL ENERGIES
----------------

  NO   OCC          E(Eh)            E(eV) 
   0   2.0000     -19.213666      -522.8304 
   1   2.0000     -10.329725      -281.0861 
   2   2.0000     -10.293406      -280.0978 
   3   2.0000     -10.290151      -280.0093 
   4   2.0000     -10.285984      -279.8958 
   5   2.0000     -10.285805      -279.8910 
   6   2.0000     -10.285085      -279.8714 
   7   2.0000     -10.283069      -279.8165 
   8   2.0000     -10.281918      -279.7852 
   9   2.0000     -10.281392      -279.7709 
  10   2.0000     -10.280771      -279.7540 
  11   2.0000     -10.279926      -279.7310 
  12   2.0000     -10.279400      -279.7167 
  13   2.0000     -10.278423      -279.6901 
  14   2.0000     -10.276883      -279.6482 
  15   2.0000     -10.276789      -279.6457 
  16   2.0000     -10.276672      -279.6425 
  17   2.0000     -10.276517      -279.6382 
  18   2.0000     -10.274182      -279.5747 
  19   2.0000     -10.272632      -279.5325 
  20   2.0000     -10.271858      -279.5115 
  21   2.0000     -10.271683      -279.5067 
  22   2.0000     -10.270562      -279.4762 
  23   2.0000     -10.270264      -279.4681 
  24   2.0000     -10.269724      -279.4534 
  25   2.0000     -10.269527      -279.4480 
  26   2.0000     -10.268449      -279.4187 
  27   2.0000     -10.266850      -279.3752 
  28   2.0000     -10.266782      -279.3733 
  29   2.0000      -1.131617       -30.7929 
  30   2.0000      -0.997926       -27.1550 
  31   2.0000      -0.979082       -26.6422 
  32   2.0000      -0.957561       -26.0566 
  33   2.0000      -0.942567       -25.6485 
  34   2.0000      -0.917229       -24.9591 
  35   2.0000      -0.910288       -24.7702 
  36   2.0000      -0.889275       -24.1984 
  37   2.0000      -0.887133       -24.1401 
  38   2.0000      -0.872473       -23.7412 
  39   2.0000      -0.852739       -23.2042 
  40   2.0000      -0.835041       -22.7226 
  41   2.0000      -0.829214       -22.5641 
  42   2.0000      -0.808383       -21.9972 
  43   2.0000      -0.800226       -21.7752 
  44   2.0000      -0.794701       -21.6249 
  45   2.0000      -0.786858       -21.4115 
  46   2.0000      -0.759327       -20.6623 
  47   2.0000      -0.756338       -20.5810 
  48   2.0000      -0.722216       -19.6525 
  49   2.0000      -0.712805       -19.3964 
  50   2.0000      -0.712141       -19.3784 
  51   2.0000      -0.698652       -19.0113 
  52   2.0000      -0.689316       -18.7572 
  53   2.0000      -0.680493       -18.5171 
  54   2.0000      -0.649781       -17.6814 
  55   2.0000      -0.636827       -17.3289 
  56   2.0000      -0.630147       -17.1472 
  57   2.0000      -0.620565       -16.8864 
  58   2.0000      -0.604925       -16.4608 
  59   2.0000      -0.598883       -16.2964 
  60   2.0000      -0.587057       -15.9746 
  61   2.0000      -0.583923       -15.8894 
  62   2.0000      -0.575800       -15.6683 
  63   2.0000      -0.568366       -15.4660 
  64   2.0000      -0.565462       -15.3870 
  65   2.0000      -0.563405       -15.3310 
  66   2.0000      -0.555331       -15.1113 
  67   2.0000      -0.547926       -14.9098 
  68   2.0000      -0.545905       -14.8548 
  69   2.0000      -0.541243       -14.7280 
  70   2.0000      -0.536202       -14.5908 
  71   2.0000      -0.528763       -14.3884 
  72   2.0000      -0.523090       -14.2340 
  73   2.0000      -0.518112       -14.0986 
  74   2.0000      -0.515073       -14.0159 
  75   2.0000      -0.503726       -13.7071 
  76   2.0000      -0.502062       -13.6618 
  77   2.0000      -0.501654       -13.6507 
  78   2.0000      -0.497022       -13.5247 
  79   2.0000      -0.494626       -13.4595 
  80   2.0000      -0.490857       -13.3569 
  81   2.0000      -0.488061       -13.2808 
  82   2.0000      -0.485337       -13.2067 
  83   2.0000      -0.478244       -13.0137 
  84   2.0000      -0.476932       -12.9780 
  85   2.0000      -0.474289       -12.9061 
  86   2.0000      -0.465573       -12.6689 
  87   2.0000      -0.465079       -12.6554 
  88   2.0000      -0.461563       -12.5598 
  89   2.0000      -0.453151       -12.3309 
  90   2.0000      -0.449011       -12.2182 
  91   2.0000      -0.444378       -12.0921 
  92   2.0000      -0.439120       -11.9491 
  93   2.0000      -0.430320       -11.7096 
  94   2.0000      -0.426336       -11.6012 
  95   2.0000      -0.422711       -11.5025 
  96   2.0000      -0.422342       -11.4925 
  97   2.0000      -0.420986       -11.4556 
  98   2.0000      -0.414690       -11.2843 
  99   2.0000      -0.413799       -11.2601 
 100   2.0000      -0.412128       -11.2146 
 101   2.0000      -0.404053       -10.9949 
 102   2.0000      -0.401857       -10.9351 
 103   2.0000      -0.401450       -10.9240 
 104   2.0000      -0.394247       -10.7280 
 105   2.0000      -0.380744       -10.3606 
 106   2.0000      -0.371924       -10.1206 
 107   2.0000      -0.357017        -9.7149 
 108   2.0000      -0.336926        -9.1682 
 109   2.0000      -0.289618        -7.8809 
 110   0.0000       0.047457         1.2914 
 111   0.0000       0.100400         2.7320 
 112   0.0000       0.108976         2.9654 
 113   0.0000       0.133959         3.6452 
 114   0.0000       0.141751         3.8572 
 115   0.0000       0.147117         4.0033 
 116   0.0000       0.153618         4.1802 
 117   0.0000       0.155567         4.2332 
 118   0.0000       0.158848         4.3225 
 119   0.0000       0.163246         4.4422 
 120   0.0000       0.168715         4.5910 
*Only the first 10 virtual orbitals were printed.

                    ********************************
                    * MULLIKEN POPULATION ANALYSIS *
                    ********************************

-----------------------
MULLIKEN ATOMIC CHARGES
-----------------------
   0 C :   -0.127128
   1 C :    0.143985
   2 C :    0.081610
   3 H :    0.016677
   4 H :    0.013229
   5 C :   -0.184402
   6 C :    0.110923
   7 C :    0.006844
   8 H :    0.029890
   9 H :    0.012227
  10 H :    0.023494
  11 H :    0.011338
  12 O :   -0.355202
  13 H :    0.014170
  14 C :   -0.024759
  15 C :   -0.044448
  16 H :    0.036298
  17 H :    0.029203
  18 C :   -0.060107
  19 H :   -0.007021
  20 C :   -0.116081
  21 H :    0.000430
  22 C :    0.114460
  23 C :   -0.000067
  24 H :    0.012787
  25 H :    0.017461
  26 C :    0.105242
  27 H :    0.012536
  28 H :    0.014975
  29 C :   -0.412104
  30 H :    0.008697
  31 H :   -0.002898
  32 C :   -0.040843
  33 H :    0.010930
  34 C :    0.115682
  35 H :    0.181679
  36 C :    0.075209
  37 H :    0.007199
  38 H :    0.015587
  39 C :   -0.038151
  40 H :    0.007624
  41 H :    0.000334
  42 H :   -0.008441
  43 C :   -0.039336
  44 C :    0.093442
  45 H :    0.023074
  46 H :    0.018370
  47 H :    0.019650
  48 H :    0.000265
  49 C :    0.052517
  50 C :   -0.043674
  51 C :   -0.066552
  52 H :    0.013374
  53 H :    0.002857
  54 C :   -0.047712
  55 C :    0.002559
  56 C :   -0.160826
  57 H :    0.019298
  58 H :    0.017907
  59 C :    0.034742
  60 C :    0.016748
  61 H :    0.023278
  62 H :    0.024226
  63 H :    0.020375
  64 H :    0.017529
  65 H :    0.017213
  66 H :    0.015881
  67 H :    0.016835
  68 H :    0.019640
  69 H :    0.018355
  70 H :    0.016952
  71 H :    0.031032
  72 H :    0.012913
Sum of atomic charges:   -0.0000000

--------------------------------
MULLIKEN REDUCED ORBITAL CHARGES
--------------------------------
  0 C s       :     3.077874  s :     3.077874
      pz      :     1.004161  p :     3.006411
      px      :     0.998913
      py      :     1.003337
      dz2     :     0.003243  d :     0.042843
      dxz     :     0.006963
      dyz     :     0.006118
      dx2y2   :     0.014711
      dxy     :     0.011808

  1 C s       :     2.932451  s :     2.932451
      pz      :     0.979946  p :     2.889119
      px      :     0.941759
      py      :     0.967415
      dz2     :     0.007009  d :     0.034445
      dxz     :     0.009210
      dyz     :     0.004798
      dx2y2   :     0.009061
      dxy     :     0.004367

  2 C s       :     3.075253  s :     3.075253
      pz      :     1.039492  p :     2.771976
      px      :     0.757765
      py      :     0.974719
      dz2     :     0.011670  d :     0.071161
      dxz     :     0.016131
      dyz     :     0.009322
      dx2y2   :     0.019368
      dxy     :     0.014670

  3 H s       :     0.960132  s :     0.960132
      pz      :     0.010659  p :     0.023191
      px      :     0.007758
      py      :     0.004774

  4 H s       :     0.963980  s :     0.963980
      pz      :     0.004254  p :     0.022790
      px      :     0.003812
      py      :     0.014725

  5 C s       :     3.111878  s :     3.111878
      pz      :     1.005346  p :     3.027734
      px      :     0.974293
      py      :     1.048095
      dz2     :     0.011269  d :     0.044790
      dxz     :     0.006702
      dyz     :     0.011971
      dx2y2   :     0.008290
      dxy     :     0.006558

  6 C s       :     2.949026  s :     2.949026
      pz      :     0.973886  p :     2.904580
      px      :     0.967097
      py      :     0.963597
      dz2     :     0.006904  d :     0.035471
      dxz     :     0.009454
      dyz     :     0.005077
      dx2y2   :     0.009246
      dxy     :     0.004790

  7 C s       :     3.012936  s :     3.012936
      pz      :     0.990417  p :     2.945200
      px      :     0.988128
      py      :     0.966655
      dz2     :     0.005298  d :     0.035021
      dxz     :     0.008230
      dyz     :     0.006705
      dx2y2   :     0.009695
      dxy     :     0.005094

  8 H s       :     0.946820  s :     0.946820
      pz      :     0.011281  p :     0.023290
      px      :     0.007308
      py      :     0.004702

  9 H s       :     0.964951  s :     0.964951
      pz      :     0.004485  p :     0.022821
      px      :     0.003745
      py      :     0.014592

 10 H s       :     0.953813  s :     0.953813
      pz      :     0.011382  p :     0.022693
      px      :     0.005030
      py      :     0.006280

 11 H s       :     0.965970  s :     0.965970
      pz      :     0.010773  p :     0.022692
      px      :     0.007323
      py      :     0.004596

 12 O s       :     3.726345  s :     3.726345
      pz      :     1.541907  p :     4.616651
      px      :     1.242944
      py      :     1.831799
      dz2     :     0.002483  d :     0.012206
      dxz     :     0.004201
      dyz     :     0.001650
      dx2y2   :     0.001809
      dxy     :     0.002064

 13 H s       :     0.965610  s :     0.965610
      pz      :     0.010920  p :     0.020221
      px      :     0.005087
      py      :     0.004213

 14 C s       :     3.197132  s :     3.197132
      pz      :     0.988252  p :     2.791384
      px      :     0.887657
      py      :     0.915475
      dz2     :     0.002811  d :     0.036243
      dxz     :     0.007528
      dyz     :     0.003337
      dx2y2   :     0.012134
      dxy     :     0.010433

 15 C s       :     3.122763  s :     3.122763
      pz      :     0.976175  p :     2.895437
      px      :     1.001693
      py      :     0.917569
      dz2     :     0.007220  d :     0.026248
      dxz     :     0.004204
      dyz     :     0.007108
      dx2y2   :     0.004819
      dxy     :     0.002897

 16 H s       :     0.939152  s :     0.939152
      pz      :     0.010951  p :     0.024550
      px      :     0.006052
      py      :     0.007546

 17 H s       :     0.946171  s :     0.946171
      pz      :     0.004042  p :     0.024627
      px      :     0.004692
      py      :     0.015892

 18 C s       :     3.200744  s :     3.200744
      pz      :     1.028916  p :     2.824059
      px      :     0.876946
      py      :     0.918197
      dz2     :     0.002897  d :     0.035303
      dxz     :     0.006938
      dyz     :     0.003177
      dx2y2   :     0.012323
      dxy     :     0.009969

 19 H s       :     0.982695  s :     0.982695
      pz      :     0.004654  p :     0.024325
      px      :     0.004422
      py      :     0.015250

 20 C s       :     3.099791  s :     3.099791
      pz      :     0.955956  p :     2.972283
      px      :     0.993013
      py      :     1.023314
      dz2     :     0.003588  d :     0.044007
      dxz     :     0.007119
      dyz     :     0.006957
      dx2y2   :     0.014653
      dxy     :     0.011690

 21 H s       :     0.975046  s :     0.975046
      pz      :     0.004622  p :     0.024523
      px      :     0.004342
      py      :     0.015559

 22 C s       :     2.924634  s :     2.924634
      pz      :     1.002104  p :     2.925344
      px      :     0.976346
      py      :     0.946894
      dz2     :     0.009474  d :     0.035563
      dxz     :     0.004133
      dyz     :     0.006051
      dx2y2   :     0.009928
      dxy     :     0.005976

 23 C s       :     3.000461  s :     3.000461
      pz      :     1.009631  p :     2.963167
      px      :     0.967936
      py      :     0.985600
      dz2     :     0.009671  d :     0.036438
      dxz     :     0.007718
      dyz     :     0.003213
      dx2y2   :     0.010224
      dxy     :     0.005612

 24 H s       :     0.963969  s :     0.963969
      pz      :     0.004735  p :     0.023244
      px      :     0.013925
      py      :     0.004585

 25 H s       :     0.959232  s :     0.959232
      pz      :     0.013492  p :     0.023308
      px      :     0.004939
      py      :     0.004876

 26 C s       :     2.970958  s :     2.970958
      pz      :     0.968160  p :     2.888456
      px      :     0.974425
      py      :     0.945871
      dz2     :     0.006805  d :     0.035344
      dxz     :     0.006648
      dyz     :     0.005845
      dx2y2   :     0.008726
      dxy     :     0.007320

 27 H s       :     0.964587  s :     0.964587
      pz      :     0.013489  p :     0.022877
      px      :     0.004576
      py      :     0.004812

 28 H s       :     0.962383  s :     0.962383
      pz      :     0.004646  p :     0.022642
      px      :     0.003832
      py      :     0.014164

 29 C s       :     3.255991  s :     3.255991
      pz      :     1.043968  p :     3.105103
      px      :     1.003493
      py      :     1.057642
      dz2     :     0.011712  d :     0.051010
      dxz     :     0.010243
      dyz     :     0.009521
      dx2y2   :     0.010948
      dxy     :     0.008586

 30 H s       :     0.968265  s :     0.968265
      pz      :     0.009289  p :     0.023038
      px      :     0.007361
      py      :     0.006388

 31 H s       :     0.980368  s :     0.980368
      pz      :     0.012966  p :     0.022530
      px      :     0.005014
      py      :     0.004550

 32 C s       :     3.031517  s :     3.031517
      pz      :     0.985922  p :     2.965491
      px      :     0.949771
      py      :     1.029798
      dz2     :     0.008495  d :     0.043834
      dxz     :     0.007394
      dyz     :     0.007976
      dx2y2   :     0.011120
      dxy     :     0.008850

 33 H s       :     0.967788  s :     0.967788
      pz      :     0.012189  p :     0.021282
      px      :     0.004297
      py      :     0.004797

 34 C s       :     2.902050  s :     2.902050
      pz      :     0.987381  p :     2.947457
      px      :     0.976648
      py      :     0.983428
      dz2     :     0.005466  d :     0.034811
      dxz     :     0.005810
      dyz     :     0.008272
      dx2y2   :     0.008778
      dxy     :     0.006485

 35 H s       :     0.750195  s :     0.750195
[...]
 Total          139.456          173.840          192.270  iso=     168.522

 Orientation: 
  X           0.2870040   -0.5116052    0.8098696
  Y          -0.1521688   -0.8590518   -0.4887481
  Z           0.9457660    0.0170358   -0.3244017

 --------------
 Nucleus  39C :
 --------------

Diamagnetic contribution to the shielding tensor (ppm) : 
           263.898          4.742        -6.833
             4.430        261.937         7.372
            -6.597          5.425       263.248

Paramagnetic contribution to the shielding tensor (ppm): 
           -97.882         -0.885         8.378
             3.162       -127.878        -2.338
            12.595         -2.976      -133.484

Total shielding tensor (ppm): 
           166.016          3.857         1.545
             7.592        134.059         5.034
             5.998          2.449       129.764


 Diagonalized sT*s matrix:
 
 sDSO           257.537          267.352          264.194  iso=     263.028
 sPSO          -129.944         -132.620          -96.680  iso=    -119.748
        ---------------  ---------------  ---------------
 Total          127.593          134.732          167.514  iso=     143.280

 Orientation: 
  X          -0.0085871   -0.2046406   -0.9787995
  Y          -0.4979146    0.8497365   -0.1732887
  Z           0.8671835    0.4858705   -0.1091903

 --------------
 Nucleus  43C :
 --------------

Diamagnetic contribution to the shielding tensor (ppm) : 
           257.399         -0.352        -5.576
            -3.749        247.295         8.552
            -8.863         12.627       248.178

Paramagnetic contribution to the shielding tensor (ppm): 
           -92.928         -3.103         4.704
             6.944        -97.264        -6.389
             9.749        -11.187       -95.693

Total shielding tensor (ppm): 
           164.471         -3.455        -0.872
             3.195        150.031         2.164
             0.886          1.439       152.486


 Diagonalized sT*s matrix:
 
 sDSO           238.757          256.593          257.523  iso=     250.958
 sPSO           -89.678         -103.154          -93.053  iso=     -95.295
        ---------------  ---------------  ---------------
 Total          149.079          153.438          164.470  iso=     155.663

 Orientation: 
  X           0.0158660    0.0120521   -0.9998015
  Y           0.8824573    0.4699811    0.0196692
  Z          -0.4701248    0.8825942    0.0031788

 --------------
 Nucleus  44C :
 --------------

Diamagnetic contribution to the shielding tensor (ppm) : 
           250.965          0.896         1.976
            -1.315        256.994        -2.280
             0.170          2.025       272.681

Paramagnetic contribution to the shielding tensor (ppm): 
           -71.753         -5.139        -2.105
            -1.128        -77.425        -0.947
            -0.251         -5.293       -79.732

Total shielding tensor (ppm): 
           179.212         -4.243        -0.130
            -2.443        179.569        -3.227
            -0.081         -3.268       192.949


 Diagonalized sT*s matrix:
 
 sDSO           254.410          254.295          271.934  iso=     260.213
 sPSO           -78.692          -72.010          -78.209  iso=     -76.304
        ---------------  ---------------  ---------------
 Total          175.718          182.285          193.726  iso=     183.910

 Orientation: 
  X           0.6887001   -0.7235630    0.0463547
  Y           0.7116651    0.6623805   -0.2340615
  Z           0.1386538    0.1941872    0.9711161

 --------------
 Nucleus  49C :
 --------------

Diamagnetic contribution to the shielding tensor (ppm) : 
           241.741         -5.889        -2.127
           -18.799        258.467         4.574
            -8.904          6.782       245.607

Paramagnetic contribution to the shielding tensor (ppm): 
           -68.658          1.938        -3.835
            18.703        -71.529         4.256
             4.245         -0.638       -78.532

Total shielding tensor (ppm): 
           173.083         -3.951        -5.962
            -0.096        186.938         8.831
            -4.659          6.143       167.075


 Diagonalized sT*s matrix:
 
 sDSO           241.812          238.696          265.306  iso=     248.605
 sPSO           -79.179          -64.468          -75.071  iso=     -72.906
        ---------------  ---------------  ---------------
 Total          162.633          174.228          190.235  iso=     175.699

 Orientation: 
  X           0.4024716   -0.8912886    0.2088571
  Y          -0.2443957   -0.3244855   -0.9137724
  Z           0.8822060    0.3167236   -0.3484233

 --------------
 Nucleus  50C :
 --------------

Diamagnetic contribution to the shielding tensor (ppm) : 
           265.913         14.556         8.204
            14.288        260.015        -3.055
            17.381        -16.765       258.871

Paramagnetic contribution to the shielding tensor (ppm): 
          -192.576        -34.740       -92.704
           -47.960       -162.698        39.700
           -93.920         58.584      -242.311

Total shielding tensor (ppm): 
            73.337        -20.184       -84.500
           -33.672         97.316        36.645
           -76.538         41.819        16.559


 Diagonalized sT*s matrix:
 
 sDSO           275.032          272.346          237.421  iso=     261.600
 sPSO          -310.096         -211.905          -75.585  iso=    -199.195
        ---------------  ---------------  ---------------
 Total          -35.064           60.441          161.836  iso=      62.404

 Orientation: 
  X          -0.6663258    0.3711230   -0.6467439
  Y          -0.0888522    0.8216462    0.5630301
  Z          -0.7403481   -0.4326261    0.5145089

 --------------
 Nucleus  51C :
 --------------

Diamagnetic contribution to the shielding tensor (ppm) : 
           262.229         15.593         8.325
            18.833        260.722       -12.695
            -8.890         -1.899       274.207

Paramagnetic contribution to the shielding tensor (ppm): 
          -186.141        -27.804       -90.691
           -32.558       -164.113        43.984
           -65.755         31.344      -252.571

Total shielding tensor (ppm): 
            76.088        -12.211       -82.367
           -13.725         96.609        31.289
           -74.645         29.445        21.636


 Diagonalized sT*s matrix:
 
 sDSO           268.470          277.844          250.844  iso=     265.719
 sPSO          -304.660         -195.053         -103.111  iso=    -200.942
        ---------------  ---------------  ---------------
 Total          -36.190           82.791          147.733  iso=      64.778

 Orientation: 
  X          -0.5950241    0.4524455   -0.6642586
  Y           0.1174124    0.8665604    0.4850643
  Z          -0.7950853   -0.2106327    0.5687470

 --------------
 Nucleus  54C :
 --------------

Diamagnetic contribution to the shielding tensor (ppm) : 
           252.662          3.670         3.206
             9.873        239.503       -10.138
             2.408         -9.021       257.270

Paramagnetic contribution to the shielding tensor (ppm): 
           -90.448         -8.827         6.851
           -14.621        -82.029        12.579
            11.731          8.839       -96.198

Total shielding tensor (ppm): 
           162.214         -5.157        10.057
            -4.748        157.474         2.441
            14.139         -0.182       161.072


 Diagonalized sT*s matrix:
 
 sDSO           258.567          233.501          257.368  iso=     249.812
 sPSO          -110.919          -74.632          -83.124  iso=     -89.558
        ---------------  ---------------  ---------------
 Total          147.649          158.868          174.243  iso=     160.253

 Orientation: 
  X           0.6578400    0.1561399    0.7367950
  Y           0.4088395   -0.8956255   -0.1752293
  Z          -0.6325321   -0.4165037    0.6530144

 --------------
 Nucleus  55C :
 --------------

Diamagnetic contribution to the shielding tensor (ppm) : 
           250.594          1.147        -5.036
             3.141        238.469        -8.066
           -22.415         -4.868       238.389

Paramagnetic contribution to the shielding tensor (ppm): 
           -60.064          4.833         0.775
            -0.728        -63.942         5.347
            13.297          0.681       -55.329

Total shielding tensor (ppm): 
           190.531          5.980        -4.261
             2.412        174.526        -2.719
            -9.117         -4.187       183.059


 Diagonalized sT*s matrix:
 
 sDSO           236.125          230.678          260.648  iso=     242.484
 sPSO           -63.064          -51.434          -64.837  iso=     -59.778
        ---------------  ---------------  ---------------
 Total          173.061          179.244          195.811  iso=     182.705

 Orientation: 
  X           0.1466167    0.5350759   -0.8319840
  Y          -0.9601995   -0.1251578   -0.2497046
  Z          -0.2377402    0.8354815    0.4954294

 --------------
 Nucleus  56C :
 --------------

Diamagnetic contribution to the shielding tensor (ppm) : 
           245.301         -2.880         8.932
             3.432        238.867        -5.353
            18.702         -6.663       237.151

Paramagnetic contribution to the shielding tensor (ppm): 
           -78.542         -1.144        -4.642
            -2.474        -65.377         4.951
           -17.542          6.985       -62.702

Total shielding tensor (ppm): 
           166.759         -4.023         4.289
             0.957        173.491        -0.403
             1.159          0.323       174.449


 Diagonalized sT*s matrix:
 
 sDSO           237.701          234.326          249.291  iso=     240.440
 sPSO           -72.077          -60.712          -73.831  iso=     -68.873
        ---------------  ---------------  ---------------
 Total          165.625          173.614          175.461  iso=     171.566

 Orientation: 
  X          -0.9424490   -0.0763207    0.3255228
  Y          -0.1744093    0.9428621   -0.2838880
  Z           0.2852566    0.3243242    0.9019105

 --------------
 Nucleus  59C :
 --------------

Diamagnetic contribution to the shielding tensor (ppm) : 
           243.146          6.855         6.216
            21.073        226.680         9.527
            21.602          0.516       232.236

Paramagnetic contribution to the shielding tensor (ppm): 
           -73.423         -0.576        10.713
           -17.267        -40.772         3.635
           -12.230         13.235       -61.925

Total shielding tensor (ppm): 
           169.723          6.278        16.929
             3.806        185.909        13.162
             9.373         13.751       170.310


 Diagonalized sT*s matrix:
 
 sDSO           225.516          228.274          248.271  iso=     234.021
 sPSO           -70.042          -56.016          -50.061  iso=     -58.707
        ---------------  ---------------  ---------------
 Total          155.474          172.258          198.210  iso=     175.314

 Orientation: 
  X          -0.6211858    0.6884197    0.3744415
  Y          -0.2337761   -0.6188393    0.7499244
  Z           0.7479819    0.3783069    0.5453503

 --------------
 Nucleus  60C :
 --------------

Diamagnetic contribution to the shielding tensor (ppm) : 
           250.143         -6.935         2.057
           -23.344        235.067       -15.595
             3.520         -3.536       230.029

Paramagnetic contribution to the shielding tensor (ppm): 
           -72.310         -0.971        -3.134
            19.417        -43.813        23.633
            -2.082          6.822       -55.552

Total shielding tensor (ppm): 
           177.833         -7.906        -1.077
            -3.927        191.254         8.038
             1.438          3.286       174.477


 Diagonalized sT*s matrix:
 
 sDSO           233.538          241.915          239.786  iso=     238.413
 sPSO           -61.613          -65.124          -44.938  iso=     -57.225
        ---------------  ---------------  ---------------
 Total          171.925          176.791          194.849  iso=     181.188

 Orientation: 
  X          -0.3946720    0.8650596   -0.3096868
  Y          -0.3709737    0.1583301    0.9150465
  Z           0.8406025    0.4760289    0.2584259



--------------------------------
CHEMICAL SHIELDING SUMMARY (ppm)
--------------------------------


  Nucleus  Element    Isotropic     Anisotropy
  -------  -------  ------------   ------------
      0       C           59.724        148.068 
      1       C          151.143         30.058 
      2       C          128.861         55.173 
      5       C           51.570        179.189 
      6       C          165.022         23.018 
      7       C          161.674         22.638 
     14       C           74.674        128.338 
     15       C           83.042        121.186 
     18       C           79.632        134.353 
     20       C           52.368        175.027 
     22       C          169.224          8.578 
     23       C          174.489         12.592 
     26       C          158.571         23.897 
     29       C          154.450         17.023 
     32       C          142.823         28.865 
     34       C          174.887         23.276 
     36       C          168.522         35.622 
     39       C          143.280         36.351 
     43       C          155.663         13.212 
     44       C          183.910         14.724 
     49       C          175.699         21.805 
     50       C           62.404        149.147 
     51       C           64.778        124.433 
     54       C          160.253         20.985 
     55       C          182.705         19.659 
     56       C          171.566          5.842 
     59       C          175.314         34.344 
     60       C          181.188         20.491 


NMR shielding tensor and spin rotation calculation done in   1.1 sec 

Maximum memory used throughout the entire PROP-calculation: 51.5 MB

--------------------------------
SUGGESTED CITATIONS FOR THIS RUN
--------------------------------

Below you find a list of papers that are relevant to this ORCA run
We neither can nor want to force you to cite these papers, but we appreciate if you do
You receive ORCA, which is the product of decades of hard work by many enthusiastic individuals, for free
The only thing we kindly ask in return is that you cite our papers,
We deeply appreciate it, if you show your appreciation for ORCA by not just citing the generic ORCA reference.

Please note that relegating all ORCA citations to the supporting information does *not* help us.
SI sections are not indexed - citations you put there will not count into any citation statistics
But we need these citations in order to attract the funding resources that allow us to do what we are doing

Therefore, if you are a happy ORCA user, please consider citing a few of the papers listed below in the main body of your paper

In addition to the list printed below, the program has created the file inpS.bibtex that contains the list in bibtex format
You can import this file easily into all common literature databanks and citation aid programs


List of essential papers. We consider these as the minimum necessary citations

  1. Neese,F.
     Software update: the ORCA program system, version 5.0
     WIRES Comput. Molec. Sci., 2022 12(1)e1606
     doi.org/10.1002/wcms.1606

List of papers to cite with high priority. The work reported in these papers was absolutely
necessary for this run to complete.
Our perspective: the developers of density functionals and basis sets usually get cited in chemistry papers
Good! But without the algorithms to do something with them, the functionals or basis sets would not do anything.
Hence, in our opinion, the algorithm design and method developments papers are equally worthy of getting cited

  1. Neese,F.
     An improvement of the resolution of the identity approximation for the formation of the Coulomb matrix
     J. Comp. Chem., 2003 24(14)1740-1747
     doi.org/10.1002/jcc.10318
  2. Neese,F.; Wennmohs,F.; Hansen,A.; Becker,U.
     Efficient, approximate and parallel Hartree-Fock and hybrid DFT calculations. A 'chain-of-spheres' algorithm for the Hartree-Fock exchange
     Chem. Phys., 2009 356(1-3)98-109
     doi.org/10.1016/j.chemphys.2008.10.036
  3. Stoychev,G.L.; Auer,A.A.; Izsak,R.; Neese,F.
     Self-Consistent Field Calculation of Nuclear Magnetic Resonance Chemical Shielding Constants Using Gauge-Including Atomic Orbitals and Approximate Two-Electron Integrals
     J. Chem. Theory Comput., 2018 14(2)619-637
     doi.org/10.1021/acs.jctc.7b01006
  4. Garcia-Rates,M.; Neese,F.
     Effect of the Solute Cavity on the Solvation Energy and its Derivatives within the Framework of the Gaussian Charge Scheme
     J. Comput. Chem., 2020 41 922-939
     doi.org/10.1002/jcc.26139
  5. Helmich-Paris,B.; de Souza,B.; Neese,F.; Izsák,R.
     An improved chain of spheres for exchange algorithm
     J. Chem. Phys., 2021 155 104109
     doi.org/doi: 10.1063/5.0058766.
  6. Neese,F.
     The SHARK Integral Generation and Digestion System
     J. Comp. Chem., 2022  1-16
     doi.org/10.1002/jcc.26942
  7. Caldeweyher,E.; Bannwarth,C.; Grimme,S.
     Extension of the D3 dispersion coefficient model
     J. Chem. Phys., 2017 147 034112-XXXX
     doi.org/10.1063/1.4993215
  8. Caldeweyher,E.; Ehlert,S.; Hansen,A.; Neugebauer,H.; Spicher,S.; Bannwarth,C.; Grimme,S.
     A generally applicable atomic-charge dependent London dispersion correction
     J. Chem. Phys., 2019 150 154122-XXXX
     doi.org/10.1063/1.5090222
  9. Caldeweyher,E.; Mewes,J.; Ehlert,S.; Grimme,S.
     Extension and evaluation of the D4 London-dispersion model for periodic systems
     Phys. Chem. Chem. Phys., 2020 22(16)8499-8512
     doi.org/10.1039/D0CP00502A

List of suggested additional citations. These are papers that are important in the 'surrounding' of 
of this run, or papers that preceded the highly important papers. If you like your results we are grateful for a citation.

  1. Izsak,R.; Neese,F.
     An overlap fitted chain of spheres exchange method
     J. Chem. Phys., 2011 135 144105
     doi.org/10.1063/1.3646921
  2. Izsak,R.; Hansen,A.; Neese,F.
     The resolution of identity and chain of spheres approximations for the LPNO-CCSD singles Fock term
     Molec. Phys., 2012 110 2413-2417
     doi.org/10.1080/00268976.2012.687466
  3. Neese,F.
     The ORCA program system
     WIRES Comput. Molec. Sci., 2012 2(1)73-78
     doi.org/10.1002/wcms.81
  4. Izsak,R.; Neese,F.; Klopper,W.
     Robust fitting techniques in the chain of spheres approximation to the Fock exchange: The role of the complementary space
     J. Chem. Phys., 2013 139 
     doi.org/10.1063/1.4819264
  5. Neese,F.
     Software update: the ORCA program system, version 4.0
     WIRES Comput. Molec. Sci., 2018 8(1)1-6
     doi.org/10.1002/wcms.1327
  6. Neese,F.; Wennmohs,F.; Becker,U.; Riplinger,C.
     The ORCA quantum chemistry program package
     J. Chem. Phys., 2020 152 Art. No. L224108
     doi.org/10.1063/5.0004608

Timings for individual modules:

Sum of individual times          ...      174.756 sec (=   2.913 min)
Startup calculation              ...        4.666 sec (=   0.078 min)   2.7 %
SCF iterations                   ...       70.619 sec (=   1.177 min)  40.4 %
Property integrals               ...       59.292 sec (=   0.988 min)  33.9 %
SCF Response                     ...       38.730 sec (=   0.646 min)  22.2 %
Property calculations            ...        1.449 sec (=   0.024 min)   0.8 %
                             ****ORCA TERMINATED NORMALLY****
TOTAL RUN TIME: 0 days 0 hours 2 minutes 55 seconds 43 msec
