
                                 *****************
                                 * O   R   C   A *
                                 *****************

                                            #,                                       
                                            ###                                      
                                            ####                                     
                                            #####                                    
                                            ######                                   
                                           ########,                                 
                                     ,,################,,,,,                         
                               ,,#################################,,                 
                          ,,##########################################,,             
                       ,#########################################, ''#####,          
                    ,#############################################,,   '####,        
                  ,##################################################,,,,####,       
                ,###########''''           ''''###############################       
              ,#####''   ,,,,##########,,,,          '''####'''          '####       
            ,##' ,,,,###########################,,,                        '##       
           ' ,,###''''                  '''############,,,                           
         ,,##''                                '''############,,,,        ,,,,,,###''
      ,#''                                            '''#######################'''  
     '                                                          ''''####''''         
             ,#######,   #######,   ,#######,      ##                                
            ,#'     '#,  ##    ##  ,#'     '#,    #''#        ,####,   ,####,        
            ##       ##  ##   ,#'  ##            #'  '#       #'       #'  '#        
            ##       ##  #######   ##           ,######,      #####,   #    #        
            '#,     ,#'  ##    ##  '#,     ,#' ,#      #,     #,   #   #,  ,#        
             '#######'   ##     ##  '#######'  #'      '#     '####' # '####'        



                #########################################################
                #                        -***-                          #
                #          Department of theory and spectroscopy        #
                #                                                       #
                #                      Frank Neese                      #
                #                                                       #
                #     Directorship, Architecture, Infrastructure        #
                #                    SHARK, DRIVERS                     #
                #        Core code/Algorithms in most modules           #
                #                                                       #
                #        Max Planck Institute fuer Kohlenforschung      #
                #                Kaiser Wilhelm Platz 1                 #
                #                 D-45470 Muelheim/Ruhr                 #
                #                      Germany                          #
                #                                                       #
                #                  All rights reserved                  #
                #                        -***-                          #
                #########################################################


                         Program Version 6.0.0  -   RELEASE  -


 With contributions from (in alphabetic order):
   Daniel Aravena         : Magnetic Suceptibility
   Michael Atanasov       : Ab Initio Ligand Field Theory (pilot matlab implementation)
   Alexander A. Auer      : GIAO ZORA, VPT2 properties, NMR spectrum
   Ute Becker             : All parallelization in ORCA, NUMFREQ, NUMCALC
   Giovanni Bistoni       : ED, misc. LED, open-shell LED, HFLD
   Martin Brehm           : Molecular dynamics
   Dmytro Bykov           : pre 5.0 version of the SCF Hessian
   Marcos Casanova-Páez   : Triplet and SCS-CIS(D). UHF-(DLPNO)-IP/EA/STEOM-CCSD. UHF-CVS-IP/STEOM-CCSD
   Vijay G. Chilkuri      : MRCI spin determinant printing, contributions to CSF-ICE
   Pauline Colinet        : FMM embedding
   Dipayan Datta          : RHF DLPNO-CCSD density
   Achintya Kumar Dutta   : EOM-CC, STEOM-CC
   Nicolas Foglia         : Exact transition moments, OPA infrastructure, MCD improvements
   Dmitry Ganyushin       : Spin-Orbit,Spin-Spin,Magnetic field MRCI
   Miquel Garcia          : C-PCM and meta-GGA Hessian, CCSD/C-PCM, Gaussian charge scheme
   Tiago L. C. Gouveia    : GS-ROHF, GS-ROCIS
   Yang Guo               : DLPNO-NEVPT2, F12-NEVPT2, CIM, IAO-localization
   Andreas Hansen         : Spin unrestricted coupled pair/coupled cluster methods
   Ingolf Harden          : AUTO-CI MPn and infrastructure 
   Benjamin Helmich-Paris : MC-RPA, TRAH-(SCF,CASSCF), AVAS, COSX integrals, SCF dyn. polar.
   Lee Huntington         : MR-EOM, pCC
   Robert Izsak           : Overlap fitted RIJCOSX, COSX-SCS-MP3, EOM
   Riya Kayal             : Wick's Theorem for AUTO-CI, AUTO-CI UHF-CCSDT
   Emily Kempfer          : AUTO-CI, RHF CISDT and CCSDT
   Christian Kollmar      : KDIIS, OOCD, Brueckner-CCSD(T), CCSD density, CASPT2, CASPT2-K, improved NEVPT2
   Axel Koslowski         : Symmetry handling
   Simone Kossmann        : Meta GGA functionals, TD-DFT gradient, OOMP2, (MP2 Hessian; deprecated post 5.0)
   Lucas Lang             : DCDCAS
   Marvin Lechner         : AUTO-CI (C++ implementation), FIC-MRCC
   Spencer Leger          : CASSCF response
   Dagmar Lenk            : GEPOL surface, SMD, ORCA-2-JSON
   Dimitrios Liakos       : Extrapolation schemes; Compound Job, initial MDCI parallelization
   Dimitrios Manganas     : Further ROCIS development; embedding schemes. LFT, Crystal Embedding
   Dimitrios Pantazis     : SARC Basis sets
   Anastasios Papadopoulos: AUTO-CI, single reference methods and gradients
   Taras Petrenko         : pre 6.0 DFT Hessian and TD-DFT gradient, (ASA, deprecated), ECA, 1-Electron XAS/XES, NRVS
   Peter Pinski           : DLPNO-MP2, DLPNO-MP2 Gradient
   Christoph Reimann      : Effective Core Potentials
   Marius Retegan         : Local ZFS, SOC
   Christoph Riplinger    : Optimizer, TS searches, QM/MM, DLPNO-CCSD(T), (RO)-DLPNO pert. Triples
   Michael Roemelt        : Original ROCIS implementation
   Masaaki Saitow         : Open-shell DLPNO-CCSD energy and density
   Barbara Sandhoefer     : DKH picture change effects
   Kantharuban Sivalingam : CASSCF convergence/infrastructure, NEVPT2 and variants, FIC-MRCI
   Bernardo de Souza      : ESD, SOC TD-DFT
   Georgi Stoychev        : AutoAux, RI-MP2 NMR, DLPNO-MP2 response, X2C
   Van Anh Tran           : RI-MP2 g-tensors
   Willem Van den Heuvel  : Paramagnetic NMR
   Zikuan Wang            : NOTCH, Electric field optimization 
   Frank Wennmohs         : Technical directorship and infrastructure
   Hang Xu                : AUTO-CI-Response properties 


 We gratefully acknowledge several colleagues who have allowed us to
 interface, adapt or use parts of their codes:
   Stefan Grimme, W. Hujo, H. Kruse, P. Pracht,  : VdW corrections, initial TS optimization,
                  C. Bannwarth, S. Ehlert,         DFT functionals, gCP, sTDA/sTD-DF
                  L. Wittmann, M. Mueller
   Ed Valeev, F. Pavosevic, A. Kumar             : LibInt (2-el integral package), F12 methods
   Garnet Chan, S. Sharma, J. Yang, R. Olivares  : DMRG
   Ulf Ekstrom                                   : XCFun DFT Library
   Mihaly Kallay                                 : mrcc  (arbitrary order and MRCC methods)
   Frank Weinhold                                : gennbo (NPA and NBO analysis)
   Simon Mueller                                 : openCOSMO-RS
   Christopher J. Cramer and Donald G. Truhlar   : smd solvation model
   Lars Goerigk                                  : TD-DFT with DH, B97 family of functionals
   V. Asgeirsson, H. Jonsson                     : NEB implementation
   FAccTs GmbH                                   : IRC, NEB, NEB-TS, DLPNO-Multilevel, CI-OPT
                                                   MM, QMMM, 2- and 3-layer-ONIOM, Crystal-QMMM,
                                                   LR-CPCM, SF, NACMEs, symmetry and pop. for TD-DFT,
                                                   nearIR, NL-DFT gradient (VV10), updates on ESD,
                                                   ML-optimized integration grids, MBIS, APM,
                                                   GOAT, DOCKER, SOLVATOR, interface openCOSMO-RS
   S Lehtola, MJT Oliveira, MAL Marques          : LibXC Library
   Liviu Ungur et al                             : ANISO software


 Your calculation uses the libint2 library for the computation of 2-el integrals
 For citations please refer to: http://libint.valeyev.net

 Your ORCA version has been built with support for libXC version: 6.2.2
 For citations please refer to: https://libxc.gitlab.io

 This ORCA versions uses:
   CBLAS   interface :  Fast vector & matrix operations
   LAPACKE interface :  Fast linear algebra routines
   SCALAPACK package :  Parallel linear algebra routines
   Shared memory     :  Shared parallel matrices
   BLAS/LAPACK       :  OpenBLAS 0.3.27  USE64BITINT DYNAMIC_ARCH NO_AFFINITY Zen SINGLE_THREADED
        Core in use  :  Zen
   Copyright (c) 2011-2014, The OpenBLAS Project


NOTE: MaxCore=8000 MB was set to SCF,MP2,MDCI,CIPSI,MRCI and CIS
      => If you want to overwrite this, your respective input block should be placed after the MaxCore statement
Your calculation utilizes the atom-pairwise dispersion correction
based on EEQ partial charges (D4)


================================================================================

----- Orbital basis set information -----
Your calculation utilizes the basis: def2-SVP
   F. Weigend and R. Ahlrichs, Phys. Chem. Chem. Phys. 7, 3297 (2005).

----- AuxJ basis set information -----
Your calculation utilizes the auxiliary basis: def2/J
   F. Weigend, Phys. Chem. Chem. Phys. 8, 1057 (2006).

================================================================================
                                        WARNINGS
                       Please study these warnings very carefully!
================================================================================

WARNING: Old DensityContainer found on disk!
         Will remove this file - 
         If you want to keep old densities, please start your calculation with a different basename. 


================================================================================
                                       INPUT FILE
================================================================================
NAME = inpS
|  1> ! wb97x-d4
|  2> ! def2-svp
|  3> ! def2/J RIJCOSX
|  4> ! DEFGRID2
|  5> ! scfconv7
|  6> ! smallprint printgap noloewdin
|  7> ! NOSOSCF
|  8> %MaxCore 8000
|  9> %output
| 10>        print[P_BondOrder_M] 1
| 11>        print[P_Mayer] 1
| 12>        print[P_basis] 2
| 13> end
| 14> %pal
| 15>     nprocs 4
| 16> end
| 17> ! CPCM(chloroform)
| 18> *xyz 0 1
| 19> C   -5.1667061200   0.2713088500   0.2231504000
| 20> C   -6.5554524800  -0.2298155700  -0.0973814800
| 21> C   -7.1246106400   0.4362625600  -1.3560023100
| 22> H   -7.2343569600   0.0157146000   0.7369184000
| 23> H   -6.5555169800  -1.3186447700  -0.2184497400
| 24> C   -5.0433980700   1.7444079500   0.2454066700
| 25> C   -5.6586322800   2.4434938800  -0.9457375000
| 26> C   -7.0879034300   1.9537629700  -1.2152741700
| 27> H   -5.0438521700   2.2260771900  -1.8324263200
| 28> H   -5.6441664900   3.5283424000  -0.7968464300
| 29> H   -7.4835123100   2.4191074800  -2.1257702100
| 30> H   -7.7420114200   2.2458060100  -0.3798165600
| 31> O   -8.4461054800  -0.0407257700  -1.6417444300
| 32> H   -6.5221975300   0.1357115100  -2.2246838700
| 33> C   -4.1445047200  -0.5937597700   0.4247283700
| 34> C   -4.4780162400   2.4195888600   1.2527950200
| 35> H   -4.0644749600   1.9065304500   2.1165139300
| 36> H   -4.4272686300   3.5058039500   1.2387730800
| 37> C   -2.7589068600  -0.2487347800   0.6418968000
| 38> H   -4.3945186900  -1.6527336000   0.3753654400
| 39> C   -1.7543949100  -1.1039943600   0.9302782800
| 40> H   -2.5109824500   0.8064376700   0.5509231000
| 41> C   -1.8982539800  -2.5888155500   1.1510653100
| 42> C   -0.9110371700  -3.3998207500   0.2901620500
| 43> H   -2.9196226300  -2.9367652200   0.9733097300
| 44> H   -1.6749566200  -2.7922856200   2.2107840000
| 45> C    0.5336455300  -2.8967946500   0.4141960400
| 46> H   -1.2294172200  -3.3569449000  -0.7590365100
| 47> H   -0.9590141700  -4.4548261300   0.5867333600
| 48> C    0.6405085500  -1.3939913400   0.1183559500
| 49> H    1.1737087500  -3.4820037400  -0.2543261700
| 50> H    0.8919633800  -3.0753070000   1.4392779200
| 51> C   -0.3336284700  -0.6574130700   1.0909188100
| 52> H   -0.0176775800  -0.9830052200   2.0997961200
| 53> C    0.0478123600   0.8121199300   0.9516085300
| 54> H   -9.0125934900   0.2093106300  -0.8995504000
| 55> C    1.5864082100   0.7692484700   0.7899535100
| 56> H   -0.2711635800   1.4071357200   1.8140675500
| 57> H   -0.4222450200   1.2518467100   0.0646423300
| 58> C    1.9823094100  -0.7166715600   0.5197516100
| 59> H    2.0908154400   1.1486351000   1.6827285700
| 60> H    1.9152516600   1.4033289300  -0.0423154900
| 61> H    2.2799258400  -1.1828311900   1.4722533500
| 62> C    3.1666591700  -0.8244739600  -0.4512469200
| 63> C    0.2783462200  -1.0934845300  -1.3428504200
| 64> H   -0.7819755100  -1.2840461900  -1.5348531300
| 65> H    0.8619616800  -1.7196546400  -2.0261579900
| 66> H    0.4729294000  -0.0480413300  -1.6029598800
| 67> H    2.8722589600  -0.3237758100  -1.3871428000
| 68> C    3.5620117500  -2.2694815300  -0.8079185200
| 69> C    4.4109429300  -0.1183517100   0.0415944500
| 70> C    4.7360094500   0.1733729300   1.3006624700
| 71> H    5.1381264000   0.1165852900  -0.7410683900
| 72> H    4.0431737500  -0.0708807200   2.1074994400
| 73> C    6.0275330100   0.8161727200   1.7228817700
| 74> C    6.7988226000  -0.1135375200   2.6710600100
| 75> C    5.8161184900   2.2248309300   2.3410417700
| 76> H    6.6404080600   0.9627943100   0.8207387300
| 77> H    6.8166847500   2.5805065000   2.6320859200
| 78> C    4.9378135000   2.2167320100   3.5949526800
| 79> C    5.2515845300   3.1985856400   1.3054888300
| 80> H    7.0754211800  -1.0399890300   2.1568811000
| 81> H    6.1955371200  -0.3882571900   3.5433337200
| 82> H    7.7160031700   0.3680920300   3.0303695200
| 83> H    4.8937492600   3.2206247000   4.0315753000
| 84> H    5.3180044300   1.5362237200   4.3634623900
| 85> H    3.9108751300   1.9187936700   3.3527963600
| 86> H    4.2459087900   2.8912653100   0.9942094300
| 87> H    5.8822006900   3.2377472600   0.4096035300
| 88> H    5.1834151500   4.2111021800   1.7189519600
| 89> H    4.4955248300  -2.2775197500  -1.3817640700
| 90> H    2.7981436100  -2.7680947000  -1.4102935900
| 91> H    3.7240355300  -2.8556980800   0.1042409500
| 92> *
| 93> %eprnmr
| 94>  Nuclei = all C { shift }
| 95>  origin giao
| 96>  giao_2el giao_2el_same_as_scf
| 97>  giao_1el giao_1el_analytic
| 98> end
| 99> 
|100>                          ****END OF INPUT****
================================================================================

                       ****************************
                       * Single Point Calculation *
                       ****************************

---------------------------------
CARTESIAN COORDINATES (ANGSTROEM)
---------------------------------
  C     -5.166706    0.271309    0.223150
  C     -6.555452   -0.229816   -0.097381
  C     -7.124611    0.436263   -1.356002
  H     -7.234357    0.015715    0.736918
  H     -6.555517   -1.318645   -0.218450
  C     -5.043398    1.744408    0.245407
  C     -5.658632    2.443494   -0.945738
  C     -7.087903    1.953763   -1.215274
  H     -5.043852    2.226077   -1.832426
  H     -5.644166    3.528342   -0.796846
  H     -7.483512    2.419107   -2.125770
  H     -7.742011    2.245806   -0.379817
  O     -8.446105   -0.040726   -1.641744
  H     -6.522198    0.135712   -2.224684
  C     -4.144505   -0.593760    0.424728
  C     -4.478016    2.419589    1.252795
  H     -4.064475    1.906530    2.116514
  H     -4.427269    3.505804    1.238773
  C     -2.758907   -0.248735    0.641897
  H     -4.394519   -1.652734    0.375365
  C     -1.754395   -1.103994    0.930278
  H     -2.510982    0.806438    0.550923
  C     -1.898254   -2.588816    1.151065
  C     -0.911037   -3.399821    0.290162
  H     -2.919623   -2.936765    0.973310
  H     -1.674957   -2.792286    2.210784
  C      0.533646   -2.896795    0.414196
  H     -1.229417   -3.356945   -0.759037
  H     -0.959014   -4.454826    0.586733
  C      0.640509   -1.393991    0.118356
  H      1.173709   -3.482004   -0.254326
  H      0.891963   -3.075307    1.439278
  C     -0.333628   -0.657413    1.090919
  H     -0.017678   -0.983005    2.099796
  C      0.047812    0.812120    0.951609
  H     -9.012593    0.209311   -0.899550
  C      1.586408    0.769248    0.789954
  H     -0.271164    1.407136    1.814068
  H     -0.422245    1.251847    0.064642
  C      1.982309   -0.716672    0.519752
  H      2.090815    1.148635    1.682729
  H      1.915252    1.403329   -0.042315
  H      2.279926   -1.182831    1.472253
  C      3.166659   -0.824474   -0.451247
  C      0.278346   -1.093485   -1.342850
  H     -0.781976   -1.284046   -1.534853
  H      0.861962   -1.719655   -2.026158
  H      0.472929   -0.048041   -1.602960
  H      2.872259   -0.323776   -1.387143
  C      3.562012   -2.269482   -0.807919
  C      4.410943   -0.118352    0.041594
  C      4.736009    0.173373    1.300662
  H      5.138126    0.116585   -0.741068
  H      4.043174   -0.070881    2.107499
  C      6.027533    0.816173    1.722882
  C      6.798823   -0.113538    2.671060
  C      5.816118    2.224831    2.341042
  H      6.640408    0.962794    0.820739
  H      6.816685    2.580506    2.632086
  C      4.937813    2.216732    3.594953
  C      5.251585    3.198586    1.305489
  H      7.075421   -1.039989    2.156881
  H      6.195537   -0.388257    3.543334
  H      7.716003    0.368092    3.030370
  H      4.893749    3.220625    4.031575
  H      5.318004    1.536224    4.363462
  H      3.910875    1.918794    3.352796
  H      4.245909    2.891265    0.994209
  H      5.882201    3.237747    0.409604
  H      5.183415    4.211102    1.718952
  H      4.495525   -2.277520   -1.381764
  H      2.798144   -2.768095   -1.410294
  H      3.724036   -2.855698    0.104241

----------------------------
CARTESIAN COORDINATES (A.U.)
----------------------------
  NO LB      ZA    FRAG     MASS         X           Y           Z
   0 C     6.0000    0    12.011   -9.763660    0.512699    0.421693
   1 C     6.0000    0    12.011  -12.388010   -0.434288   -0.184024
   2 C     6.0000    0    12.011  -13.463563    0.824417   -2.562473
   3 H     1.0000    0     1.008  -13.670953    0.029696    1.392574
   4 H     1.0000    0     1.008  -12.388132   -2.491877   -0.412810
   5 C     6.0000    0    12.011   -9.530641    3.296453    0.463751
   6 C     6.0000    0    12.011  -10.693265    4.617534   -1.787185
   7 C     6.0000    0    12.011  -13.394196    3.692077   -2.296535
   8 H     1.0000    0     1.008   -9.531499    4.206676   -3.462784
   9 H     1.0000    0     1.008  -10.665929    6.667601   -1.505822
  10 H     1.0000    0     1.008  -14.141789    4.571451   -4.017124
  11 H     1.0000    0     1.008  -14.630281    4.243958   -0.717749
  12 O     8.0000    0    15.999  -15.960826   -0.076961   -3.102447
  13 H     1.0000    0     1.008  -12.325167    0.256458   -4.204043
  14 C     6.0000    0    12.011   -7.831979   -1.122043    0.802620
  15 C     6.0000    0    12.011   -8.462224    4.572360    2.367439
  16 H     1.0000    0     1.008   -7.680745    3.602820    3.999632
  17 H     1.0000    0     1.008   -8.366325    6.625009    2.340942
  18 C     6.0000    0    12.011   -5.213578   -0.470041    1.213009
  19 H     1.0000    0     1.008   -8.304437   -3.123214    0.709338
  20 C     6.0000    0    12.011   -3.315326   -2.086247    1.757971
  21 H     1.0000    0     1.008   -4.745069    1.523946    1.041094
  22 C     6.0000    0    12.011   -3.587180   -4.892152    2.175198
  23 C     6.0000    0    12.011   -1.721611   -6.424730    0.548327
  24 H     1.0000    0     1.008   -5.517287   -5.549682    1.839289
  25 H     1.0000    0     1.008   -3.165209   -5.276655    4.177776
  26 C     6.0000    0    12.011    1.008444   -5.474149    0.782717
  27 H     1.0000    0     1.008   -2.323262   -6.343707   -1.434371
  28 H     1.0000    0     1.008   -1.812274   -8.418401    1.108765
  29 C     6.0000    0    12.011    1.210386   -2.634262    0.223660
  30 H     1.0000    0     1.008    2.217988   -6.580033   -0.480607
  31 H     1.0000    0     1.008    1.685567   -5.811488    2.719841
  32 C     6.0000    0    12.011   -0.630466   -1.242331    2.061538
  33 H     1.0000    0     1.008   -0.033406   -1.857611    3.968040
  34 C     6.0000    0    12.011    0.090352    1.534684    1.798280
  35 H     1.0000    0     1.008  -17.031333    0.395540   -1.699904
  36 C     6.0000    0    12.011    2.997877    1.453669    1.492796
  37 H     1.0000    0     1.008   -0.512425    2.659101    3.428091
  38 H     1.0000    0     1.008   -0.797927    2.365647    0.122156
  39 C     6.0000    0    12.011    3.746022   -1.354313    0.982188
  40 H     1.0000    0     1.008    3.951069    2.170606    3.179896
  41 H     1.0000    0     1.008    3.619301    2.651907   -0.079965
  42 H     1.0000    0     1.008    4.308435   -2.235227    2.782156
  43 C     6.0000    0    12.011    5.984119   -1.558030   -0.852733
  44 C     6.0000    0    12.011    0.525998   -2.066386   -2.537620
  45 H     1.0000    0     1.008   -1.477720   -2.426496   -2.900452
  46 H     1.0000    0     1.008    1.628872   -3.249676   -3.828884
  47 H     1.0000    0     1.008    0.893707   -0.090785   -3.029155
  48 H     1.0000    0     1.008    5.427783   -0.611848   -2.621320
  49 C     6.0000    0    12.011    6.731227   -4.288699   -1.526745
  50 C     6.0000    0    12.011    8.335474   -0.223652    0.078602
  51 C     6.0000    0    12.011    8.949761    0.327627    2.457896
  52 H     1.0000    0     1.008    9.709652    0.220314   -1.400416
  53 H     1.0000    0     1.008    7.640491   -0.133945    3.982597
  54 C     6.0000    0    12.011   11.390387    1.542343    3.255775
  55 C     6.0000    0    12.011   12.847913   -0.214555    5.047572
  56 C     6.0000    0    12.011   10.990871    4.204321    4.423928
  57 H     1.0000    0     1.008   12.548553    1.819418    1.550971
  58 H     1.0000    0     1.008   12.881667    4.876451    4.973922
  59 C     6.0000    0    12.011    9.331115    4.189016    6.793476
  60 C     6.0000    0    12.011    9.924057    6.044451    2.467016
  61 H     1.0000    0     1.008   13.370608   -1.965294    4.075915
  62 H     1.0000    0     1.008   11.707868   -0.733700    6.695930
  63 H     1.0000    0     1.008   14.581133    0.695593    5.726568
  64 H     1.0000    0     1.008    9.247846    6.086099    7.618573
  65 H     1.0000    0     1.008   10.049572    2.903042    8.245749
  66 H     1.0000    0     1.008    7.390483    3.625995    6.335867
  67 H     1.0000    0     1.008    8.023605    5.463700    1.878784
  68 H     1.0000    0     1.008   11.115748    6.118456    0.774038
  69 H     1.0000    0     1.008    9.795235    7.957830    3.248348
  70 H     1.0000    0     1.008    8.495311   -4.303889   -2.611156
  71 H     1.0000    0     1.008    5.287725   -5.230941   -2.665069
  72 H     1.0000    0     1.008    7.037407   -5.396487    0.196987

--------------------------------
INTERNAL COORDINATES (ANGSTROEM)
--------------------------------
 C      0   0   0     0.000000000000     0.00000000     0.00000000
 C      1   0   0     1.510788808150     0.00000000     0.00000000
 C      2   1   0     1.533534310040   111.79078857     0.00000000
 H      2   1   3     1.103291732550   109.35283226   241.45694895
 H      2   1   3     1.095539389758   110.68106783   122.91575715
 C      1   2   3     1.478418470924   114.22779690    50.21899310
 C      6   1   2     1.511971793521   114.51335479   312.26854567
 C      3   2   1     1.524453778573   110.34420344   305.12798318
 H      7   6   1     1.100655106859   108.42384688   289.87648077
 H      7   6   1     1.095113748043   110.21524802   172.67026945
 H      8   3   2     1.096382660287   109.70329596   179.19596341
 H      8   3   2     1.100516159764   108.65852082   296.64816442
 O      3   2   1     1.433706747646   111.17169819   180.46043313
 H      3   2   1     1.099017807608   109.05665028    65.30630921
 C      1   2   3     1.354205707217   120.90064991   232.12662164
 C      6   1   2     1.338042287313   123.32341999   130.02789184
 H     16   6   1     1.086395728005   121.40644776     0.64670010
 H     16   6   1     1.087490301780   120.93212488   181.34541738
 C     15   1   2     1.444328840794   126.43593882   175.26223345
 H     15   1   2     1.089205791702   116.17164469   357.97924306
 C     19  15   1     1.350435886994   126.47095200   175.30822985
 H     19  15   1     1.087718541905   115.96496747   354.61299139
 C     21  19  15     1.508023975575   125.72406867   356.72198170
 C     23  21  19     1.540610556712   112.04751835   128.80345483
 H     23  21  19     1.093553811331   112.24619340     4.59714328
 H     23  21  19     1.101937149888   107.65437574   247.50659796
 C     24  23  21     1.534772879496   112.67392151    50.38030020
 H     24  23  21     1.097279277603   109.13660565   288.22382160
 H     24  23  21     1.096946984258   109.09799541   172.27305824
 C     27  24  23     1.535369288621   111.76153677   306.18122202
 H     27  24  23     1.095021712058   109.00866692   182.61248054
 H     27  24  23     1.100477715102   109.18397744    66.09377953
 C     21  19  15     1.497937750872   122.65707395   177.73474320
 H     33  21  19     1.106195570262   106.31756375   123.16466740
 C     33  21  19     1.524608703567   120.98821832     0.81511045
 H     13   3   2     0.966581007969   107.52402854    62.61031375
 C     35  33  21     1.547658714708   103.38942001   195.34456400
 H     35  33  21     1.095273939171   112.26051850    73.53577182
 H     35  33  21     1.095911776323   110.69482135   313.88624676
 C     30  27  24     1.555734587950   115.87765076   166.81851594
 H     37  35  33     1.093347235080   111.32997587   251.26612055
 H     37  35  33     1.096753268845   111.18161675   132.93990901
 H     40  30  27     1.101426304730   105.77822505   321.83641029
 C     40  30  27     1.535299272689   118.13725570    82.83218600
 C     30  27  24     1.535118872223   111.01354637   295.10087760
 H     45  30  27     1.094285592530   111.19345171    67.45397962
 H     45  30  27     1.095264920934   110.86775026   307.41862248
 H     45  30  27     1.094747016231   111.78741496   187.31174485
 H     44  40  30     1.101485914237   107.41396166    62.15739643
 C     44  40  30     1.539988691555   114.23028452   303.20676817
 C     44  40  30     1.513189784306   113.30177947   179.51945966
 C     51  44  40     1.332675424473   127.62065555    23.68364972
 H     51  44  40     1.093870336981   114.44576989   199.82328490
 H     52  51  44     1.091176909988   119.65019577   357.53453325
 C     52  51  44     1.503161273234   124.64987805   176.66675401
 C     55  52  51     1.535672731025   110.24725402   240.79839818
 C     55  52  51     1.552783255148   112.50590679   115.22191460
 H     55  52  51     1.100443447973   107.77179539   358.31319128
 H     57  55  52     1.101065233760   105.93521612   178.59889589
 C     57  55  52     1.530940174592   113.53895059    60.42723181
 C     57  55  52     1.529466154834   110.99488979   295.56506540
 H     56  55  52     1.095079506852   110.43445900    63.12133396
 H     56  55  52     1.095575507494   111.52029777   303.65267714
 H     56  55  52     1.096490102735   110.88660044   183.19079002
 H     60  57  55     1.095619232479   110.15920709   175.29200353
 H     60  57  55     1.094643252561   112.27506700    55.28444032
 H     60  57  55     1.096361871617   110.97176630   294.12280132
 H     61  57  55     1.096687897316   110.62442400    65.05164199
 H     61  57  55     1.096275897979   111.32922546   305.22063201
 H     61  57  55     1.095804986306   110.84043828   184.82138172
 H     50  44  40     1.095814764806   110.29594198   188.21441168
 H     50  44  40     1.093144708427   112.10019285    68.26229353
 H     50  44  40     1.096328622034   110.30214748   307.19741389

---------------------------
INTERNAL COORDINATES (A.U.)
---------------------------
 C      0   0   0     0.000000000000     0.00000000     0.00000000
 C      1   0   0     2.854977093596     0.00000000     0.00000000
 C      2   1   0     2.897959862947   111.79078857     0.00000000
 H      2   1   3     2.084919220338   109.35283226   241.45694895
 H      2   1   3     2.070269415567   110.68106783   122.91575715
 C      1   2   3     2.793806021377   114.22779690    50.21899310
 C      6   1   2     2.857212611969   114.51335479   312.26854567
 C      3   2   1     2.880800145323   110.34420344   305.12798318
 H      7   6   1     2.079936719866   108.42384688   289.87648077
 H      7   6   1     2.069465069293   110.21524802   172.67026945
 H      8   3   2     2.071862965922   109.70329596   179.19596341
 H      8   3   2     2.079674147908   108.65852082   296.64816442
 O      3   2   1     2.709313109405   111.17169819   180.46043313
 H      3   2   1     2.076842672682   109.05665028    65.30630921
 C      1   2   3     2.559077915634   120.90064991   232.12662164
 C      6   1   2     2.528533478627   123.32341999   130.02789184
 H     16   6   1     2.052990398991   121.40644776     0.64670010
 H     16   6   1     2.055058843660   120.93212488   181.34541738
 C     15   1   2     2.729385956425   126.43593882   175.26223345
 H     15   1   2     2.058300649799   116.17164469   357.97924306
 C     19  15   1     2.551953987838   126.47095200   175.30822985
 H     19  15   1     2.055490154989   115.96496747   354.61299139
 C     21  19  15     2.849752317225   125.72406867   356.72198170
 C     23  21  19     2.911332031214   112.04751835   128.80345483
 H     23  21  19     2.066517216122   112.24619340     4.59714328
 H     23  21  19     2.082359430083   107.65437574   247.50659796
 C     24  23  21     2.900300420017   112.67392151    50.38030020
 H     24  23  21     2.073557327097   109.13660565   288.22382160
 H     24  23  21     2.072929383679   109.09799541   172.27305824
 C     27  24  23     2.901427469928   111.76153677   306.18122202
 H     27  24  23     2.069291146487   109.00866692   182.61248054
 H     27  24  23     2.079601498026   109.18397744    66.09377953
 C     21  19  15     2.830692114810   122.65707395   177.73474320
 H     33  21  19     2.090406678351   106.31756375   123.16466740
 C     33  21  19     2.881092911135   120.98821832     0.81511045
 H     13   3   2     1.826573391311   107.52402854    62.61031375
 C     35  33  21     2.924651119574   103.38942001   195.34456400
 H     35  33  21     2.069767786655   112.26051850    73.53577182
 H     35  33  21     2.070973124190   110.69482135   313.88624676
 C     30  27  24     2.939912308294   115.87765076   166.81851594
 H     37  35  33     2.066126843581   111.32997587   251.26612055
 H     37  35  33     2.072563314600   111.18161675   132.93990901
 H     40  30  27     2.081394072636   105.77822505   321.83641029
 C     40  30  27     2.901295158991   118.13725570    82.83218600
 C     30  27  24     2.900954251516   111.01354637   295.10087760
 H     45  30  27     2.067900082178   111.19345171    67.45397962
 H     45  30  27     2.069750744655   110.86775026   307.41862248
 H     45  30  27     2.068772046604   111.78741496   187.31174485
 H     44  40  30     2.081506718280   107.41396166    62.15739643
 C     44  40  30     2.910156876374   114.23028452   303.20676817
 C     44  40  30     2.859514280986   113.30177947   179.51945966
 C     51  44  40     2.518391577662   127.62065555    23.68364972
 H     51  44  40     2.067115362914   114.44576989   199.82328490
 H     52  51  44     2.062025523536   119.65019577   357.53453325
 C     52  51  44     2.840563141529   124.64987805   176.66675401
 C     55  52  51     2.902000892968   110.24725402   240.79839818
 C     55  52  51     2.934335097568   112.50590679   115.22191460
 H     55  52  51     2.079536742537   107.77179539   358.31319128
 H     57  55  52     2.080711747388   105.93521612   178.59889589
 C     57  55  52     2.893057657397   113.53895059    60.42723181
 C     57  55  52     2.890272163738   110.99488979   295.56506540
 H     56  55  52     2.069400362821   110.43445900    63.12133396
 H     56  55  52     2.070337668196   111.52029777   303.65267714
 H     56  55  52     2.072066002724   110.88660044   183.19079002
 H     60  57  55     2.070420296442   110.15920709   175.29200353
 H     60  57  55     2.068575961685   112.27506700    55.28444032
 H     60  57  55     2.071823681030   110.97176630   294.12280132
 H     61  57  55     2.072439780314   110.62442400    65.05164199
 H     61  57  55     2.071661214399   111.32922546   305.22063201
 H     61  57  55     2.070771320303   110.84043828   184.82138172
 H     50  44  40     2.070789798991   110.29594198   188.21441168
 H     50  44  40     2.065744123672   112.10019285    68.26229353
 H     50  44  40     2.071760848423   110.30214748   307.19741389

---------------------
BASIS SET INFORMATION
---------------------
There are 3 groups of distinct atoms

 Group   1 Type C   : 7s4p1d contracted to 3s2p1d pattern {511/31/1}
 Group   2 Type H   : 4s1p contracted to 2s1p pattern {31/1}
 Group   3 Type O   : 7s4p1d contracted to 3s2p1d pattern {511/31/1}

Atom   0C    basis set group =>   1
Atom   1C    basis set group =>   1
Atom   2C    basis set group =>   1
Atom   3H    basis set group =>   2
Atom   4H    basis set group =>   2
Atom   5C    basis set group =>   1
Atom   6C    basis set group =>   1
Atom   7C    basis set group =>   1
Atom   8H    basis set group =>   2
Atom   9H    basis set group =>   2
Atom  10H    basis set group =>   2
Atom  11H    basis set group =>   2
Atom  12O    basis set group =>   3
Atom  13H    basis set group =>   2
Atom  14C    basis set group =>   1
Atom  15C    basis set group =>   1
Atom  16H    basis set group =>   2
Atom  17H    basis set group =>   2
Atom  18C    basis set group =>   1
Atom  19H    basis set group =>   2
Atom  20C    basis set group =>   1
Atom  21H    basis set group =>   2
Atom  22C    basis set group =>   1
Atom  23C    basis set group =>   1
Atom  24H    basis set group =>   2
Atom  25H    basis set group =>   2
Atom  26C    basis set group =>   1
Atom  27H    basis set group =>   2
Atom  28H    basis set group =>   2
Atom  29C    basis set group =>   1
Atom  30H    basis set group =>   2
Atom  31H    basis set group =>   2
Atom  32C    basis set group =>   1
Atom  33H    basis set group =>   2
Atom  34C    basis set group =>   1
Atom  35H    basis set group =>   2
Atom  36C    basis set group =>   1
Atom  37H    basis set group =>   2
Atom  38H    basis set group =>   2
Atom  39C    basis set group =>   1
Atom  40H    basis set group =>   2
Atom  41H    basis set group =>   2
Atom  42H    basis set group =>   2
Atom  43C    basis set group =>   1
Atom  44C    basis set group =>   1
Atom  45H    basis set group =>   2
Atom  46H    basis set group =>   2
Atom  47H    basis set group =>   2
Atom  48H    basis set group =>   2
Atom  49C    basis set group =>   1
Atom  50C    basis set group =>   1
Atom  51C    basis set group =>   1
Atom  52H    basis set group =>   2
Atom  53H    basis set group =>   2
Atom  54C    basis set group =>   1
Atom  55C    basis set group =>   1
Atom  56C    basis set group =>   1
Atom  57H    basis set group =>   2
Atom  58H    basis set group =>   2
Atom  59C    basis set group =>   1
Atom  60C    basis set group =>   1
Atom  61H    basis set group =>   2
Atom  62H    basis set group =>   2
Atom  63H    basis set group =>   2
Atom  64H    basis set group =>   2
Atom  65H    basis set group =>   2
Atom  66H    basis set group =>   2
Atom  67H    basis set group =>   2
Atom  68H    basis set group =>   2
Atom  69H    basis set group =>   2
Atom  70H    basis set group =>   2
Atom  71H    basis set group =>   2
Atom  72H    basis set group =>   2

-------------------------
BASIS SET IN INPUT FORMAT
-------------------------

 # Basis set for element : H 
 NewGTO H 
 S 3 
   1      13.0107010000      0.0334854848
   2       1.9622572000      0.2347218709
   3       0.4445379600      0.8137702853
 S 1 
   1       0.1219496200      1.0000000000
 P 1 
   1       0.8000000000      1.0000000000
  end;

 # Basis set for element : C 
 NewGTO C 
 S 5 
   1    1238.4016938000      0.0055173650
   2     186.2900499200      0.0410888285
   3      42.2511763460      0.1822538213
   4      11.6765579320      0.4682845944
   5       3.5930506482      0.4457581734
 S 1 
   1       0.4024514736      1.0000000000
 S 1 
   1       0.1309018267      1.0000000000
 P 3 
   1       9.4680970621      0.0568883320
   2       2.0103545142      0.3129405934
   3       0.5477100471      0.7606501651
 P 1 
   1       0.1526861379      1.0000000000
 D 1 
   1       0.8000000000      1.0000000000
  end;

 # Basis set for element : O 
 NewGTO O 
 S 5 
   1    2266.1767785000     -0.0053893504
   2     340.8701019100     -0.0402347214
   3      77.3631351670     -0.1800818421
   4      21.4796449400     -0.4682885766
   5       6.6589433124     -0.4469261716
 S 1 
   1       0.8097597567      1.0000000000
 S 1 
   1       0.2553077223      1.0000000000
 P 3 
   1      17.7215043170      0.0626302488
   2       3.8635505440      0.3333113849
   3       1.0480920883      0.7414863830
 P 1 
   1       0.2764154441      1.0000000000
 D 1 
   1       1.2000000000      1.0000000000
  end;

---------------------------------
AUXILIARY/J BASIS SET INFORMATION
---------------------------------
There are 3 groups of distinct atoms

 Group   1 Type C   : 12s5p4d2f1g contracted to 6s4p3d1f1g pattern {711111/2111/211/2/1}
 Group   2 Type H   : 5s2p1d contracted to 3s1p1d pattern {311/2/1}
 Group   3 Type O   : 12s5p4d2f1g contracted to 6s4p3d1f1g pattern {711111/2111/211/2/1}

Atom   0C    basis set group =>   1
Atom   1C    basis set group =>   1
Atom   2C    basis set group =>   1
Atom   3H    basis set group =>   2
Atom   4H    basis set group =>   2
Atom   5C    basis set group =>   1
Atom   6C    basis set group =>   1
Atom   7C    basis set group =>   1
Atom   8H    basis set group =>   2
Atom   9H    basis set group =>   2
Atom  10H    basis set group =>   2
Atom  11H    basis set group =>   2
Atom  12O    basis set group =>   3
Atom  13H    basis set group =>   2
Atom  14C    basis set group =>   1
Atom  15C    basis set group =>   1
Atom  16H    basis set group =>   2
Atom  17H    basis set group =>   2
Atom  18C    basis set group =>   1
Atom  19H    basis set group =>   2
Atom  20C    basis set group =>   1
Atom  21H    basis set group =>   2
Atom  22C    basis set group =>   1
Atom  23C    basis set group =>   1
Atom  24H    basis set group =>   2
Atom  25H    basis set group =>   2
Atom  26C    basis set group =>   1
Atom  27H    basis set group =>   2
Atom  28H    basis set group =>   2
Atom  29C    basis set group =>   1
Atom  30H    basis set group =>   2
Atom  31H    basis set group =>   2
Atom  32C    basis set group =>   1
Atom  33H    basis set group =>   2
Atom  34C    basis set group =>   1
Atom  35H    basis set group =>   2
Atom  36C    basis set group =>   1
Atom  37H    basis set group =>   2
Atom  38H    basis set group =>   2
Atom  39C    basis set group =>   1
Atom  40H    basis set group =>   2
Atom  41H    basis set group =>   2
Atom  42H    basis set group =>   2
Atom  43C    basis set group =>   1
Atom  44C    basis set group =>   1
Atom  45H    basis set group =>   2
Atom  46H    basis set group =>   2
Atom  47H    basis set group =>   2
Atom  48H    basis set group =>   2
Atom  49C    basis set group =>   1
Atom  50C    basis set group =>   1
Atom  51C    basis set group =>   1
Atom  52H    basis set group =>   2
Atom  53H    basis set group =>   2
Atom  54C    basis set group =>   1
Atom  55C    basis set group =>   1
Atom  56C    basis set group =>   1
Atom  57H    basis set group =>   2
Atom  58H    basis set group =>   2
Atom  59C    basis set group =>   1
Atom  60C    basis set group =>   1
Atom  61H    basis set group =>   2
Atom  62H    basis set group =>   2
Atom  63H    basis set group =>   2
Atom  64H    basis set group =>   2
Atom  65H    basis set group =>   2
Atom  66H    basis set group =>   2
Atom  67H    basis set group =>   2
Atom  68H    basis set group =>   2
Atom  69H    basis set group =>   2
Atom  70H    basis set group =>   2
Atom  71H    basis set group =>   2
Atom  72H    basis set group =>   2

-------------------------------------
AUXILIARY/J BASIS SET IN INPUT FORMAT
-------------------------------------

 # Auxiliary/J basis set for element : H 
 NewAuxJGTO H 
 S 3 
   1      15.6752927000      0.1007184237
   2       3.6063578000      0.3404257499
   3       1.2080016000      0.6491996172
 S 1 
   1       0.4726794000      1.0000000000
 S 1 
   1       0.2018100000      1.0000000000
 P 2 
   1       2.0281365000      0.5596620919
   2       0.5358730000      0.5596620919
 D 1 
   1       2.2165124000      1.0000000000
  end;

 # Auxiliary/J basis set for element : C 
 NewAuxJGTO C 
 S 7 
   1    1861.0916331000      0.0134602335
   2     642.9939764000      0.0299160374
   3     235.1105725000      0.1008649584
   4      90.7028894000      0.2370970548
   5      36.7794552000      0.3924037254
   6      15.6046273000      0.3195862154
   7       6.8907294000      0.0530104441
 S 1 
   1       3.1478850000     -1.0000000000
 S 1 
   1       1.4777287000      1.0000000000
 S 1 
   1       0.7076466000      1.0000000000
 S 1 
   1       0.3430122000      1.0000000000
 S 1 
   1       0.1669453000      1.0000000000
 P 2 
   1      13.5472892000     -0.6769313712
   2       5.4669419000     -0.3779500978
 P 1 
   1       2.1751721000      1.0000000000
 P 1 
   1       0.8582194000      1.0000000000
 P 1 
   1       0.3376720000      1.0000000000
 D 2 
   1       5.9287253000     -0.3533329857
   2       1.9809209000     -0.7456525731
 D 1 
   1       0.8055417000     -1.0000000000
 D 1 
   1       0.3531244000     -1.0000000000
 F 2 
   1       1.6755626000      0.6311076882
   2       0.5997536000      0.4968166032
 G 1 
   1       1.0024600000     -1.0000000000
  end;

 # Auxiliary/J basis set for element : O 
 NewAuxJGTO O 
 S 7 
   1    2876.8216605000      0.0168151159
   2    1004.7443032000      0.0340137548
   3     369.7579954000      0.1194951309
   4     142.9442404000      0.2664627624
   5      57.8366425000      0.4202764046
   6      24.3864983000      0.2765077335
   7      10.6622662000      0.0057008815
 S 1 
   1       4.8070437000     -1.0000000000
 S 1 
   1       2.2210770000      1.0000000000
 S 1 
   1       1.0447795000      1.0000000000
 S 1 
   1       0.4968425000      1.0000000000
 S 1 
   1       0.2371384000      1.0000000000
 P 2 
   1      64.2613382000     -0.2731534179
   2      16.3006076000     -0.8168011598
 P 1 
   1       4.3550542000      1.0000000000
 P 1 
   1       1.2019554000      1.0000000000
 P 1 
   1       0.3354196000      1.0000000000
 D 2 
   1       9.2146611000     -0.4661230638
   2       2.8435251000     -0.6600908911
 D 1 
   1       0.9955759000     -1.0000000000
 D 1 
   1       0.3649441000     -1.0000000000
 F 2 
   1       2.6420115000      0.5931563945
   2       0.7345613000      0.5931563945
 G 1 
   1       1.3931000000     -1.0000000000
  end;


Checking for AutoStart:
The File: inpS.gbw exists
Trying to determine its content:
     ... Fine, the file contains calculation information
     ... Fine, the calculation information was read
     ... Fine, the file contains a basis set
     ... Fine, the basis set was read
     ... Fine, the file contains a geometry
     ... Fine, the geometry was read
     ... Fine, the file contains a set of orbitals
     ... Fine, the orbitals can be read
     => possible old guess file was deleted
     => GBW file was renamed to GES file
     => GES file is set as startup file
     => Guess is set to MORead
     ... now leaving AutoStart



           ************************************************************
           *        Program running with 4 parallel MPI-processes     *
           *              working on a common directory               *
           ************************************************************
------------------------------------------------------------------------------
                             ORCA STARTUP CALCULATIONS
                           -- RI-GTO INTEGRALS CHOSEN --
------------------------------------------------------------------------------
------------------------------------------------------------------------------
                   ___                                                        
                  /   \      - P O W E R E D   B Y -                         
                 /     \                                                     
                 |  |  |   _    _      __       _____    __    __             
                 |  |  |  | |  | |    /  \     |  _  \  |  |  /  |          
                  \  \/   | |  | |   /    \    | | | |  |  | /  /          
                 / \  \   | |__| |  /  /\  \   | |_| |  |  |/  /          
                |  |  |   |  __  | /  /__\  \  |    /   |      \           
                |  |  |   | |  | | |   __   |  |    \   |  |\   \          
                \     /   | |  | | |  |  |  |  | |\  \  |  | \   \       
                 \___/    |_|  |_| |__|  |__|  |_| \__\ |__|  \__/        
                                                                              
                      - O R C A' S   B I G   F R I E N D -                    
                                      &                                       
                       - I N T E G R A L  F E E D E R -                       
                                                                              
 v1 FN, 2020, v2 2021, v3 2022-2024                                           
------------------------------------------------------------------------------


----------------------
SHARK INTEGRAL PACKAGE
----------------------

Number of atoms                             ...     73
Number of basis functions                   ...    626
Number of shells                            ...    306
Maximum angular momentum                    ...      2
Integral batch strategy                     ... SHARK/LIBINT Hybrid
RI-J (if used) integral strategy            ... SPLIT-RIJ (Revised 2003 algorithm where possible)
Printlevel                                  ...      1
Contraction scheme used                     ... SEGMENTED contraction
Prescreening option                         ... SCHWARTZ
   Thresh                                   ... 3.000e-11
   Tcut                                     ... 1.000e-12
   Tpresel                                  ... 1.000e-12 
Coulomb Range Separation                    ... NOT USED
Exchange Range Separation                   ... Long Range
   Mu parameter                             ... 3.000e-01
   Scaling (regular/separated)              ... 1.670e-01 8.330e-01
Multipole approximations                    ... NOT USED
Finite Nucleus Model                        ... NOT USED
CABS basis                                  ... NOT available
Auxiliary Coulomb fitting basis             ... AVAILABLE
   # of basis functions in Aux-J            ...   1905
   # of shells in Aux-J                     ...    655
   Maximum angular momentum in Aux-J        ...      4
Auxiliary J/K fitting basis                 ... NOT available
Auxiliary Correlation fitting basis         ... NOT available
Auxiliary 'external' fitting basis          ... NOT available

Checking pre-screening integrals            ... done (  0.0 sec) Dimension = 306
Check shell pair data                       ... done (  0.0 sec)
Shell pair information
Shell pair cut-off parameter TPreSel        ...   1.0e-12
Total number of shell pairs                 ...     46971
Shell pairs after pre-screening             ...     28002
Total number of primitive shell pairs       ...    162105
Primitive shell pairs kept                  ...     61630
          la=0 lb=0:   9841 shell pairs
          la=1 lb=0:  10734 shell pairs
          la=1 lb=1:   2962 shell pairs
          la=2 lb=0:   2778 shell pairs
          la=2 lb=1:   1489 shell pairs
          la=2 lb=2:    198 shell pairs

Calculating one electron integrals          ... done (  0.1 sec)
Calculating RI/J V-Matrix + Cholesky decomp.... done (  0.2 sec)
Calculating Nuclear repulsion               ... done (  0.0 sec) ENN=   2796.163202587098 Eh

Diagonalization of the overlap matrix:
Smallest eigenvalue                        ... 4.362e-04
Time for diagonalization                   ...    0.047 sec
Threshold for overlap eigenvalues          ... 1.000e-07
Number of eigenvalues below threshold      ... 0
Time for construction of square roots      ...    0.026 sec
Total time needed                          ...    0.076 sec

-------------------
DFT GRID GENERATION
-------------------

General Integration Accuracy     IntAcc      ... 4.388
Radial Grid Type                 RadialGrid  ... OptM3 with GC (2021)
Angular Grid (max. ang.)         AngularGrid ... 4 (Lebedev-302)
Angular grid pruning method      GridPruning ... 4 (adaptive)
Weight generation scheme         WeightScheme... mBecke (2022)
Basis function cutoff            BFCut       ... 1.0000e-11
Integration weight cutoff        WCut        ... 1.0000e-14
Partially contracted basis set               ... off
Rotationally invariant grid construction     ... off
Angular grids for H and He will be reduced by one unit

Total number of grid points                  ...   309758
Total number of batches                      ...     4876
Average number of points per batch           ...       63
Average number of grid points per atom       ...     4243

--------------------
COSX GRID GENERATION
--------------------

GRIDX 1
-------
General Integration Accuracy     IntAcc      ... 3.816
Radial Grid Type                 RadialGrid  ... OptM3 with GC (2021)
Angular Grid (max. ang.)         AngularGrid ... 1 (Lebedev-50)
Angular grid pruning method      GridPruning ... 4 (adaptive)
Weight generation scheme         WeightScheme... mBecke (2022)
Basis function cutoff            BFCut       ... 1.0000e-11
Integration weight cutoff        WCut        ... 1.0000e-14
Partially contracted basis set               ... on
Rotationally invariant grid construction     ... off
Angular grids for H and He will be reduced by one unit

Total number of grid points                  ...    39384
Total number of batches                      ...      352
Average number of points per batch           ...      111
Average number of grid points per atom       ...      540
UseSFitting                                  ... on

GRIDX 2
-------
General Integration Accuracy     IntAcc      ... 4.020
Radial Grid Type                 RadialGrid  ... OptM3 with GC (2021)
Angular Grid (max. ang.)         AngularGrid ... 2 (Lebedev-110)
Angular grid pruning method      GridPruning ... 4 (adaptive)
Weight generation scheme         WeightScheme... mBecke (2022)
Basis function cutoff            BFCut       ... 1.0000e-11
Integration weight cutoff        WCut        ... 1.0000e-14
Partially contracted basis set               ... on
Rotationally invariant grid construction     ... off
Angular grids for H and He will be reduced by one unit

Total number of grid points                  ...    81353
Total number of batches                      ...      674
Average number of points per batch           ...      120
Average number of grid points per atom       ...     1114
UseSFitting                                  ... on

GRIDX 3
-------
General Integration Accuracy     IntAcc      ... 4.338
Radial Grid Type                 RadialGrid  ... OptM3 with GC (2021)
Angular Grid (max. ang.)         AngularGrid ... 3 (Lebedev-194)
Angular grid pruning method      GridPruning ... 4 (adaptive)
Weight generation scheme         WeightScheme... mBecke (2022)
Basis function cutoff            BFCut       ... 1.0000e-11
Integration weight cutoff        WCut        ... 1.0000e-14
Partially contracted basis set               ... on
Rotationally invariant grid construction     ... off
Angular grids for H and He will be reduced by one unit

Total number of grid points                  ...   176168
Total number of batches                      ...     1416
Average number of points per batch           ...      124
Average number of grid points per atom       ...     2413
UseSFitting                                  ... on
Initializing property integral containers    ... done (  0.0 sec)

SHARK setup successfully completed in   4.6 seconds

Maximum memory used throughout the entire STARTUP-calculation: 96.0 MB


           ************************************************************
           *        Program running with 4 parallel MPI-processes     *
           *              working on a common directory               *
           ************************************************************
-------------------------------------------------------------------------------
                                 ORCA GUESS
                   Start orbitals & Density for SCF / CASSCF
-------------------------------------------------------------------------------

------------
SCF SETTINGS
------------
Hamiltonian:
 Density Functional     Method          .... DFT(GTOs)
 Exchange Functional    Exchange        .... WB97X-V
 Correlation Functional Correlation     .... WB97X-V
 Gradients option       PostSCFGGA      .... off
 Hybrid DFT is turned on
   Fraction HF Exchange ScalHFX         ....  0.167000
   Scaling of DF-GGA-X  ScalDFX         ....  0.000000
   Scaling of DF-GGA-C  ScalDFC         ....  1.000000
   Scaling of DF-LDA-C  ScalLDAC        ....  1.000000
   Perturbative correction              ....  0.000000
 Long-range corrected/Screened/Range-Separated Hybrid DFT is turned on
   Amount of maximum screened exact exchange              ....  0.833000
   Range separation parameter mu (erf(mu*r12)/r12)        ....  0.300000
 RI-approximation to the Coulomb term is turned on
   Number of AuxJ basis functions       .... 1905
   RIJ-COSX (HFX calculated with COS-X)).... on


General Settings:
 Integral files         IntName         .... inpS
 Hartree-Fock type      HFTyp           .... RHF
 Total Charge           Charge          ....    0
 Multiplicity           Mult            ....    1
 Number of Electrons    NEL             ....  220
 Basis Dimension        Dim             ....  626
 Nuclear Repulsion      ENuc            ....   2796.1632025871 Eh

Convergence Acceleration:
 AO-DIIS                CNVDIIS         .... on
   Start iteration      DIISMaxIt       ....    12
   Startup error        DIISStart       ....  0.200000
   # of expansion vecs  DIISMaxEq       ....     5
   Bias factor          DIISBfac        ....   1.050
   Max. coefficient     DIISMaxC        ....  10.000
 MO-DIIS                CNVKDIIS        .... off
 Trust-Rad. Augm. Hess. CNVTRAH         .... auto
   Auto Start mean grad. ratio tolernc. ....  1.125000
   Auto Start start iteration           ....     1
   Auto Start num. interpolation iter.  ....    10
   Max. Number of Micro iterations      ....    24
   Max. Number of Macro iterations      .... Maxiter - #DIIS iter
   Number of Davidson start vectors     ....     2
   Converg. threshold    (grad. norm)   ....   1.000e-04
   Grad. Scal. Fac. for Micro threshold ....   0.100
   Minimum threshold for Micro iter.    ....   1.000e-02
   NR start threshold (gradient norm)   ....   1.000e-04
   Initial trust radius                 ....   0.400
   Minimum AH scaling param. (alpha)    ....   1.000
   Maximum AH scaling param. (alpha)    .... 1000.000
   Quad. conv. algorithm                .... NR
   White noise on init. David. guess    .... on
   Maximum white noise                  ....   0.010
   Pseudo random numbers                .... off
   Inactive MOs                         .... canonical
   Orbital update algorithm             .... Taylor
   Preconditioner                       .... Diag
   Full preconditioner red. dimension   ....   250
 SOSCF                  CNVSOSCF        .... off
 Level Shifting         CNVShift        .... on
   Level shift para.    LevelShift      ....    0.2500
   Turn off err/grad.   ShiftErr        ....    0.0010
 Zerner damping         CNVZerner       .... off
 Static damping         CNVDamp         .... on
   Fraction old density DampFac         ....    0.7000
   Max. Damping (<1)    DampMax         ....    0.9800
   Min. Damping (>=0)   DampMin         ....    0.0000
   Turn off err/grad.   DampErr         ....    0.1000

SCF Procedure:
 Maximum # iterations   MaxIter         ....   125
 SCF integral mode      SCFMode         .... Direct
   Integral package                     .... SHARK and LIBINT hybrid scheme
 Reset frequency        DirectResetFreq ....    20
 Integral Threshold     Thresh          ....  3.000e-11 Eh
 Primitive CutOff       TCut            ....  1.000e-12 Eh

Convergence Tolerance:
 Convergence Check Mode ConvCheckMode   .... Total+1el-Energy
 Convergence forced     ConvForced      .... 0
 Energy Change          TolE            ....  1.000e-07 Eh
 1-El. energy change                    ....  1.000e-04 Eh
 DIIS Error             TolErr          ....  1.000e-07

---------------------
INITIAL GUESS: MOREAD
---------------------
Guess MOs are being read from file: inpS.ges
Input Geometry matches current geometry (good)
Input basis set matches current basis set (good)
Occupation numbers will be reassigned to an Aufbau configuration
MOs were renormalized
MOs were reorthogonalized (Cholesky)
                      ------------------
                      INITIAL GUESS DONE (   0.2 sec)
                      ------------------
             **** ENERGY FILE WAS UPDATED (inpS.en.tmp) ****
Finished Guess after   0.3 sec
Maximum memory used throughout the entire GUESS-calculation: 52.9 MB


           ************************************************************
           *        Program running with 4 parallel MPI-processes     *
           *              working on a common directory               *
           ************************************************************

-------------------------------------------------------------------------------------------
                                      ORCA LEAN-SCF
                              memory conserving SCF solver
-------------------------------------------------------------------------------------------

--------------------
CPCM SOLVATION MODEL
--------------------
CPCM parameters:
  Epsilon                                         ...       4.8030
  Refrac                                          ...       1.4459
  Rsolv                                           ...       1.3000
  Surface type                                    ... GAUSSIAN VDW
  Discretization scheme                           ... Constant charge density
    Threshold for H atoms                         ...       5.0000 (charges/Ang^2)
    Threshold for non-H atoms                     ...       5.0000 (charges/Ang^2)
  Epsilon function type                           ...         CPCM
Solvent:                                          ... CHLOROFORM
Radii:
  Scheme                                          ... Element-dependent radii
  Radius for C  used is    3.8550 Bohr (=   2.0400 Ang.)
  Radius for H  used is    2.4944 Bohr (=   1.3200 Ang.)
  Radius for O  used is    3.4469 Bohr (=   1.8240 Ang.)
Calculating surface                               ...        done! (  0.0s)
Cavity surface points                             ...         5425
Cavity Volume                                     ...    3610.9125
Cavity Surface-area                               ...    1796.4200
Calculating surface distance matrix               ...        done! (  0.2s)
Performing Cholesky decomposition & store         ...        done! (  1.0s)
Overall time for CPCM initialization              ...                 1.2s

----------------------------------------D-I-I-S--------------------------------------------
Iteration    Energy (Eh)           Delta-E    RMSDP     MaxDP     DIISErr   Damp  Time(sec)
-------------------------------------------------------------------------------------------
               ***  Starting incremental Fock matrix formation  ***
    1    -1168.3617582255910747     0.00e+00  3.13e-08  1.95e-06  6.14e-06  0.700  24.0

  HOMO= 109 E= -7.882 eV LUMO=  8.093 eV gap=  15.975 eV
    2    -1168.3617582043330003     2.13e-08  2.67e-08  1.35e-06  3.10e-06  0.700   4.8
                 **** Energy Check signals convergence ****

  HOMO= 109 E= -7.882 eV LUMO=  8.093 eV gap=  15.975 eV

               *****************************************************
               *                     SUCCESS                       *
               *           SCF CONVERGED AFTER   2 CYCLES          *
               *****************************************************

Recomputing exchange energy using gridx3       ... done (   41.616 sec)
Old exchange energy                            :    -56.782556968 Eh
New exchange energy                            :    -56.782422521 Eh
Exchange energy change after final integration :      0.000134447 Eh
Total energy after final integration           :  -1168.361623757 Eh
             **** ENERGY FILE WAS UPDATED (inpS.en.tmp) ****

----------------
TOTAL SCF ENERGY
----------------

Total Energy       :      -1168.36162375727645 Eh          -31792.73609 eV

Components:
Nuclear Repulsion  :       2796.16320258709811 Eh           76087.46895 eV
Electronic Energy  :      -3964.51431200441993 Eh         -107879.91894 eV
One Electron Energy:      -7137.61256134813448 Eh         -194224.31197 eV
Two Electron Energy:       3173.09824934371454 Eh           86344.39303 eV
CPCM Dielectric    :         -0.01064878701114 Eh              -0.28977 eV

Virial components:
Potential Energy   :      -2321.66469789447228 Eh          -63175.70822 eV
Kinetic Energy     :       1153.30307413719584 Eh           31382.97213 eV
Virial Ratio       :          2.01305688847777

DFT components:
N(Alpha)           :      110.000306152902 electrons
N(Beta)            :      110.000306152902 electrons
N(Total)           :      220.000612305804 electrons
E(X)               :     -111.768420269320 Eh       
E(C)               :       -8.951229488313 Eh       
E(XC)              :     -120.719649757632 Eh       

CPCM Solvation Model Properties:
Surface-charge          :         -0.04128568899568
Corrected charge        :         -0.00000000000000
Outlying charge corr.   :          0.00006000693984 Eh               0.00163 eV
Free-energy (cav+disp)  :  This term is not implemented in the current solvation scheme

---------------
SCF CONVERGENCE
---------------

  Last Energy change         ...   -2.1258e-08  Tolerance :   1.0000e-07
  Last MAX-Density change    ...    1.3504e-06  Tolerance :   1.0000e-05
  Last RMS-Density change    ...    2.6669e-08  Tolerance :   1.0000e-06
  Last DIIS Error            ...    3.0994e-06  Tolerance :   1.0000e-07


----------------
ORBITAL ENERGIES
----------------

  NO   OCC          E(Eh)            E(eV) 
   0   2.0000     -19.213679      -522.8308 
   1   2.0000     -10.329760      -281.0870 
   2   2.0000     -10.293418      -280.0981 
   3   2.0000     -10.290228      -280.0113 
   4   2.0000     -10.285984      -279.8958 
   5   2.0000     -10.285907      -279.8938 
   6   2.0000     -10.285090      -279.8715 
   7   2.0000     -10.283050      -279.8160 
   8   2.0000     -10.281961      -279.7864 
   9   2.0000     -10.280841      -279.7559 
  10   2.0000     -10.280706      -279.7522 
  11   2.0000     -10.280491      -279.7464 
  12   2.0000     -10.279421      -279.7173 
  13   2.0000     -10.278522      -279.6928 
  14   2.0000     -10.276736      -279.6442 
  15   2.0000     -10.276650      -279.6419 
  16   2.0000     -10.276544      -279.6390 
  17   2.0000     -10.276412      -279.6354 
  18   2.0000     -10.274480      -279.5828 
  19   2.0000     -10.271812      -279.5102 
  20   2.0000     -10.271556      -279.5033 
  21   2.0000     -10.271489      -279.5014 
  22   2.0000     -10.270787      -279.4823 
  23   2.0000     -10.270176      -279.4657 
  24   2.0000     -10.269937      -279.4592 
  25   2.0000     -10.269699      -279.4527 
  26   2.0000     -10.268038      -279.4075 
  27   2.0000     -10.266614      -279.3688 
  28   2.0000     -10.266220      -279.3581 
  29   2.0000      -1.131648       -30.7937 
  30   2.0000      -0.997910       -27.1545 
  31   2.0000      -0.979089       -26.6424 
  32   2.0000      -0.957172       -26.0460 
  33   2.0000      -0.941932       -25.6313 
  34   2.0000      -0.917070       -24.9548 
  35   2.0000      -0.910336       -24.7715 
  36   2.0000      -0.889238       -24.1974 
  37   2.0000      -0.887128       -24.1400 
  38   2.0000      -0.872117       -23.7315 
  39   2.0000      -0.852870       -23.2078 
  40   2.0000      -0.833555       -22.6822 
  41   2.0000      -0.830299       -22.5936 
  42   2.0000      -0.808277       -21.9943 
  43   2.0000      -0.799935       -21.7673 
  44   2.0000      -0.795291       -21.6410 
  45   2.0000      -0.786787       -21.4096 
  46   2.0000      -0.758853       -20.6494 
  47   2.0000      -0.751048       -20.4371 
  48   2.0000      -0.725628       -19.7453 
  49   2.0000      -0.712902       -19.3990 
  50   2.0000      -0.712298       -19.3826 
  51   2.0000      -0.702916       -19.1273 
  52   2.0000      -0.689143       -18.7525 
  53   2.0000      -0.674254       -18.3474 
  54   2.0000      -0.657659       -17.8958 
  55   2.0000      -0.633318       -17.2335 
  56   2.0000      -0.630916       -17.1681 
  57   2.0000      -0.620472       -16.8839 
  58   2.0000      -0.604918       -16.4606 
  59   2.0000      -0.599755       -16.3202 
  60   2.0000      -0.589344       -16.0369 
  61   2.0000      -0.579839       -15.7782 
  62   2.0000      -0.570461       -15.5230 
  63   2.0000      -0.566992       -15.4286 
  64   2.0000      -0.563447       -15.3322 
  65   2.0000      -0.559981       -15.2379 
  66   2.0000      -0.552393       -15.0314 
  67   2.0000      -0.551487       -15.0067 
  68   2.0000      -0.546774       -14.8785 
  69   2.0000      -0.538528       -14.6541 
  70   2.0000      -0.535841       -14.5810 
  71   2.0000      -0.531766       -14.4701 
  72   2.0000      -0.525624       -14.3029 
  73   2.0000      -0.518169       -14.1001 
  74   2.0000      -0.517727       -14.0881 
  75   2.0000      -0.513771       -13.9804 
  76   2.0000      -0.504740       -13.7347 
  77   2.0000      -0.502251       -13.6670 
  78   2.0000      -0.496632       -13.5140 
  79   2.0000      -0.491850       -13.3839 
  80   2.0000      -0.489417       -13.3177 
  81   2.0000      -0.486642       -13.2422 
  82   2.0000      -0.484125       -13.1737 
  83   2.0000      -0.479393       -13.0449 
  84   2.0000      -0.475886       -12.9495 
  85   2.0000      -0.472529       -12.8582 
  86   2.0000      -0.465597       -12.6695 
  87   2.0000      -0.461910       -12.5692 
  88   2.0000      -0.459584       -12.5059 
  89   2.0000      -0.452039       -12.3006 
  90   2.0000      -0.448821       -12.2130 
  91   2.0000      -0.443459       -12.0671 
  92   2.0000      -0.442330       -12.0364 
  93   2.0000      -0.430089       -11.7033 
  94   2.0000      -0.425889       -11.5890 
  95   2.0000      -0.423468       -11.5231 
  96   2.0000      -0.420559       -11.4440 
  97   2.0000      -0.419688       -11.4203 
  98   2.0000      -0.415457       -11.3051 
  99   2.0000      -0.413090       -11.2407 
 100   2.0000      -0.411469       -11.1966 
 101   2.0000      -0.406274       -11.0553 
 102   2.0000      -0.402766       -10.9598 
 103   2.0000      -0.399621       -10.8742 
 104   2.0000      -0.393796       -10.7157 
 105   2.0000      -0.380578       -10.3561 
 106   2.0000      -0.371732       -10.1154 
 107   2.0000      -0.357133        -9.7181 
 108   2.0000      -0.337144        -9.1741 
 109   2.0000      -0.289653        -7.8819 
 110   0.0000       0.047412         1.2901 
 111   0.0000       0.100406         2.7322 
 112   0.0000       0.106978         2.9110 
 113   0.0000       0.135967         3.6998 
 114   0.0000       0.141714         3.8562 
 115   0.0000       0.146860         3.9963 
 116   0.0000       0.151088         4.1113 
 117   0.0000       0.155771         4.2388 
 118   0.0000       0.158839         4.3222 
 119   0.0000       0.162807         4.4302 
 120   0.0000       0.169122         4.6020 
*Only the first 10 virtual orbitals were printed.

                    ********************************
                    * MULLIKEN POPULATION ANALYSIS *
                    ********************************

-----------------------
MULLIKEN ATOMIC CHARGES
-----------------------
   0 C :   -0.126833
   1 C :    0.144483
   2 C :    0.081456
   3 H :    0.016891
   4 H :    0.013107
   5 C :   -0.184482
   6 C :    0.110964
   7 C :    0.006724
   8 H :    0.029863
   9 H :    0.012221
  10 H :    0.023465
  11 H :    0.011301
  12 O :   -0.355318
  13 H :    0.014262
  14 C :   -0.024941
  15 C :   -0.044519
  16 H :    0.036422
  17 H :    0.029188
  18 C :   -0.060944
  19 H :   -0.006673
  20 C :   -0.116950
  21 H :    0.001847
  22 C :    0.115387
  23 C :   -0.001749
  24 H :    0.012431
  25 H :    0.017967
  26 C :    0.106433
  27 H :    0.012778
  28 H :    0.014708
  29 C :   -0.418815
  30 H :    0.008586
  31 H :   -0.002362
  32 C :   -0.039643
  33 H :    0.010032
  34 C :    0.114958
  35 H :    0.181695
  36 C :    0.054829
  37 H :    0.005898
  38 H :    0.014662
  39 C :   -0.036284
  40 H :    0.018182
  41 H :    0.006876
  42 H :   -0.001605
  43 C :   -0.013310
  44 C :    0.093723
  45 H :    0.023806
  46 H :    0.017126
  47 H :    0.020337
  48 H :    0.008129
  49 C :    0.054005
  50 C :   -0.077859
  51 C :   -0.060574
  52 H :    0.005418
  53 H :    0.018728
  54 C :   -0.072423
  55 C :    0.042076
  56 C :   -0.147044
  57 H :    0.004579
  58 H :    0.010201
  59 C :    0.010572
  60 C :    0.036009
  61 H :    0.018931
  62 H :    0.020195
  63 H :    0.018511
  64 H :    0.019146
  65 H :    0.019137
  66 H :    0.020404
  67 H :    0.016021
  68 H :    0.013340
  69 H :    0.017245
  70 H :    0.013406
  71 H :    0.030599
  72 H :    0.013069
Sum of atomic charges:    0.0000000

--------------------------------
MULLIKEN REDUCED ORBITAL CHARGES
--------------------------------
  0 C s       :     3.077780  s :     3.077780
      pz      :     1.002991  p :     3.006233
      px      :     0.997263
      py      :     1.005979
      dz2     :     0.003335  d :     0.042820
      dxz     :     0.007055
      dyz     :     0.005853
      dx2y2   :     0.014565
      dxy     :     0.012012

  1 C s       :     2.931990  s :     2.931990
      pz      :     0.980813  p :     2.889097
      px      :     0.940499
      py      :     0.967785
      dz2     :     0.007280  d :     0.034430
      dxz     :     0.009330
      dyz     :     0.004351
      dx2y2   :     0.008821
      dxy     :     0.004648

  2 C s       :     3.075341  s :     3.075341
      pz      :     1.039023  p :     2.772047
      px      :     0.765085
      py      :     0.967939
      dz2     :     0.012035  d :     0.071156
      dxz     :     0.016121
      dyz     :     0.008813
      dx2y2   :     0.019103
      dxy     :     0.015083

  3 H s       :     0.959910  s :     0.959910
      pz      :     0.010489  p :     0.023199
      px      :     0.007869
      py      :     0.004841

  4 H s       :     0.964097  s :     0.964097
      pz      :     0.004053  p :     0.022795
      px      :     0.003792
      py      :     0.014950

  5 C s       :     3.111920  s :     3.111920
      pz      :     1.008867  p :     3.027781
      px      :     0.975522
      py      :     1.043391
      dz2     :     0.011281  d :     0.044781
      dxz     :     0.006705
      dyz     :     0.011729
      dx2y2   :     0.008423
      dxy     :     0.006644

  6 C s       :     2.949279  s :     2.949279
      pz      :     0.973392  p :     2.904284
      px      :     0.965107
      py      :     0.965786
      dz2     :     0.007256  d :     0.035473
      dxz     :     0.009673
      dyz     :     0.004527
      dx2y2   :     0.009150
      dxy     :     0.004867

  7 C s       :     3.013044  s :     3.013044
      pz      :     0.990228  p :     2.945207
      px      :     0.991575
      py      :     0.963405
      dz2     :     0.005577  d :     0.035025
      dxz     :     0.008345
      dyz     :     0.006141
      dx2y2   :     0.009652
      dxy     :     0.005310

  8 H s       :     0.946848  s :     0.946848
      pz      :     0.011119  p :     0.023289
      px      :     0.007351
      py      :     0.004819

  9 H s       :     0.964958  s :     0.964958
      pz      :     0.004247  p :     0.022822
      px      :     0.003720
      py      :     0.014854

 10 H s       :     0.953841  s :     0.953841
      pz      :     0.011808  p :     0.022694
      px      :     0.005232
      py      :     0.005654

 11 H s       :     0.966008  s :     0.966008
      pz      :     0.010587  p :     0.022691
      px      :     0.007424
      py      :     0.004680

 12 O s       :     3.726464  s :     3.726464
      pz      :     1.555093  p :     4.616646
      px      :     1.250199
      py      :     1.811354
      dz2     :     0.002369  d :     0.012208
      dxz     :     0.003990
      dyz     :     0.001765
      dx2y2   :     0.001709
      dxy     :     0.002375

 13 H s       :     0.965517  s :     0.965517
      pz      :     0.010719  p :     0.020220
      px      :     0.005235
      py      :     0.004266

 14 C s       :     3.197656  s :     3.197656
      pz      :     0.988306  p :     2.791055
      px      :     0.892842
      py      :     0.909906
      dz2     :     0.002991  d :     0.036230
      dxz     :     0.007717
      dyz     :     0.002940
      dx2y2   :     0.012376
      dxy     :     0.010205

 15 C s       :     3.122966  s :     3.122966
      pz      :     0.971895  p :     2.895305
      px      :     1.000554
      py      :     0.922857
      dz2     :     0.007201  d :     0.026248
      dxz     :     0.004113
      dyz     :     0.006884
      dx2y2   :     0.005002
      dxy     :     0.003049

 16 H s       :     0.939029  s :     0.939029
      pz      :     0.011513  p :     0.024549
      px      :     0.006287
      py      :     0.006750

 17 H s       :     0.946189  s :     0.946189
      pz      :     0.004032  p :     0.024623
      px      :     0.004625
      py      :     0.015967

 18 C s       :     3.200904  s :     3.200904
      pz      :     1.029638  p :     2.824717
      px      :     0.881792
      py      :     0.913287
      dz2     :     0.003115  d :     0.035323
      dxz     :     0.007183
      dyz     :     0.002901
      dx2y2   :     0.012341
      dxy     :     0.009783

 19 H s       :     0.982367  s :     0.982367
      pz      :     0.004550  p :     0.024306
      px      :     0.004151
      py      :     0.015605

 20 C s       :     3.099826  s :     3.099826
      pz      :     0.957009  p :     2.973119
      px      :     0.988005
      py      :     1.028105
      dz2     :     0.004075  d :     0.044005
      dxz     :     0.007331
      dyz     :     0.006577
      dx2y2   :     0.014229
      dxy     :     0.011794

 21 H s       :     0.973663  s :     0.973663
      pz      :     0.004697  p :     0.024490
      px      :     0.004080
      py      :     0.015712

 22 C s       :     2.923828  s :     2.923828
      pz      :     1.005404  p :     2.925251
      px      :     0.975737
      py      :     0.944110
      dz2     :     0.009938  d :     0.035534
      dxz     :     0.003879
      dyz     :     0.005452
      dx2y2   :     0.009623
      dxy     :     0.006641

 23 C s       :     3.001802  s :     3.001802
      pz      :     1.007286  p :     2.963533
      px      :     0.966656
      py      :     0.989590
      dz2     :     0.009556  d :     0.036414
      dxz     :     0.007356
      dyz     :     0.003462
      dx2y2   :     0.009930
      dxy     :     0.006111

 24 H s       :     0.964327  s :     0.964327
      pz      :     0.004743  p :     0.023242
      px      :     0.013598
      py      :     0.004900

 25 H s       :     0.958713  s :     0.958713
      pz      :     0.014011  p :     0.023320
      px      :     0.004919
      py      :     0.004391

 26 C s       :     2.970640  s :     2.970640
      pz      :     0.969584  p :     2.887591
      px      :     0.976197
      py      :     0.941811
      dz2     :     0.007327  d :     0.035336
      dxz     :     0.006486
      dyz     :     0.005362
      dx2y2   :     0.008373
      dxy     :     0.007788

 27 H s       :     0.964341  s :     0.964341
      pz      :     0.013816  p :     0.022882
      px      :     0.004512
      py      :     0.004554

 28 H s       :     0.962648  s :     0.962648
      pz      :     0.005147  p :     0.022644
      px      :     0.003767
      py      :     0.013730

 29 C s       :     3.259272  s :     3.259272
      pz      :     1.049481  p :     3.108558
      px      :     1.005832
      py      :     1.053244
      dz2     :     0.012060  d :     0.050985
      dxz     :     0.010064
      dyz     :     0.009261
      dx2y2   :     0.010460
      dxy     :     0.009140

 30 H s       :     0.968399  s :     0.968399
      pz      :     0.008514  p :     0.023015
      px      :     0.007739
      py      :     0.006761

 31 H s       :     0.979838  s :     0.979838
      pz      :     0.013405  p :     0.022524
      px      :     0.005057
      py      :     0.004061

 32 C s       :     3.031312  s :     3.031312
      pz      :     0.989817  p :     2.964465
      px      :     0.947995
      py      :     1.026653
      dz2     :     0.009237  d :     0.043865
      dxz     :     0.007251
      dyz     :     0.007070
      dx2y2   :     0.011036
      dxy     :     0.009270

 33 H s       :     0.968685  s :     0.968685
      pz      :     0.012853  p :     0.021283
      px      :     0.004401
      py      :     0.004028

 34 C s       :     2.900309  s :     2.900309
      pz      :     0.986909  p :     2.949770
      px      :     0.984676
      py      :     0.978185
      dz2     :     0.005408  d :     0.034963
      dxz     :     0.006251
      dyz     :     0.008016
      dx2y2   :     0.009174
      dxy     :     0.006114

 35 H s       :     0.750181  s :     0.750181
[...]
 Total          137.629          176.360          188.960  iso=     167.650

 Orientation: 
  X           0.2921079   -0.5214762    0.8017079
  Y          -0.0104761   -0.8399630   -0.5425425
  Z           0.9563280    0.1500822   -0.2508229

 --------------
 Nucleus  39C :
 --------------

Diamagnetic contribution to the shielding tensor (ppm) : 
           265.738          4.595        -6.780
             2.348        271.086         4.205
            -6.471          1.960       254.709

Paramagnetic contribution to the shielding tensor (ppm): 
          -100.890         -5.059         7.837
             8.450       -123.710         4.225
            14.425          2.170      -126.610

Total shielding tensor (ppm): 
           164.848         -0.464         1.057
            10.798        147.376         8.430
             7.954          4.130       128.099


 Diagonalized sT*s matrix:
 
 sDSO           255.400          270.021          266.112  iso=     263.844
 sPSO          -129.383         -122.916          -98.911  iso=    -117.070
        ---------------  ---------------  ---------------
 Total          126.017          147.105          167.201  iso=     146.774

 Orientation: 
  X          -0.0707940   -0.3054861   -0.9495612
  Y          -0.2717339    0.9218524   -0.2763129
  Z           0.9597650    0.2384667   -0.1482725

 --------------
 Nucleus  43C :
 --------------

Diamagnetic contribution to the shielding tensor (ppm) : 
           259.433          0.615        -5.180
            -4.944        257.599         5.906
            -1.451          6.464       236.879

Paramagnetic contribution to the shielding tensor (ppm): 
           -90.337         -8.866        -2.485
             1.637        -96.350        -2.559
            -1.743         -7.145       -87.137

Total shielding tensor (ppm): 
           169.095         -8.251        -7.664
            -3.307        161.249         3.347
            -3.194         -0.681       149.742


 Diagonalized sT*s matrix:
 
 sDSO           236.813          254.971          262.127  iso=     251.304
 sPSO           -88.490          -96.610          -88.724  iso=     -91.275
        ---------------  ---------------  ---------------
 Total          148.323          158.361          173.403  iso=     160.029

 Orientation: 
  X           0.2624458   -0.4273749    0.8651433
  Y           0.0054654   -0.8958983   -0.4442256
  Z           0.9649313    0.1213135   -0.2327890

 --------------
 Nucleus  44C :
 --------------

Diamagnetic contribution to the shielding tensor (ppm) : 
           251.079          1.128         2.013
            -1.177        258.053        -2.999
             1.789          1.642       268.978

Paramagnetic contribution to the shielding tensor (ppm): 
           -71.967         -5.057        -1.370
            -1.829        -78.984         1.599
            -0.512         -2.923       -75.238

Total shielding tensor (ppm): 
           179.112         -3.928         0.643
            -3.005        179.069        -1.400
             1.277         -1.281       193.740


 Diagonalized sT*s matrix:
 
 sDSO           254.608          254.313          269.189  iso=     259.370
 sPSO           -78.989          -71.987          -75.213  iso=     -75.396
        ---------------  ---------------  ---------------
 Total          175.620          182.326          193.976  iso=     183.974

 Orientation: 
  X           0.7031414   -0.7053000    0.0902442
  Y           0.7108975    0.6946773   -0.1097640
  Z           0.0147259    0.1413340    0.9898524

 --------------
 Nucleus  49C :
 --------------

Diamagnetic contribution to the shielding tensor (ppm) : 
           243.588         -5.761        -2.513
           -19.633        259.404         1.228
            -3.658          5.064       239.784

Paramagnetic contribution to the shielding tensor (ppm): 
           -74.395          0.678         0.931
            18.730        -72.985         7.285
             5.108          1.140       -69.316

Total shielding tensor (ppm): 
           169.193         -5.083        -1.582
            -0.903        186.419         8.513
             1.450          6.204       170.468


 Diagonalized sT*s matrix:
 
 sDSO           239.318          241.428          262.029  iso=     247.592
 sPSO           -72.306          -72.042          -72.349  iso=     -72.232
        ---------------  ---------------  ---------------
 Total          167.012          169.386          189.681  iso=     175.360

 Orientation: 
  X           0.4880841    0.8631431   -0.1294525
  Y           0.3740353   -0.0728448    0.9245492
  Z          -0.7885883    0.4996776    0.3584004

 --------------
 Nucleus  50C :
 --------------

Diamagnetic contribution to the shielding tensor (ppm) : 
           267.181         10.802         3.458
            16.065        233.278        -0.507
             2.977          7.456       265.116

Paramagnetic contribution to the shielding tensor (ppm): 
          -261.105        -70.293        49.312
           -78.078       -109.445        13.335
            42.243         12.048      -212.602

Total shielding tensor (ppm): 
             6.076        -59.491        52.770
           -62.013        123.834        12.828
            45.220         19.503        52.514


 Diagonalized sT*s matrix:
 
 sDSO           267.534          269.233          228.809  iso=     255.192
 sPSO          -313.373         -190.694          -79.085  iso=    -194.384
        ---------------  ---------------  ---------------
 Total          -45.839           78.539          149.724  iso=      60.808

 Orientation: 
  X          -0.8492323    0.3407260    0.4033736
  Y          -0.3428535    0.2251576   -0.9120063
  Z           0.4015669    0.9128033    0.0743921

 --------------
 Nucleus  51C :
 --------------

Diamagnetic contribution to the shielding tensor (ppm) : 
           268.617         13.969         2.179
             5.365        257.730        -1.408
             7.585         -6.166       276.785

Paramagnetic contribution to the shielding tensor (ppm): 
          -253.588        -87.414        46.061
           -84.232       -128.939         0.944
            33.586          6.308      -218.304

Total shielding tensor (ppm): 
            15.029        -73.445        48.240
           -78.867        128.791        -0.464
            41.171          0.142        58.481


 Diagonalized sT*s matrix:
 
 sDSO           272.884          275.023          255.226  iso=     267.711
 sPSO          -311.298         -205.149          -84.384  iso=    -200.277
        ---------------  ---------------  ---------------
 Total          -38.415           69.874          170.842  iso=      67.434

 Orientation: 
  X           0.8596223    0.1612320    0.4848233
  Y           0.4230589    0.3074383   -0.8523513
  Z          -0.2864796    0.9378091    0.1960702

 --------------
 Nucleus  54C :
 --------------

Diamagnetic contribution to the shielding tensor (ppm) : 
           250.244         -0.199         6.212
             4.096        241.069         2.184
             6.525          2.795       244.460

Paramagnetic contribution to the shielding tensor (ppm): 
           -92.469          4.812        -6.468
            -4.975        -85.168         2.949
            -7.622          3.897       -94.707

Total shielding tensor (ppm): 
           157.775          4.614        -0.255
            -0.880        155.901         5.133
            -1.097          6.693       149.753


 Diagonalized sT*s matrix:
 
 sDSO           242.622          243.926          249.226  iso=     245.258
 sPSO           -96.663          -86.639          -89.043  iso=     -90.781
        ---------------  ---------------  ---------------
 Total          145.959          157.287          160.183  iso=     154.476

 Orientation: 
  X           0.1337994   -0.8676621   -0.4788112
  Y          -0.5209307    0.3494401   -0.7787958
  Z           0.8430474    0.3536299   -0.4052369

 --------------
 Nucleus  55C :
 --------------

Diamagnetic contribution to the shielding tensor (ppm) : 
           247.463         -2.233         6.584
           -14.638        225.062       -12.960
             8.547         -7.570       246.172

Paramagnetic contribution to the shielding tensor (ppm): 
           -67.747         -1.000         9.741
             5.839        -47.676         8.183
             9.925          1.955       -74.455

Total shielding tensor (ppm): 
           179.716         -3.233        16.325
            -8.799        177.386        -4.777
            18.472         -5.615       171.717


 Diagonalized sT*s matrix:
 
 sDSO           239.243          220.208          259.246  iso=     239.565
 sPSO           -81.383          -46.064          -62.431  iso=     -63.293
        ---------------  ---------------  ---------------
 Total          157.860          174.144          196.814  iso=     176.273

 Orientation: 
  X          -0.6171686   -0.3012979    0.7268580
  Y           0.0122924   -0.9273584   -0.3739722
  Z           0.7867349   -0.2218691    0.5760401

 --------------
 Nucleus  56C :
 --------------

Diamagnetic contribution to the shielding tensor (ppm) : 
           241.367         -3.625        -4.527
             6.979        248.881         6.019
            -8.183         -1.021       253.588

Paramagnetic contribution to the shielding tensor (ppm): 
           -79.187          1.341         8.757
            -4.595        -73.621        -3.958
            10.788          7.776       -95.943

Total shielding tensor (ppm): 
           162.180         -2.283         4.230
             2.384        175.260         2.061
             2.605          6.755       157.645


 Diagonalized sT*s matrix:
 
 sDSO           255.462          238.126          250.247  iso=     247.945
 sPSO          -100.405          -74.449          -73.897  iso=     -82.917
        ---------------  ---------------  ---------------
 Total          155.057          163.677          176.350  iso=     165.028

 Orientation: 
  X          -0.4261117    0.9022233    0.0664979
  Y          -0.1827621   -0.1578400    0.9704043
  Z           0.8860174    0.4013474    0.2321497

 --------------
 Nucleus  59C :
 --------------

Diamagnetic contribution to the shielding tensor (ppm) : 
           241.536         -0.932        -8.660
             9.619        246.720         5.649
             3.630          0.519       261.262

Paramagnetic contribution to the shielding tensor (ppm): 
           -61.997          3.717        -1.719
            -8.885        -72.018        -6.505
            -9.250         -5.808       -70.253

Total shielding tensor (ppm): 
           179.539          2.785       -10.379
             0.733        174.702        -0.856
            -5.620         -5.289       191.009


 Diagonalized sT*s matrix:
 
 sDSO           245.985          244.916          258.618  iso=     249.840
 sPSO           -71.895          -69.465          -62.907  iso=     -68.089
        ---------------  ---------------  ---------------
 Total          174.089          175.451          195.710  iso=     181.750

 Orientation: 
  X           0.1722562    0.8786011   -0.4454076
  Y          -0.9794585    0.1046496   -0.1723646
  Z          -0.1048280    0.4659491    0.8785798

 --------------
 Nucleus  60C :
 --------------

Diamagnetic contribution to the shielding tensor (ppm) : 
           242.568         -3.809         0.572
            16.490        255.984         0.511
            -3.394         -6.094       252.913

Paramagnetic contribution to the shielding tensor (ppm): 
           -78.930         -5.530         0.930
           -21.444        -77.845       -13.966
             1.434         -6.325       -70.518

Total shielding tensor (ppm): 
           163.639         -9.339         1.501
            -4.954        178.139       -13.455
            -1.960        -12.419       182.394


 Diagonalized sT*s matrix:
 
 sDSO           250.461          245.727          255.277  iso=     250.488
 sPSO           -91.311          -74.758          -61.225  iso=     -75.765
        ---------------  ---------------  ---------------
 Total          159.150          170.969          194.052  iso=     174.724

 Orientation: 
  X           0.8162768   -0.5597517    0.1427241
  Y           0.4985947    0.5579391   -0.6634058
  Z           0.2917112    0.6126843    0.7345220



--------------------------------
CHEMICAL SHIELDING SUMMARY (ppm)
--------------------------------


  Nucleus  Element    Isotropic     Anisotropy
  -------  -------  ------------   ------------
      0       C           59.642        147.997 
      1       C          151.216         30.158 
      2       C          128.919         55.245 
      5       C           51.574        179.206 
      6       C          165.047         22.978 
      7       C          161.667         22.542 
     14       C           74.661        128.459 
     15       C           82.874        121.255 
     18       C           79.251        134.015 
     20       C           52.389        174.885 
     22       C          169.456          8.829 
     23       C          174.667         12.298 
     26       C          158.644         24.443 
     29       C          154.599         16.986 
     32       C          143.134         27.847 
     34       C          174.345         23.294 
     36       C          167.650         31.966 
     39       C          146.774         30.640 
     43       C          160.029         20.061 
     44       C          183.974         15.003 
     49       C          175.360         21.481 
     50       C           60.808        133.375 
     51       C           67.434        155.113 
     54       C          154.476          8.560 
     55       C          176.273         30.813 
     56       C          165.028         16.983 
     59       C          181.750         20.940 
     60       C          174.724         28.993 


NMR shielding tensor and spin rotation calculation done in   1.1 sec 

Maximum memory used throughout the entire PROP-calculation: 52.4 MB

--------------------------------
SUGGESTED CITATIONS FOR THIS RUN
--------------------------------

Below you find a list of papers that are relevant to this ORCA run
We neither can nor want to force you to cite these papers, but we appreciate if you do
You receive ORCA, which is the product of decades of hard work by many enthusiastic individuals, for free
The only thing we kindly ask in return is that you cite our papers,
We deeply appreciate it, if you show your appreciation for ORCA by not just citing the generic ORCA reference.

Please note that relegating all ORCA citations to the supporting information does *not* help us.
SI sections are not indexed - citations you put there will not count into any citation statistics
But we need these citations in order to attract the funding resources that allow us to do what we are doing

Therefore, if you are a happy ORCA user, please consider citing a few of the papers listed below in the main body of your paper

In addition to the list printed below, the program has created the file inpS.bibtex that contains the list in bibtex format
You can import this file easily into all common literature databanks and citation aid programs


List of essential papers. We consider these as the minimum necessary citations

  1. Neese,F.
     Software update: the ORCA program system, version 5.0
     WIRES Comput. Molec. Sci., 2022 12(1)e1606
     doi.org/10.1002/wcms.1606

List of papers to cite with high priority. The work reported in these papers was absolutely
necessary for this run to complete.
Our perspective: the developers of density functionals and basis sets usually get cited in chemistry papers
Good! But without the algorithms to do something with them, the functionals or basis sets would not do anything.
Hence, in our opinion, the algorithm design and method developments papers are equally worthy of getting cited

  1. Neese,F.
     An improvement of the resolution of the identity approximation for the formation of the Coulomb matrix
     J. Comp. Chem., 2003 24(14)1740-1747
     doi.org/10.1002/jcc.10318
  2. Neese,F.; Wennmohs,F.; Hansen,A.; Becker,U.
     Efficient, approximate and parallel Hartree-Fock and hybrid DFT calculations. A 'chain-of-spheres' algorithm for the Hartree-Fock exchange
     Chem. Phys., 2009 356(1-3)98-109
     doi.org/10.1016/j.chemphys.2008.10.036
  3. Stoychev,G.L.; Auer,A.A.; Izsak,R.; Neese,F.
     Self-Consistent Field Calculation of Nuclear Magnetic Resonance Chemical Shielding Constants Using Gauge-Including Atomic Orbitals and Approximate Two-Electron Integrals
     J. Chem. Theory Comput., 2018 14(2)619-637
     doi.org/10.1021/acs.jctc.7b01006
  4. Garcia-Rates,M.; Neese,F.
     Effect of the Solute Cavity on the Solvation Energy and its Derivatives within the Framework of the Gaussian Charge Scheme
     J. Comput. Chem., 2020 41 922-939
     doi.org/10.1002/jcc.26139
  5. Helmich-Paris,B.; de Souza,B.; Neese,F.; Izsák,R.
     An improved chain of spheres for exchange algorithm
     J. Chem. Phys., 2021 155 104109
     doi.org/doi: 10.1063/5.0058766.
  6. Neese,F.
     The SHARK Integral Generation and Digestion System
     J. Comp. Chem., 2022  1-16
     doi.org/10.1002/jcc.26942
  7. Caldeweyher,E.; Bannwarth,C.; Grimme,S.
     Extension of the D3 dispersion coefficient model
     J. Chem. Phys., 2017 147 034112-XXXX
     doi.org/10.1063/1.4993215
  8. Caldeweyher,E.; Ehlert,S.; Hansen,A.; Neugebauer,H.; Spicher,S.; Bannwarth,C.; Grimme,S.
     A generally applicable atomic-charge dependent London dispersion correction
     J. Chem. Phys., 2019 150 154122-XXXX
     doi.org/10.1063/1.5090222
  9. Caldeweyher,E.; Mewes,J.; Ehlert,S.; Grimme,S.
     Extension and evaluation of the D4 London-dispersion model for periodic systems
     Phys. Chem. Chem. Phys., 2020 22(16)8499-8512
     doi.org/10.1039/D0CP00502A

List of suggested additional citations. These are papers that are important in the 'surrounding' of 
of this run, or papers that preceded the highly important papers. If you like your results we are grateful for a citation.

  1. Izsak,R.; Neese,F.
     An overlap fitted chain of spheres exchange method
     J. Chem. Phys., 2011 135 144105
     doi.org/10.1063/1.3646921
  2. Izsak,R.; Hansen,A.; Neese,F.
     The resolution of identity and chain of spheres approximations for the LPNO-CCSD singles Fock term
     Molec. Phys., 2012 110 2413-2417
     doi.org/10.1080/00268976.2012.687466
  3. Neese,F.
     The ORCA program system
     WIRES Comput. Molec. Sci., 2012 2(1)73-78
     doi.org/10.1002/wcms.81
  4. Izsak,R.; Neese,F.; Klopper,W.
     Robust fitting techniques in the chain of spheres approximation to the Fock exchange: The role of the complementary space
     J. Chem. Phys., 2013 139 
     doi.org/10.1063/1.4819264
  5. Neese,F.
     Software update: the ORCA program system, version 4.0
     WIRES Comput. Molec. Sci., 2018 8(1)1-6
     doi.org/10.1002/wcms.1327
  6. Neese,F.; Wennmohs,F.; Becker,U.; Riplinger,C.
     The ORCA quantum chemistry program package
     J. Chem. Phys., 2020 152 Art. No. L224108
     doi.org/10.1063/5.0004608

Timings for individual modules:

Sum of individual times          ...      179.746 sec (=   2.996 min)
Startup calculation              ...        4.831 sec (=   0.081 min)   2.7 %
SCF iterations                   ...       73.032 sec (=   1.217 min)  40.6 %
Property integrals               ...       61.148 sec (=   1.019 min)  34.0 %
SCF Response                     ...       39.377 sec (=   0.656 min)  21.9 %
Property calculations            ...        1.358 sec (=   0.023 min)   0.8 %
                             ****ORCA TERMINATED NORMALLY****
TOTAL RUN TIME: 0 days 0 hours 3 minutes 0 seconds 57 msec
