
                                 *****************
                                 * O   R   C   A *
                                 *****************

                                            #,                                       
                                            ###                                      
                                            ####                                     
                                            #####                                    
                                            ######                                   
                                           ########,                                 
                                     ,,################,,,,,                         
                               ,,#################################,,                 
                          ,,##########################################,,             
                       ,#########################################, ''#####,          
                    ,#############################################,,   '####,        
                  ,##################################################,,,,####,       
                ,###########''''           ''''###############################       
              ,#####''   ,,,,##########,,,,          '''####'''          '####       
            ,##' ,,,,###########################,,,                        '##       
           ' ,,###''''                  '''############,,,                           
         ,,##''                                '''############,,,,        ,,,,,,###''
      ,#''                                            '''#######################'''  
     '                                                          ''''####''''         
             ,#######,   #######,   ,#######,      ##                                
            ,#'     '#,  ##    ##  ,#'     '#,    #''#        ,####,   ,####,        
            ##       ##  ##   ,#'  ##            #'  '#       #'       #'  '#        
            ##       ##  #######   ##           ,######,      #####,   #    #        
            '#,     ,#'  ##    ##  '#,     ,#' ,#      #,     #,   #   #,  ,#        
             '#######'   ##     ##  '#######'  #'      '#     '####' # '####'        



                #########################################################
                #                        -***-                          #
                #          Department of theory and spectroscopy        #
                #                                                       #
                #                      Frank Neese                      #
                #                                                       #
                #     Directorship, Architecture, Infrastructure        #
                #                    SHARK, DRIVERS                     #
                #        Core code/Algorithms in most modules           #
                #                                                       #
                #        Max Planck Institute fuer Kohlenforschung      #
                #                Kaiser Wilhelm Platz 1                 #
                #                 D-45470 Muelheim/Ruhr                 #
                #                      Germany                          #
                #                                                       #
                #                  All rights reserved                  #
                #                        -***-                          #
                #########################################################


                         Program Version 6.0.0  -   RELEASE  -


 With contributions from (in alphabetic order):
   Daniel Aravena         : Magnetic Suceptibility
   Michael Atanasov       : Ab Initio Ligand Field Theory (pilot matlab implementation)
   Alexander A. Auer      : GIAO ZORA, VPT2 properties, NMR spectrum
   Ute Becker             : All parallelization in ORCA, NUMFREQ, NUMCALC
   Giovanni Bistoni       : ED, misc. LED, open-shell LED, HFLD
   Martin Brehm           : Molecular dynamics
   Dmytro Bykov           : pre 5.0 version of the SCF Hessian
   Marcos Casanova-Páez   : Triplet and SCS-CIS(D). UHF-(DLPNO)-IP/EA/STEOM-CCSD. UHF-CVS-IP/STEOM-CCSD
   Vijay G. Chilkuri      : MRCI spin determinant printing, contributions to CSF-ICE
   Pauline Colinet        : FMM embedding
   Dipayan Datta          : RHF DLPNO-CCSD density
   Achintya Kumar Dutta   : EOM-CC, STEOM-CC
   Nicolas Foglia         : Exact transition moments, OPA infrastructure, MCD improvements
   Dmitry Ganyushin       : Spin-Orbit,Spin-Spin,Magnetic field MRCI
   Miquel Garcia          : C-PCM and meta-GGA Hessian, CCSD/C-PCM, Gaussian charge scheme
   Tiago L. C. Gouveia    : GS-ROHF, GS-ROCIS
   Yang Guo               : DLPNO-NEVPT2, F12-NEVPT2, CIM, IAO-localization
   Andreas Hansen         : Spin unrestricted coupled pair/coupled cluster methods
   Ingolf Harden          : AUTO-CI MPn and infrastructure 
   Benjamin Helmich-Paris : MC-RPA, TRAH-(SCF,CASSCF), AVAS, COSX integrals, SCF dyn. polar.
   Lee Huntington         : MR-EOM, pCC
   Robert Izsak           : Overlap fitted RIJCOSX, COSX-SCS-MP3, EOM
   Riya Kayal             : Wick's Theorem for AUTO-CI, AUTO-CI UHF-CCSDT
   Emily Kempfer          : AUTO-CI, RHF CISDT and CCSDT
   Christian Kollmar      : KDIIS, OOCD, Brueckner-CCSD(T), CCSD density, CASPT2, CASPT2-K, improved NEVPT2
   Axel Koslowski         : Symmetry handling
   Simone Kossmann        : Meta GGA functionals, TD-DFT gradient, OOMP2, (MP2 Hessian; deprecated post 5.0)
   Lucas Lang             : DCDCAS
   Marvin Lechner         : AUTO-CI (C++ implementation), FIC-MRCC
   Spencer Leger          : CASSCF response
   Dagmar Lenk            : GEPOL surface, SMD, ORCA-2-JSON
   Dimitrios Liakos       : Extrapolation schemes; Compound Job, initial MDCI parallelization
   Dimitrios Manganas     : Further ROCIS development; embedding schemes. LFT, Crystal Embedding
   Dimitrios Pantazis     : SARC Basis sets
   Anastasios Papadopoulos: AUTO-CI, single reference methods and gradients
   Taras Petrenko         : pre 6.0 DFT Hessian and TD-DFT gradient, (ASA, deprecated), ECA, 1-Electron XAS/XES, NRVS
   Peter Pinski           : DLPNO-MP2, DLPNO-MP2 Gradient
   Christoph Reimann      : Effective Core Potentials
   Marius Retegan         : Local ZFS, SOC
   Christoph Riplinger    : Optimizer, TS searches, QM/MM, DLPNO-CCSD(T), (RO)-DLPNO pert. Triples
   Michael Roemelt        : Original ROCIS implementation
   Masaaki Saitow         : Open-shell DLPNO-CCSD energy and density
   Barbara Sandhoefer     : DKH picture change effects
   Kantharuban Sivalingam : CASSCF convergence/infrastructure, NEVPT2 and variants, FIC-MRCI
   Bernardo de Souza      : ESD, SOC TD-DFT
   Georgi Stoychev        : AutoAux, RI-MP2 NMR, DLPNO-MP2 response, X2C
   Van Anh Tran           : RI-MP2 g-tensors
   Willem Van den Heuvel  : Paramagnetic NMR
   Zikuan Wang            : NOTCH, Electric field optimization 
   Frank Wennmohs         : Technical directorship and infrastructure
   Hang Xu                : AUTO-CI-Response properties 


 We gratefully acknowledge several colleagues who have allowed us to
 interface, adapt or use parts of their codes:
   Stefan Grimme, W. Hujo, H. Kruse, P. Pracht,  : VdW corrections, initial TS optimization,
                  C. Bannwarth, S. Ehlert,         DFT functionals, gCP, sTDA/sTD-DF
                  L. Wittmann, M. Mueller
   Ed Valeev, F. Pavosevic, A. Kumar             : LibInt (2-el integral package), F12 methods
   Garnet Chan, S. Sharma, J. Yang, R. Olivares  : DMRG
   Ulf Ekstrom                                   : XCFun DFT Library
   Mihaly Kallay                                 : mrcc  (arbitrary order and MRCC methods)
   Frank Weinhold                                : gennbo (NPA and NBO analysis)
   Simon Mueller                                 : openCOSMO-RS
   Christopher J. Cramer and Donald G. Truhlar   : smd solvation model
   Lars Goerigk                                  : TD-DFT with DH, B97 family of functionals
   V. Asgeirsson, H. Jonsson                     : NEB implementation
   FAccTs GmbH                                   : IRC, NEB, NEB-TS, DLPNO-Multilevel, CI-OPT
                                                   MM, QMMM, 2- and 3-layer-ONIOM, Crystal-QMMM,
                                                   LR-CPCM, SF, NACMEs, symmetry and pop. for TD-DFT,
                                                   nearIR, NL-DFT gradient (VV10), updates on ESD,
                                                   ML-optimized integration grids, MBIS, APM,
                                                   GOAT, DOCKER, SOLVATOR, interface openCOSMO-RS
   S Lehtola, MJT Oliveira, MAL Marques          : LibXC Library
   Liviu Ungur et al                             : ANISO software


 Your calculation uses the libint2 library for the computation of 2-el integrals
 For citations please refer to: http://libint.valeyev.net

 Your ORCA version has been built with support for libXC version: 6.2.2
 For citations please refer to: https://libxc.gitlab.io

 This ORCA versions uses:
   CBLAS   interface :  Fast vector & matrix operations
   LAPACKE interface :  Fast linear algebra routines
   SCALAPACK package :  Parallel linear algebra routines
   Shared memory     :  Shared parallel matrices
   BLAS/LAPACK       :  OpenBLAS 0.3.27  USE64BITINT DYNAMIC_ARCH NO_AFFINITY Zen SINGLE_THREADED
        Core in use  :  Zen
   Copyright (c) 2011-2014, The OpenBLAS Project


NOTE: MaxCore=8000 MB was set to SCF,MP2,MDCI,CIPSI,MRCI and CIS
      => If you want to overwrite this, your respective input block should be placed after the MaxCore statement
Your calculation utilizes the atom-pairwise dispersion correction
based on EEQ partial charges (D4)


================================================================================

----- Orbital basis set information -----
Your calculation utilizes the basis: pcJ-0
   F. Jensen, Theor. Chem. Acc. 126, 371 (2010).

----- AuxJ basis set information -----
Your calculation utilizes the auxiliary basis: def2/J
   F. Weigend, Phys. Chem. Chem. Phys. 8, 1057 (2006).

================================================================================
                                        WARNINGS
                       Please study these warnings very carefully!
================================================================================

WARNING: Old DensityContainer found on disk!
         Will remove this file - 
         If you want to keep old densities, please start your calculation with a different basename. 


================================================================================
                                       INPUT FILE
================================================================================
NAME = inpJ
|  1> ! pbe0
|  2> ! D4
|  3> ! pcJ-0
|  4> ! def2/J RIJCOSX
|  5> ! DEFGRID2
|  6> ! scfconv7
|  7> ! smallprint printgap noloewdin
|  8> ! NOSOSCF
|  9> %MaxCore 8000
| 10> %output
| 11>        print[P_BondOrder_M] 1
| 12>        print[P_Mayer] 1
| 13>        print[P_basis] 2
| 14> end
| 15> %pal
| 16>     nprocs 4
| 17> end
| 18> ! CPCM(chloroform)
| 19> *xyz 0 1
| 20> C   -5.1667061200   0.2713088500   0.2231504000
| 21> C   -6.5554524800  -0.2298155700  -0.0973814800
| 22> C   -7.1246106400   0.4362625600  -1.3560023100
| 23> H   -7.2343569600   0.0157146000   0.7369184000
| 24> H   -6.5555169800  -1.3186447700  -0.2184497400
| 25> C   -5.0433980700   1.7444079500   0.2454066700
| 26> C   -5.6586322800   2.4434938800  -0.9457375000
| 27> C   -7.0879034300   1.9537629700  -1.2152741700
| 28> H   -5.0438521700   2.2260771900  -1.8324263200
| 29> H   -5.6441664900   3.5283424000  -0.7968464300
| 30> H   -7.4835123100   2.4191074800  -2.1257702100
| 31> H   -7.7420114200   2.2458060100  -0.3798165600
| 32> O   -8.4461054800  -0.0407257700  -1.6417444300
| 33> H   -6.5221975300   0.1357115100  -2.2246838700
| 34> C   -4.1445047200  -0.5937597700   0.4247283700
| 35> C   -4.4780162400   2.4195888600   1.2527950200
| 36> H   -4.0644749600   1.9065304500   2.1165139300
| 37> H   -4.4272686300   3.5058039500   1.2387730800
| 38> C   -2.7589068600  -0.2487347800   0.6418968000
| 39> H   -4.3945186900  -1.6527336000   0.3753654400
| 40> C   -1.7543949100  -1.1039943600   0.9302782800
| 41> H   -2.5109824500   0.8064376700   0.5509231000
| 42> C   -1.8982539800  -2.5888155500   1.1510653100
| 43> C   -0.9110371700  -3.3998207500   0.2901620500
| 44> H   -2.9196226300  -2.9367652200   0.9733097300
| 45> H   -1.6749566200  -2.7922856200   2.2107840000
| 46> C    0.5336455300  -2.8967946500   0.4141960400
| 47> H   -1.2294172200  -3.3569449000  -0.7590365100
| 48> H   -0.9590141700  -4.4548261300   0.5867333600
| 49> C    0.6405085500  -1.3939913400   0.1183559500
| 50> H    1.1737087500  -3.4820037400  -0.2543261700
| 51> H    0.8919633800  -3.0753070000   1.4392779200
| 52> C   -0.3336284700  -0.6574130700   1.0909188100
| 53> H   -0.0176775800  -0.9830052200   2.0997961200
| 54> C    0.0478123600   0.8121199300   0.9516085300
| 55> H   -9.0125934900   0.2093106300  -0.8995504000
| 56> C    1.5864082100   0.7692484700   0.7899535100
| 57> H   -0.2711635800   1.4071357200   1.8140675500
| 58> H   -0.4222450200   1.2518467100   0.0646423300
| 59> C    1.9823094100  -0.7166715600   0.5197516100
| 60> H    2.0908154400   1.1486351000   1.6827285700
| 61> H    1.9152516600   1.4033289300  -0.0423154900
| 62> H    2.2799258400  -1.1828311900   1.4722533500
| 63> C    3.1666591700  -0.8244739600  -0.4512469200
| 64> C    0.2783462200  -1.0934845300  -1.3428504200
| 65> H   -0.7819755100  -1.2840461900  -1.5348531300
| 66> H    0.8619616800  -1.7196546400  -2.0261579900
| 67> H    0.4729294000  -0.0480413300  -1.6029598800
| 68> H    2.8722589600  -0.3237758100  -1.3871428000
| 69> C    3.5620117500  -2.2694815300  -0.8079185200
| 70> C    4.4109429300  -0.1183517100   0.0415944500
| 71> C    4.7360094500   0.1733729300   1.3006624700
| 72> H    5.1381264000   0.1165852900  -0.7410683900
| 73> H    4.0431737500  -0.0708807200   2.1074994400
| 74> C    6.0275330100   0.8161727200   1.7228817700
| 75> C    6.7988226000  -0.1135375200   2.6710600100
| 76> C    5.8161184900   2.2248309300   2.3410417700
| 77> H    6.6404080600   0.9627943100   0.8207387300
| 78> H    6.8166847500   2.5805065000   2.6320859200
| 79> C    4.9378135000   2.2167320100   3.5949526800
| 80> C    5.2515845300   3.1985856400   1.3054888300
| 81> H    7.0754211800  -1.0399890300   2.1568811000
| 82> H    6.1955371200  -0.3882571900   3.5433337200
| 83> H    7.7160031700   0.3680920300   3.0303695200
| 84> H    4.8937492600   3.2206247000   4.0315753000
| 85> H    5.3180044300   1.5362237200   4.3634623900
| 86> H    3.9108751300   1.9187936700   3.3527963600
| 87> H    4.2459087900   2.8912653100   0.9942094300
| 88> H    5.8822006900   3.2377472600   0.4096035300
| 89> H    5.1834151500   4.2111021800   1.7189519600
| 90> H    4.4955248300  -2.2775197500  -1.3817640700
| 91> H    2.7981436100  -2.7680947000  -1.4102935900
| 92> H    3.7240355300  -2.8556980800   0.1042409500
| 93> *
| 94> %eprnmr
| 95>  Nuclei = all C { ssfc }
| 96>  SpinSpinRThresh 8.0
| 97> end
| 98> 
| 99>                          ****END OF INPUT****
================================================================================

                       ****************************
                       * Single Point Calculation *
                       ****************************

---------------------------------
CARTESIAN COORDINATES (ANGSTROEM)
---------------------------------
  C     -5.166706    0.271309    0.223150
  C     -6.555452   -0.229816   -0.097381
  C     -7.124611    0.436263   -1.356002
  H     -7.234357    0.015715    0.736918
  H     -6.555517   -1.318645   -0.218450
  C     -5.043398    1.744408    0.245407
  C     -5.658632    2.443494   -0.945738
  C     -7.087903    1.953763   -1.215274
  H     -5.043852    2.226077   -1.832426
  H     -5.644166    3.528342   -0.796846
  H     -7.483512    2.419107   -2.125770
  H     -7.742011    2.245806   -0.379817
  O     -8.446105   -0.040726   -1.641744
  H     -6.522198    0.135712   -2.224684
  C     -4.144505   -0.593760    0.424728
  C     -4.478016    2.419589    1.252795
  H     -4.064475    1.906530    2.116514
  H     -4.427269    3.505804    1.238773
  C     -2.758907   -0.248735    0.641897
  H     -4.394519   -1.652734    0.375365
  C     -1.754395   -1.103994    0.930278
  H     -2.510982    0.806438    0.550923
  C     -1.898254   -2.588816    1.151065
  C     -0.911037   -3.399821    0.290162
  H     -2.919623   -2.936765    0.973310
  H     -1.674957   -2.792286    2.210784
  C      0.533646   -2.896795    0.414196
  H     -1.229417   -3.356945   -0.759037
  H     -0.959014   -4.454826    0.586733
  C      0.640509   -1.393991    0.118356
  H      1.173709   -3.482004   -0.254326
  H      0.891963   -3.075307    1.439278
  C     -0.333628   -0.657413    1.090919
  H     -0.017678   -0.983005    2.099796
  C      0.047812    0.812120    0.951609
  H     -9.012593    0.209311   -0.899550
  C      1.586408    0.769248    0.789954
  H     -0.271164    1.407136    1.814068
  H     -0.422245    1.251847    0.064642
  C      1.982309   -0.716672    0.519752
  H      2.090815    1.148635    1.682729
  H      1.915252    1.403329   -0.042315
  H      2.279926   -1.182831    1.472253
  C      3.166659   -0.824474   -0.451247
  C      0.278346   -1.093485   -1.342850
  H     -0.781976   -1.284046   -1.534853
  H      0.861962   -1.719655   -2.026158
  H      0.472929   -0.048041   -1.602960
  H      2.872259   -0.323776   -1.387143
  C      3.562012   -2.269482   -0.807919
  C      4.410943   -0.118352    0.041594
  C      4.736009    0.173373    1.300662
  H      5.138126    0.116585   -0.741068
  H      4.043174   -0.070881    2.107499
  C      6.027533    0.816173    1.722882
  C      6.798823   -0.113538    2.671060
  C      5.816118    2.224831    2.341042
  H      6.640408    0.962794    0.820739
  H      6.816685    2.580506    2.632086
  C      4.937813    2.216732    3.594953
  C      5.251585    3.198586    1.305489
  H      7.075421   -1.039989    2.156881
  H      6.195537   -0.388257    3.543334
  H      7.716003    0.368092    3.030370
  H      4.893749    3.220625    4.031575
  H      5.318004    1.536224    4.363462
  H      3.910875    1.918794    3.352796
  H      4.245909    2.891265    0.994209
  H      5.882201    3.237747    0.409604
  H      5.183415    4.211102    1.718952
  H      4.495525   -2.277520   -1.381764
  H      2.798144   -2.768095   -1.410294
  H      3.724036   -2.855698    0.104241

----------------------------
CARTESIAN COORDINATES (A.U.)
----------------------------
  NO LB      ZA    FRAG     MASS         X           Y           Z
   0 C     6.0000    0    12.011   -9.763660    0.512699    0.421693
   1 C     6.0000    0    12.011  -12.388010   -0.434288   -0.184024
   2 C     6.0000    0    12.011  -13.463563    0.824417   -2.562473
   3 H     1.0000    0     1.008  -13.670953    0.029696    1.392574
   4 H     1.0000    0     1.008  -12.388132   -2.491877   -0.412810
   5 C     6.0000    0    12.011   -9.530641    3.296453    0.463751
   6 C     6.0000    0    12.011  -10.693265    4.617534   -1.787185
   7 C     6.0000    0    12.011  -13.394196    3.692077   -2.296535
   8 H     1.0000    0     1.008   -9.531499    4.206676   -3.462784
   9 H     1.0000    0     1.008  -10.665929    6.667601   -1.505822
  10 H     1.0000    0     1.008  -14.141789    4.571451   -4.017124
  11 H     1.0000    0     1.008  -14.630281    4.243958   -0.717749
  12 O     8.0000    0    15.999  -15.960826   -0.076961   -3.102447
  13 H     1.0000    0     1.008  -12.325167    0.256458   -4.204043
  14 C     6.0000    0    12.011   -7.831979   -1.122043    0.802620
  15 C     6.0000    0    12.011   -8.462224    4.572360    2.367439
  16 H     1.0000    0     1.008   -7.680745    3.602820    3.999632
  17 H     1.0000    0     1.008   -8.366325    6.625009    2.340942
  18 C     6.0000    0    12.011   -5.213578   -0.470041    1.213009
  19 H     1.0000    0     1.008   -8.304437   -3.123214    0.709338
  20 C     6.0000    0    12.011   -3.315326   -2.086247    1.757971
  21 H     1.0000    0     1.008   -4.745069    1.523946    1.041094
  22 C     6.0000    0    12.011   -3.587180   -4.892152    2.175198
  23 C     6.0000    0    12.011   -1.721611   -6.424730    0.548327
  24 H     1.0000    0     1.008   -5.517287   -5.549682    1.839289
  25 H     1.0000    0     1.008   -3.165209   -5.276655    4.177776
  26 C     6.0000    0    12.011    1.008444   -5.474149    0.782717
  27 H     1.0000    0     1.008   -2.323262   -6.343707   -1.434371
  28 H     1.0000    0     1.008   -1.812274   -8.418401    1.108765
  29 C     6.0000    0    12.011    1.210386   -2.634262    0.223660
  30 H     1.0000    0     1.008    2.217988   -6.580033   -0.480607
  31 H     1.0000    0     1.008    1.685567   -5.811488    2.719841
  32 C     6.0000    0    12.011   -0.630466   -1.242331    2.061538
  33 H     1.0000    0     1.008   -0.033406   -1.857611    3.968040
  34 C     6.0000    0    12.011    0.090352    1.534684    1.798280
  35 H     1.0000    0     1.008  -17.031333    0.395540   -1.699904
  36 C     6.0000    0    12.011    2.997877    1.453669    1.492796
  37 H     1.0000    0     1.008   -0.512425    2.659101    3.428091
  38 H     1.0000    0     1.008   -0.797927    2.365647    0.122156
  39 C     6.0000    0    12.011    3.746022   -1.354313    0.982188
  40 H     1.0000    0     1.008    3.951069    2.170606    3.179896
  41 H     1.0000    0     1.008    3.619301    2.651907   -0.079965
  42 H     1.0000    0     1.008    4.308435   -2.235227    2.782156
  43 C     6.0000    0    12.011    5.984119   -1.558030   -0.852733
  44 C     6.0000    0    12.011    0.525998   -2.066386   -2.537620
  45 H     1.0000    0     1.008   -1.477720   -2.426496   -2.900452
  46 H     1.0000    0     1.008    1.628872   -3.249676   -3.828884
  47 H     1.0000    0     1.008    0.893707   -0.090785   -3.029155
  48 H     1.0000    0     1.008    5.427783   -0.611848   -2.621320
  49 C     6.0000    0    12.011    6.731227   -4.288699   -1.526745
  50 C     6.0000    0    12.011    8.335474   -0.223652    0.078602
  51 C     6.0000    0    12.011    8.949761    0.327627    2.457896
  52 H     1.0000    0     1.008    9.709652    0.220314   -1.400416
  53 H     1.0000    0     1.008    7.640491   -0.133945    3.982597
  54 C     6.0000    0    12.011   11.390387    1.542343    3.255775
  55 C     6.0000    0    12.011   12.847913   -0.214555    5.047572
  56 C     6.0000    0    12.011   10.990871    4.204321    4.423928
  57 H     1.0000    0     1.008   12.548553    1.819418    1.550971
  58 H     1.0000    0     1.008   12.881667    4.876451    4.973922
  59 C     6.0000    0    12.011    9.331115    4.189016    6.793476
  60 C     6.0000    0    12.011    9.924057    6.044451    2.467016
  61 H     1.0000    0     1.008   13.370608   -1.965294    4.075915
  62 H     1.0000    0     1.008   11.707868   -0.733700    6.695930
  63 H     1.0000    0     1.008   14.581133    0.695593    5.726568
  64 H     1.0000    0     1.008    9.247846    6.086099    7.618573
  65 H     1.0000    0     1.008   10.049572    2.903042    8.245749
  66 H     1.0000    0     1.008    7.390483    3.625995    6.335867
  67 H     1.0000    0     1.008    8.023605    5.463700    1.878784
  68 H     1.0000    0     1.008   11.115748    6.118456    0.774038
  69 H     1.0000    0     1.008    9.795235    7.957830    3.248348
  70 H     1.0000    0     1.008    8.495311   -4.303889   -2.611156
  71 H     1.0000    0     1.008    5.287725   -5.230941   -2.665069
  72 H     1.0000    0     1.008    7.037407   -5.396487    0.196987

--------------------------------
INTERNAL COORDINATES (ANGSTROEM)
--------------------------------
 C      0   0   0     0.000000000000     0.00000000     0.00000000
 C      1   0   0     1.510788808150     0.00000000     0.00000000
 C      2   1   0     1.533534310040   111.79078857     0.00000000
 H      2   1   3     1.103291732550   109.35283226   241.45694895
 H      2   1   3     1.095539389758   110.68106783   122.91575715
 C      1   2   3     1.478418470924   114.22779690    50.21899310
 C      6   1   2     1.511971793521   114.51335479   312.26854567
 C      3   2   1     1.524453778573   110.34420344   305.12798318
 H      7   6   1     1.100655106859   108.42384688   289.87648077
 H      7   6   1     1.095113748043   110.21524802   172.67026945
 H      8   3   2     1.096382660287   109.70329596   179.19596341
 H      8   3   2     1.100516159764   108.65852082   296.64816442
 O      3   2   1     1.433706747646   111.17169819   180.46043313
 H      3   2   1     1.099017807608   109.05665028    65.30630921
 C      1   2   3     1.354205707217   120.90064991   232.12662164
 C      6   1   2     1.338042287313   123.32341999   130.02789184
 H     16   6   1     1.086395728005   121.40644776     0.64670010
 H     16   6   1     1.087490301780   120.93212488   181.34541738
 C     15   1   2     1.444328840794   126.43593882   175.26223345
 H     15   1   2     1.089205791702   116.17164469   357.97924306
 C     19  15   1     1.350435886994   126.47095200   175.30822985
 H     19  15   1     1.087718541905   115.96496747   354.61299139
 C     21  19  15     1.508023975575   125.72406867   356.72198170
 C     23  21  19     1.540610556712   112.04751835   128.80345483
 H     23  21  19     1.093553811331   112.24619340     4.59714328
 H     23  21  19     1.101937149888   107.65437574   247.50659796
 C     24  23  21     1.534772879496   112.67392151    50.38030020
 H     24  23  21     1.097279277603   109.13660565   288.22382160
 H     24  23  21     1.096946984258   109.09799541   172.27305824
 C     27  24  23     1.535369288621   111.76153677   306.18122202
 H     27  24  23     1.095021712058   109.00866692   182.61248054
 H     27  24  23     1.100477715102   109.18397744    66.09377953
 C     21  19  15     1.497937750872   122.65707395   177.73474320
 H     33  21  19     1.106195570262   106.31756375   123.16466740
 C     33  21  19     1.524608703567   120.98821832     0.81511045
 H     13   3   2     0.966581007969   107.52402854    62.61031375
 C     35  33  21     1.547658714708   103.38942001   195.34456400
 H     35  33  21     1.095273939171   112.26051850    73.53577182
 H     35  33  21     1.095911776323   110.69482135   313.88624676
 C     30  27  24     1.555734587950   115.87765076   166.81851594
 H     37  35  33     1.093347235080   111.32997587   251.26612055
 H     37  35  33     1.096753268845   111.18161675   132.93990901
 H     40  30  27     1.101426304730   105.77822505   321.83641029
 C     40  30  27     1.535299272689   118.13725570    82.83218600
 C     30  27  24     1.535118872223   111.01354637   295.10087760
 H     45  30  27     1.094285592530   111.19345171    67.45397962
 H     45  30  27     1.095264920934   110.86775026   307.41862248
 H     45  30  27     1.094747016231   111.78741496   187.31174485
 H     44  40  30     1.101485914237   107.41396166    62.15739643
 C     44  40  30     1.539988691555   114.23028452   303.20676817
 C     44  40  30     1.513189784306   113.30177947   179.51945966
 C     51  44  40     1.332675424473   127.62065555    23.68364972
 H     51  44  40     1.093870336981   114.44576989   199.82328490
 H     52  51  44     1.091176909988   119.65019577   357.53453325
 C     52  51  44     1.503161273234   124.64987805   176.66675401
 C     55  52  51     1.535672731025   110.24725402   240.79839818
 C     55  52  51     1.552783255148   112.50590679   115.22191460
 H     55  52  51     1.100443447973   107.77179539   358.31319128
 H     57  55  52     1.101065233760   105.93521612   178.59889589
 C     57  55  52     1.530940174592   113.53895059    60.42723181
 C     57  55  52     1.529466154834   110.99488979   295.56506540
 H     56  55  52     1.095079506852   110.43445900    63.12133396
 H     56  55  52     1.095575507494   111.52029777   303.65267714
 H     56  55  52     1.096490102735   110.88660044   183.19079002
 H     60  57  55     1.095619232479   110.15920709   175.29200353
 H     60  57  55     1.094643252561   112.27506700    55.28444032
 H     60  57  55     1.096361871617   110.97176630   294.12280132
 H     61  57  55     1.096687897316   110.62442400    65.05164199
 H     61  57  55     1.096275897979   111.32922546   305.22063201
 H     61  57  55     1.095804986306   110.84043828   184.82138172
 H     50  44  40     1.095814764806   110.29594198   188.21441168
 H     50  44  40     1.093144708427   112.10019285    68.26229353
 H     50  44  40     1.096328622034   110.30214748   307.19741389

---------------------------
INTERNAL COORDINATES (A.U.)
---------------------------
 C      0   0   0     0.000000000000     0.00000000     0.00000000
 C      1   0   0     2.854977093596     0.00000000     0.00000000
 C      2   1   0     2.897959862947   111.79078857     0.00000000
 H      2   1   3     2.084919220338   109.35283226   241.45694895
 H      2   1   3     2.070269415567   110.68106783   122.91575715
 C      1   2   3     2.793806021377   114.22779690    50.21899310
 C      6   1   2     2.857212611969   114.51335479   312.26854567
 C      3   2   1     2.880800145323   110.34420344   305.12798318
 H      7   6   1     2.079936719866   108.42384688   289.87648077
 H      7   6   1     2.069465069293   110.21524802   172.67026945
 H      8   3   2     2.071862965922   109.70329596   179.19596341
 H      8   3   2     2.079674147908   108.65852082   296.64816442
 O      3   2   1     2.709313109405   111.17169819   180.46043313
 H      3   2   1     2.076842672682   109.05665028    65.30630921
 C      1   2   3     2.559077915634   120.90064991   232.12662164
 C      6   1   2     2.528533478627   123.32341999   130.02789184
 H     16   6   1     2.052990398991   121.40644776     0.64670010
 H     16   6   1     2.055058843660   120.93212488   181.34541738
 C     15   1   2     2.729385956425   126.43593882   175.26223345
 H     15   1   2     2.058300649799   116.17164469   357.97924306
 C     19  15   1     2.551953987838   126.47095200   175.30822985
 H     19  15   1     2.055490154989   115.96496747   354.61299139
 C     21  19  15     2.849752317225   125.72406867   356.72198170
 C     23  21  19     2.911332031214   112.04751835   128.80345483
 H     23  21  19     2.066517216122   112.24619340     4.59714328
 H     23  21  19     2.082359430083   107.65437574   247.50659796
 C     24  23  21     2.900300420017   112.67392151    50.38030020
 H     24  23  21     2.073557327097   109.13660565   288.22382160
 H     24  23  21     2.072929383679   109.09799541   172.27305824
 C     27  24  23     2.901427469928   111.76153677   306.18122202
 H     27  24  23     2.069291146487   109.00866692   182.61248054
 H     27  24  23     2.079601498026   109.18397744    66.09377953
 C     21  19  15     2.830692114810   122.65707395   177.73474320
 H     33  21  19     2.090406678351   106.31756375   123.16466740
 C     33  21  19     2.881092911135   120.98821832     0.81511045
 H     13   3   2     1.826573391311   107.52402854    62.61031375
 C     35  33  21     2.924651119574   103.38942001   195.34456400
 H     35  33  21     2.069767786655   112.26051850    73.53577182
 H     35  33  21     2.070973124190   110.69482135   313.88624676
 C     30  27  24     2.939912308294   115.87765076   166.81851594
 H     37  35  33     2.066126843581   111.32997587   251.26612055
 H     37  35  33     2.072563314600   111.18161675   132.93990901
 H     40  30  27     2.081394072636   105.77822505   321.83641029
 C     40  30  27     2.901295158991   118.13725570    82.83218600
 C     30  27  24     2.900954251516   111.01354637   295.10087760
 H     45  30  27     2.067900082178   111.19345171    67.45397962
 H     45  30  27     2.069750744655   110.86775026   307.41862248
 H     45  30  27     2.068772046604   111.78741496   187.31174485
 H     44  40  30     2.081506718280   107.41396166    62.15739643
 C     44  40  30     2.910156876374   114.23028452   303.20676817
 C     44  40  30     2.859514280986   113.30177947   179.51945966
 C     51  44  40     2.518391577662   127.62065555    23.68364972
 H     51  44  40     2.067115362914   114.44576989   199.82328490
 H     52  51  44     2.062025523536   119.65019577   357.53453325
 C     52  51  44     2.840563141529   124.64987805   176.66675401
 C     55  52  51     2.902000892968   110.24725402   240.79839818
 C     55  52  51     2.934335097568   112.50590679   115.22191460
 H     55  52  51     2.079536742537   107.77179539   358.31319128
 H     57  55  52     2.080711747388   105.93521612   178.59889589
 C     57  55  52     2.893057657397   113.53895059    60.42723181
 C     57  55  52     2.890272163738   110.99488979   295.56506540
 H     56  55  52     2.069400362821   110.43445900    63.12133396
 H     56  55  52     2.070337668196   111.52029777   303.65267714
 H     56  55  52     2.072066002724   110.88660044   183.19079002
 H     60  57  55     2.070420296442   110.15920709   175.29200353
 H     60  57  55     2.068575961685   112.27506700    55.28444032
 H     60  57  55     2.071823681030   110.97176630   294.12280132
 H     61  57  55     2.072439780314   110.62442400    65.05164199
 H     61  57  55     2.071661214399   111.32922546   305.22063201
 H     61  57  55     2.070771320303   110.84043828   184.82138172
 H     50  44  40     2.070789798991   110.29594198   188.21441168
 H     50  44  40     2.065744123672   112.10019285    68.26229353
 H     50  44  40     2.071760848423   110.30214748   307.19741389

---------------------
BASIS SET INFORMATION
---------------------
There are 3 groups of distinct atoms

 Group   1 Type C   : 7s4p contracted to 4s3p pattern {4111/211}
 Group   2 Type H   : 5s contracted to 3s pattern {311}
 Group   3 Type O   : 7s4p contracted to 4s3p pattern {4111/211}

Atom   0C    basis set group =>   1
Atom   1C    basis set group =>   1
Atom   2C    basis set group =>   1
Atom   3H    basis set group =>   2
Atom   4H    basis set group =>   2
Atom   5C    basis set group =>   1
Atom   6C    basis set group =>   1
Atom   7C    basis set group =>   1
Atom   8H    basis set group =>   2
Atom   9H    basis set group =>   2
Atom  10H    basis set group =>   2
Atom  11H    basis set group =>   2
Atom  12O    basis set group =>   3
Atom  13H    basis set group =>   2
Atom  14C    basis set group =>   1
Atom  15C    basis set group =>   1
Atom  16H    basis set group =>   2
Atom  17H    basis set group =>   2
Atom  18C    basis set group =>   1
Atom  19H    basis set group =>   2
Atom  20C    basis set group =>   1
Atom  21H    basis set group =>   2
Atom  22C    basis set group =>   1
Atom  23C    basis set group =>   1
Atom  24H    basis set group =>   2
Atom  25H    basis set group =>   2
Atom  26C    basis set group =>   1
Atom  27H    basis set group =>   2
Atom  28H    basis set group =>   2
Atom  29C    basis set group =>   1
Atom  30H    basis set group =>   2
Atom  31H    basis set group =>   2
Atom  32C    basis set group =>   1
Atom  33H    basis set group =>   2
Atom  34C    basis set group =>   1
Atom  35H    basis set group =>   2
Atom  36C    basis set group =>   1
Atom  37H    basis set group =>   2
Atom  38H    basis set group =>   2
Atom  39C    basis set group =>   1
Atom  40H    basis set group =>   2
Atom  41H    basis set group =>   2
Atom  42H    basis set group =>   2
Atom  43C    basis set group =>   1
Atom  44C    basis set group =>   1
Atom  45H    basis set group =>   2
Atom  46H    basis set group =>   2
Atom  47H    basis set group =>   2
Atom  48H    basis set group =>   2
Atom  49C    basis set group =>   1
Atom  50C    basis set group =>   1
Atom  51C    basis set group =>   1
Atom  52H    basis set group =>   2
Atom  53H    basis set group =>   2
Atom  54C    basis set group =>   1
Atom  55C    basis set group =>   1
Atom  56C    basis set group =>   1
Atom  57H    basis set group =>   2
Atom  58H    basis set group =>   2
Atom  59C    basis set group =>   1
Atom  60C    basis set group =>   1
Atom  61H    basis set group =>   2
Atom  62H    basis set group =>   2
Atom  63H    basis set group =>   2
Atom  64H    basis set group =>   2
Atom  65H    basis set group =>   2
Atom  66H    basis set group =>   2
Atom  67H    basis set group =>   2
Atom  68H    basis set group =>   2
Atom  69H    basis set group =>   2
Atom  70H    basis set group =>   2
Atom  71H    basis set group =>   2
Atom  72H    basis set group =>   2

-------------------------
BASIS SET IN INPUT FORMAT
-------------------------

 # Basis set for element : H 
 NewGTO H 
 S 3 
   1    1357.7500000000      0.0012928364
   2      54.3100000000      0.0588280685
   3       4.3448000000      0.9761499708
 S 1 
   1       0.6604910000      1.0000000000
 S 1 
   1       0.1366870000      1.0000000000
  end;

 # Basis set for element : C 
 NewGTO C 
 S 4 
   1  139534.0000000000      0.0001655246
   2    5581.3600000000      0.0074486101
   3     446.5090000000      0.1285821065
   4      67.4620000000      0.9218029311
 S 1 
   1      15.0674000000      1.0000000000
 S 1 
   1       3.9387600000      1.0000000000
 S 1 
   1       0.2999150000      1.0000000000
 P 2 
   1      28.3900000000      0.0816325586
   2       4.3676900000      0.9660360576
 P 1 
   1       0.8698170000      1.0000000000
 P 1 
   1       0.1889340000      1.0000000000
  end;

 # Basis set for element : O 
 NewGTO O 
 S 4 
   1  253789.0000000000      0.0001641076
   2   10151.6000000000      0.0074010921
   3     812.1250000000      0.1277711901
   4     122.6930000000      0.9223372164
 S 1 
   1      27.5608000000      1.0000000000
 S 1 
   1       7.3172600000      1.0000000000
 S 1 
   1       0.5792400000      1.0000000000
 P 2 
   1      53.4157000000      0.0793786106
   2       8.2177900000      0.9670506337
 P 1 
   1       1.6754400000      1.0000000000
 P 1 
   1       0.3506720000      1.0000000000
  end;

---------------------------------
AUXILIARY/J BASIS SET INFORMATION
---------------------------------
There are 3 groups of distinct atoms

 Group   1 Type C   : 12s5p4d2f1g contracted to 6s4p3d1f1g pattern {711111/2111/211/2/1}
 Group   2 Type H   : 5s2p1d contracted to 3s1p1d pattern {311/2/1}
 Group   3 Type O   : 12s5p4d2f1g contracted to 6s4p3d1f1g pattern {711111/2111/211/2/1}

Atom   0C    basis set group =>   1
Atom   1C    basis set group =>   1
Atom   2C    basis set group =>   1
Atom   3H    basis set group =>   2
Atom   4H    basis set group =>   2
Atom   5C    basis set group =>   1
Atom   6C    basis set group =>   1
Atom   7C    basis set group =>   1
Atom   8H    basis set group =>   2
Atom   9H    basis set group =>   2
Atom  10H    basis set group =>   2
Atom  11H    basis set group =>   2
Atom  12O    basis set group =>   3
Atom  13H    basis set group =>   2
Atom  14C    basis set group =>   1
Atom  15C    basis set group =>   1
Atom  16H    basis set group =>   2
Atom  17H    basis set group =>   2
Atom  18C    basis set group =>   1
Atom  19H    basis set group =>   2
Atom  20C    basis set group =>   1
Atom  21H    basis set group =>   2
Atom  22C    basis set group =>   1
Atom  23C    basis set group =>   1
Atom  24H    basis set group =>   2
Atom  25H    basis set group =>   2
Atom  26C    basis set group =>   1
Atom  27H    basis set group =>   2
Atom  28H    basis set group =>   2
Atom  29C    basis set group =>   1
Atom  30H    basis set group =>   2
Atom  31H    basis set group =>   2
Atom  32C    basis set group =>   1
Atom  33H    basis set group =>   2
Atom  34C    basis set group =>   1
Atom  35H    basis set group =>   2
Atom  36C    basis set group =>   1
Atom  37H    basis set group =>   2
Atom  38H    basis set group =>   2
Atom  39C    basis set group =>   1
Atom  40H    basis set group =>   2
Atom  41H    basis set group =>   2
Atom  42H    basis set group =>   2
Atom  43C    basis set group =>   1
Atom  44C    basis set group =>   1
Atom  45H    basis set group =>   2
Atom  46H    basis set group =>   2
Atom  47H    basis set group =>   2
Atom  48H    basis set group =>   2
Atom  49C    basis set group =>   1
Atom  50C    basis set group =>   1
Atom  51C    basis set group =>   1
Atom  52H    basis set group =>   2
Atom  53H    basis set group =>   2
Atom  54C    basis set group =>   1
Atom  55C    basis set group =>   1
Atom  56C    basis set group =>   1
Atom  57H    basis set group =>   2
Atom  58H    basis set group =>   2
Atom  59C    basis set group =>   1
Atom  60C    basis set group =>   1
Atom  61H    basis set group =>   2
Atom  62H    basis set group =>   2
Atom  63H    basis set group =>   2
Atom  64H    basis set group =>   2
Atom  65H    basis set group =>   2
Atom  66H    basis set group =>   2
Atom  67H    basis set group =>   2
Atom  68H    basis set group =>   2
Atom  69H    basis set group =>   2
Atom  70H    basis set group =>   2
Atom  71H    basis set group =>   2
Atom  72H    basis set group =>   2

-------------------------------------
AUXILIARY/J BASIS SET IN INPUT FORMAT
-------------------------------------

 # Auxiliary/J basis set for element : H 
 NewAuxJGTO H 
 S 3 
   1      15.6752927000      0.1007184237
   2       3.6063578000      0.3404257499
   3       1.2080016000      0.6491996172
 S 1 
   1       0.4726794000      1.0000000000
 S 1 
   1       0.2018100000      1.0000000000
 P 2 
   1       2.0281365000      0.5596620919
   2       0.5358730000      0.5596620919
 D 1 
   1       2.2165124000      1.0000000000
  end;

 # Auxiliary/J basis set for element : C 
 NewAuxJGTO C 
 S 7 
   1    1861.0916331000      0.0134602335
   2     642.9939764000      0.0299160374
   3     235.1105725000      0.1008649584
   4      90.7028894000      0.2370970548
   5      36.7794552000      0.3924037254
   6      15.6046273000      0.3195862154
   7       6.8907294000      0.0530104441
 S 1 
   1       3.1478850000     -1.0000000000
 S 1 
   1       1.4777287000      1.0000000000
 S 1 
   1       0.7076466000      1.0000000000
 S 1 
   1       0.3430122000      1.0000000000
 S 1 
   1       0.1669453000      1.0000000000
 P 2 
   1      13.5472892000     -0.6769313712
   2       5.4669419000     -0.3779500978
 P 1 
   1       2.1751721000      1.0000000000
 P 1 
   1       0.8582194000      1.0000000000
 P 1 
   1       0.3376720000      1.0000000000
 D 2 
   1       5.9287253000     -0.3533329857
   2       1.9809209000     -0.7456525731
 D 1 
   1       0.8055417000     -1.0000000000
 D 1 
   1       0.3531244000     -1.0000000000
 F 2 
   1       1.6755626000      0.6311076882
   2       0.5997536000      0.4968166032
 G 1 
   1       1.0024600000     -1.0000000000
  end;

 # Auxiliary/J basis set for element : O 
 NewAuxJGTO O 
 S 7 
   1    2876.8216605000      0.0168151159
   2    1004.7443032000      0.0340137548
   3     369.7579954000      0.1194951309
   4     142.9442404000      0.2664627624
   5      57.8366425000      0.4202764046
   6      24.3864983000      0.2765077335
   7      10.6622662000      0.0057008815
 S 1 
   1       4.8070437000     -1.0000000000
 S 1 
   1       2.2210770000      1.0000000000
 S 1 
   1       1.0447795000      1.0000000000
 S 1 
   1       0.4968425000      1.0000000000
 S 1 
   1       0.2371384000      1.0000000000
 P 2 
   1      64.2613382000     -0.2731534179
   2      16.3006076000     -0.8168011598
 P 1 
   1       4.3550542000      1.0000000000
 P 1 
   1       1.2019554000      1.0000000000
 P 1 
   1       0.3354196000      1.0000000000
 D 2 
   1       9.2146611000     -0.4661230638
   2       2.8435251000     -0.6600908911
 D 1 
   1       0.9955759000     -1.0000000000
 D 1 
   1       0.3649441000     -1.0000000000
 F 2 
   1       2.6420115000      0.5931563945
   2       0.7345613000      0.5931563945
 G 1 
   1       1.3931000000     -1.0000000000
  end;


Checking for AutoStart:
The File: inpJ.gbw exists
Trying to determine its content:
     ... Fine, the file contains calculation information
     ... Fine, the calculation information was read
     ... Fine, the file contains a basis set
     ... Fine, the basis set was read
     ... Fine, the file contains a geometry
     ... Fine, the geometry was read
     ... Fine, the file contains a set of orbitals
     ... Fine, the orbitals can be read
     => possible old guess file was deleted
     => GBW file was renamed to GES file
     => GES file is set as startup file
     => Guess is set to MORead
     ... now leaving AutoStart



           ************************************************************
           *        Program running with 4 parallel MPI-processes     *
           *              working on a common directory               *
           ************************************************************
------------------------------------------------------------------------------
                             ORCA STARTUP CALCULATIONS
                           -- RI-GTO INTEGRALS CHOSEN --
------------------------------------------------------------------------------
------------------------------------------------------------------------------
                   ___                                                        
                  /   \      - P O W E R E D   B Y -                         
                 /     \                                                     
                 |  |  |   _    _      __       _____    __    __             
                 |  |  |  | |  | |    /  \     |  _  \  |  |  /  |          
                  \  \/   | |  | |   /    \    | | | |  |  | /  /          
                 / \  \   | |__| |  /  /\  \   | |_| |  |  |/  /          
                |  |  |   |  __  | /  /__\  \  |    /   |      \           
                |  |  |   | |  | | |   __   |  |    \   |  |\   \          
                \     /   | |  | | |  |  |  |  | |\  \  |  | \   \       
                 \___/    |_|  |_| |__|  |__|  |_| \__\ |__|  \__/        
                                                                              
                      - O R C A' S   B I G   F R I E N D -                    
                                      &                                       
                       - I N T E G R A L  F E E D E R -                       
                                                                              
 v1 FN, 2020, v2 2021, v3 2022-2024                                           
------------------------------------------------------------------------------


----------------------
SHARK INTEGRAL PACKAGE
----------------------

Number of atoms                             ...     73
Number of basis functions                   ...    509
Number of shells                            ...    335
Maximum angular momentum                    ...      1
Integral batch strategy                     ... SHARK/LIBINT Hybrid
RI-J (if used) integral strategy            ... SPLIT-RIJ (Revised 2003 algorithm where possible)
Printlevel                                  ...      1
Contraction scheme used                     ... SEGMENTED contraction
Prescreening option                         ... SCHWARTZ
   Thresh                                   ... 3.000e-11
   Tcut                                     ... 1.000e-12
   Tpresel                                  ... 1.000e-12 
Coulomb Range Separation                    ... NOT USED
Exchange Range Separation                   ... NOT USED
Multipole approximations                    ... NOT USED
Finite Nucleus Model                        ... NOT USED
CABS basis                                  ... NOT available
Auxiliary Coulomb fitting basis             ... AVAILABLE
   # of basis functions in Aux-J            ...   1905
   # of shells in Aux-J                     ...    655
   Maximum angular momentum in Aux-J        ...      4
Auxiliary J/K fitting basis                 ... NOT available
Auxiliary Correlation fitting basis         ... NOT available
Auxiliary 'external' fitting basis          ... NOT available

Checking pre-screening integrals            ... done (  0.0 sec) Dimension = 335
Check shell pair data                       ... done (  0.0 sec)
Shell pair information
Shell pair cut-off parameter TPreSel        ...   1.0e-12
Total number of shell pairs                 ...     56280
Shell pairs after pre-screening             ...     22188
Total number of primitive shell pairs       ...    145865
Primitive shell pairs kept                  ...     38085
          la=0 lb=0:  11186 shell pairs
          la=1 lb=0:   9110 shell pairs
          la=1 lb=1:   1892 shell pairs

Calculating one electron integrals          ... done (  0.0 sec)
Calculating RI/J V-Matrix + Cholesky decomp.... done (  0.2 sec)
Calculating Nuclear repulsion               ... done (  0.0 sec) ENN=   2796.163202587098 Eh

Diagonalization of the overlap matrix:
Smallest eigenvalue                        ... 7.558e-03
Time for diagonalization                   ...    0.025 sec
Threshold for overlap eigenvalues          ... 1.000e-07
Number of eigenvalues below threshold      ... 0
Time for construction of square roots      ...    0.012 sec
Total time needed                          ...    0.040 sec

-------------------
DFT GRID GENERATION
-------------------

General Integration Accuracy     IntAcc      ... 4.388
Radial Grid Type                 RadialGrid  ... OptM3 with GC (2021)
Angular Grid (max. ang.)         AngularGrid ... 4 (Lebedev-302)
Angular grid pruning method      GridPruning ... 4 (adaptive)
Weight generation scheme         WeightScheme... mBecke (2022)
Basis function cutoff            BFCut       ... 1.0000e-11
Integration weight cutoff        WCut        ... 1.0000e-14
Partially contracted basis set               ... off
Rotationally invariant grid construction     ... off
Angular grids for H and He will be reduced by one unit

Total number of grid points                  ...   309758
Total number of batches                      ...     4876
Average number of points per batch           ...       63
Average number of grid points per atom       ...     4243

--------------------
COSX GRID GENERATION
--------------------

GRIDX 1
-------
General Integration Accuracy     IntAcc      ... 3.816
Radial Grid Type                 RadialGrid  ... OptM3 with GC (2021)
Angular Grid (max. ang.)         AngularGrid ... 1 (Lebedev-50)
Angular grid pruning method      GridPruning ... 4 (adaptive)
Weight generation scheme         WeightScheme... mBecke (2022)
Basis function cutoff            BFCut       ... 1.0000e-11
Integration weight cutoff        WCut        ... 1.0000e-14
Partially contracted basis set               ... on
Rotationally invariant grid construction     ... off
Angular grids for H and He will be reduced by one unit

Total number of grid points                  ...    39384
Total number of batches                      ...      352
Average number of points per batch           ...      111
Average number of grid points per atom       ...      540
UseSFitting                                  ... on

GRIDX 2
-------
General Integration Accuracy     IntAcc      ... 4.020
Radial Grid Type                 RadialGrid  ... OptM3 with GC (2021)
Angular Grid (max. ang.)         AngularGrid ... 2 (Lebedev-110)
Angular grid pruning method      GridPruning ... 4 (adaptive)
Weight generation scheme         WeightScheme... mBecke (2022)
Basis function cutoff            BFCut       ... 1.0000e-11
Integration weight cutoff        WCut        ... 1.0000e-14
Partially contracted basis set               ... on
Rotationally invariant grid construction     ... off
Angular grids for H and He will be reduced by one unit

Total number of grid points                  ...    81353
Total number of batches                      ...      674
Average number of points per batch           ...      120
Average number of grid points per atom       ...     1114
UseSFitting                                  ... on

GRIDX 3
-------
General Integration Accuracy     IntAcc      ... 4.338
Radial Grid Type                 RadialGrid  ... OptM3 with GC (2021)
Angular Grid (max. ang.)         AngularGrid ... 3 (Lebedev-194)
Angular grid pruning method      GridPruning ... 4 (adaptive)
Weight generation scheme         WeightScheme... mBecke (2022)
Basis function cutoff            BFCut       ... 1.0000e-11
Integration weight cutoff        WCut        ... 1.0000e-14
Partially contracted basis set               ... on
Rotationally invariant grid construction     ... off
Angular grids for H and He will be reduced by one unit

Total number of grid points                  ...   176168
Total number of batches                      ...     1416
Average number of points per batch           ...      124
Average number of grid points per atom       ...     2413
UseSFitting                                  ... on
Initializing property integral containers    ... done (  0.0 sec)

SHARK setup successfully completed in   3.7 seconds

Maximum memory used throughout the entire STARTUP-calculation: 85.7 MB


           ************************************************************
           *        Program running with 4 parallel MPI-processes     *
           *              working on a common directory               *
           ************************************************************
-------------------------------------------------------------------------------
                                 ORCA GUESS
                   Start orbitals & Density for SCF / CASSCF
-------------------------------------------------------------------------------

------------
SCF SETTINGS
------------
Hamiltonian:
 Density Functional     Method          .... DFT(GTOs)
 Exchange Functional    Exchange        .... PBE
   PBE kappa parameter   XKappa         ....  0.804000
   PBE mue parameter    XMuePBE         ....  0.219520
 Correlation Functional Correlation     .... PBE
   PBE beta parameter  CBetaPBE         ....  0.066725
 LDA part of GGA corr.  LDAOpt          .... PW91-LDA
 Gradients option       PostSCFGGA      .... off
 Hybrid DFT is turned on
   Fraction HF Exchange ScalHFX         ....  0.250000
   Scaling of DF-GGA-X  ScalDFX         ....  0.750000
   Scaling of DF-GGA-C  ScalDFC         ....  1.000000
   Scaling of DF-LDA-C  ScalLDAC        ....  1.000000
   Perturbative correction              ....  0.000000
   NL short-range parameter             ....  6.900000
 RI-approximation to the Coulomb term is turned on
   Number of AuxJ basis functions       .... 1905
   RIJ-COSX (HFX calculated with COS-X)).... on


General Settings:
 Integral files         IntName         .... inpJ
 Hartree-Fock type      HFTyp           .... RHF
 Total Charge           Charge          ....    0
 Multiplicity           Mult            ....    1
 Number of Electrons    NEL             ....  220
 Basis Dimension        Dim             ....  509
 Nuclear Repulsion      ENuc            ....   2796.1632025871 Eh

Convergence Acceleration:
 AO-DIIS                CNVDIIS         .... on
   Start iteration      DIISMaxIt       ....    12
   Startup error        DIISStart       ....  0.200000
   # of expansion vecs  DIISMaxEq       ....     5
   Bias factor          DIISBfac        ....   1.050
   Max. coefficient     DIISMaxC        ....  10.000
 MO-DIIS                CNVKDIIS        .... off
 Trust-Rad. Augm. Hess. CNVTRAH         .... auto
   Auto Start mean grad. ratio tolernc. ....  1.125000
   Auto Start start iteration           ....     1
   Auto Start num. interpolation iter.  ....    10
   Max. Number of Micro iterations      ....    24
   Max. Number of Macro iterations      .... Maxiter - #DIIS iter
   Number of Davidson start vectors     ....     2
   Converg. threshold    (grad. norm)   ....   1.000e-04
   Grad. Scal. Fac. for Micro threshold ....   0.100
   Minimum threshold for Micro iter.    ....   1.000e-02
   NR start threshold (gradient norm)   ....   1.000e-04
   Initial trust radius                 ....   0.400
   Minimum AH scaling param. (alpha)    ....   1.000
   Maximum AH scaling param. (alpha)    .... 1000.000
   Quad. conv. algorithm                .... NR
   White noise on init. David. guess    .... on
   Maximum white noise                  ....   0.010
   Pseudo random numbers                .... off
   Inactive MOs                         .... canonical
   Orbital update algorithm             .... Taylor
   Preconditioner                       .... Diag
   Full preconditioner red. dimension   ....   250
 SOSCF                  CNVSOSCF        .... off
 Level Shifting         CNVShift        .... on
   Level shift para.    LevelShift      ....    0.2500
   Turn off err/grad.   ShiftErr        ....    0.0010
 Zerner damping         CNVZerner       .... off
 Static damping         CNVDamp         .... on
   Fraction old density DampFac         ....    0.7000
   Max. Damping (<1)    DampMax         ....    0.9800
   Min. Damping (>=0)   DampMin         ....    0.0000
   Turn off err/grad.   DampErr         ....    0.1000

SCF Procedure:
 Maximum # iterations   MaxIter         ....   125
 SCF integral mode      SCFMode         .... Direct
   Integral package                     .... SHARK and LIBINT hybrid scheme
 Reset frequency        DirectResetFreq ....    20
 Integral Threshold     Thresh          ....  3.000e-11 Eh
 Primitive CutOff       TCut            ....  1.000e-12 Eh

Convergence Tolerance:
 Convergence Check Mode ConvCheckMode   .... Total+1el-Energy
 Convergence forced     ConvForced      .... 0
 Energy Change          TolE            ....  1.000e-07 Eh
 1-El. energy change                    ....  1.000e-04 Eh
 DIIS Error             TolErr          ....  1.000e-07

---------------------
INITIAL GUESS: MOREAD
---------------------
Guess MOs are being read from file: inpJ.ges
Input Geometry matches current geometry (good)
Input basis set matches current basis set (good)
Occupation numbers will be reassigned to an Aufbau configuration
MOs were renormalized
MOs were reorthogonalized (Cholesky)
                      ------------------
                      INITIAL GUESS DONE (   0.1 sec)
                      ------------------
             **** ENERGY FILE WAS UPDATED (inpJ.en.tmp) ****
Finished Guess after   0.2 sec
Maximum memory used throughout the entire GUESS-calculation: 37.0 MB


           ************************************************************
           *        Program running with 4 parallel MPI-processes     *
           *              working on a common directory               *
           ************************************************************

-------------------------------------------------------------------------------------------
                                      ORCA LEAN-SCF
                              memory conserving SCF solver
-------------------------------------------------------------------------------------------

--------------------
CPCM SOLVATION MODEL
--------------------
CPCM parameters:
  Epsilon                                         ...       4.8030
  Refrac                                          ...       1.4459
  Rsolv                                           ...       1.3000
  Surface type                                    ... GAUSSIAN VDW
  Discretization scheme                           ... Constant charge density
    Threshold for H atoms                         ...       5.0000 (charges/Ang^2)
    Threshold for non-H atoms                     ...       5.0000 (charges/Ang^2)
  Epsilon function type                           ...         CPCM
Solvent:                                          ... CHLOROFORM
Radii:
  Scheme                                          ... Element-dependent radii
  Radius for C  used is    3.8550 Bohr (=   2.0400 Ang.)
  Radius for H  used is    2.4944 Bohr (=   1.3200 Ang.)
  Radius for O  used is    3.4469 Bohr (=   1.8240 Ang.)
Calculating surface                               ...        done! (  0.0s)
Cavity surface points                             ...         5425
Cavity Volume                                     ...    3610.9125
Cavity Surface-area                               ...    1796.4200
Calculating surface distance matrix               ...        done! (  0.2s)
Performing Cholesky decomposition & store         ...        done! (  1.0s)
Overall time for CPCM initialization              ...                 1.2s

----------------------------------------D-I-I-S--------------------------------------------
Iteration    Energy (Eh)           Delta-E    RMSDP     MaxDP     DIISErr   Damp  Time(sec)
-------------------------------------------------------------------------------------------
               ***  Starting incremental Fock matrix formation  ***
    1    -1165.5084332242977325     0.00e+00  4.85e-08  5.44e-06  8.24e-06  0.700   6.4

  HOMO= 109 E= -5.922 eV LUMO=  5.979 eV gap=  11.901 eV
    2    -1165.5084332415017343    -1.72e-08  3.23e-08  3.22e-06  3.83e-06  0.700   2.1
                 **** Energy Check signals convergence ****

  HOMO= 109 E= -5.922 eV LUMO=  5.979 eV gap=  11.901 eV

               *****************************************************
               *                     SUCCESS                       *
               *           SCF CONVERGED AFTER   2 CYCLES          *
               *****************************************************

Recomputing exchange energy using gridx3       ... done (    8.302 sec)
Old exchange energy                            :    -42.067224212 Eh
New exchange energy                            :    -42.067266180 Eh
Exchange energy change after final integration :     -0.000041969 Eh
Total energy after final integration           :  -1165.508475210 Eh
             **** ENERGY FILE WAS UPDATED (inpJ.en.tmp) ****

----------------
TOTAL SCF ENERGY
----------------

Total Energy       :      -1165.50847521022297 Eh          -31715.09797 eV

Components:
Nuclear Repulsion  :       2796.16320258709811 Eh           76087.46895 eV
Electronic Energy  :      -3961.65610056323430 Eh         -107802.14305 eV
One Electron Energy:      -7134.38564582380150 Eh         -194136.50313 eV
Two Electron Energy:       3172.72954526056719 Eh           86334.36008 eV
CPCM Dielectric    :         -0.01553526536555 Eh              -0.42274 eV

Virial components:
Potential Energy   :      -2322.40730019693092 Eh          -63195.91546 eV
Kinetic Energy     :       1156.89882498670795 Eh           31480.81748 eV
Virial Ratio       :          2.00744200792460

DFT components:
N(Alpha)           :      110.000375029392 electrons
N(Beta)            :      110.000375029392 electrons
N(Total)           :      220.000750058783 electrons
E(X)               :     -125.744900977015 Eh       
E(C)               :       -7.326890653802 Eh       
E(XC)              :     -133.071791630817 Eh       

CPCM Solvation Model Properties:
Surface-charge          :         -0.03289918902210
Corrected charge        :          0.00000000000000
Outlying charge corr.   :          0.00003810419503 Eh               0.00104 eV
Free-energy (cav+disp)  :  This term is not implemented in the current solvation scheme

---------------
SCF CONVERGENCE
---------------

  Last Energy change         ...    1.7204e-08  Tolerance :   1.0000e-07
  Last MAX-Density change    ...    3.2195e-06  Tolerance :   1.0000e-05
  Last RMS-Density change    ...    3.2294e-08  Tolerance :   1.0000e-06
  Last DIIS Error            ...    3.8285e-06  Tolerance :   1.0000e-07


----------------
ORBITAL ENERGIES
----------------

  NO   OCC          E(Eh)            E(eV) 
   0   2.0000     -19.215114      -522.8698 
   1   2.0000     -10.301404      -280.3154 
   2   2.0000     -10.269550      -279.4487 
   3   2.0000     -10.266881      -279.3760 
   4   2.0000     -10.261783      -279.2373 
   5   2.0000     -10.256277      -279.0875 
   6   2.0000     -10.253494      -279.0118 
   7   2.0000     -10.251680      -278.9624 
   8   2.0000     -10.249251      -278.8963 
   9   2.0000     -10.249072      -278.8914 
  10   2.0000     -10.248007      -278.8624 
  11   2.0000     -10.246179      -278.8127 
  12   2.0000     -10.245138      -278.7844 
  13   2.0000     -10.245004      -278.7807 
  14   2.0000     -10.244230      -278.7597 
  15   2.0000     -10.243901      -278.7507 
  16   2.0000     -10.243119      -278.7294 
  17   2.0000     -10.242099      -278.7017 
  18   2.0000     -10.241473      -278.6847 
  19   2.0000     -10.241164      -278.6762 
  20   2.0000     -10.239126      -278.6208 
  21   2.0000     -10.233625      -278.4711 
  22   2.0000     -10.233467      -278.4668 
  23   2.0000     -10.232561      -278.4421 
  24   2.0000     -10.227022      -278.2914 
  25   2.0000     -10.226614      -278.2803 
  26   2.0000     -10.223857      -278.2053 
  27   2.0000     -10.222071      -278.1567 
  28   2.0000     -10.220147      -278.1044 
  29   2.0000      -1.045903       -28.4605 
  30   2.0000      -0.900679       -24.5087 
  31   2.0000      -0.883671       -24.0459 
  32   2.0000      -0.859708       -23.3938 
  33   2.0000      -0.845094       -22.9962 
  34   2.0000      -0.821873       -22.3643 
  35   2.0000      -0.813643       -22.1404 
  36   2.0000      -0.794880       -21.6298 
  37   2.0000      -0.794798       -21.6275 
  38   2.0000      -0.776112       -21.1191 
  39   2.0000      -0.757529       -20.6134 
  40   2.0000      -0.739818       -20.1315 
  41   2.0000      -0.735773       -20.0214 
  42   2.0000      -0.713808       -19.4237 
  43   2.0000      -0.701936       -19.1006 
  44   2.0000      -0.699446       -19.0329 
  45   2.0000      -0.693610       -18.8741 
  46   2.0000      -0.668879       -18.2011 
  47   2.0000      -0.656679       -17.8691 
  48   2.0000      -0.632205       -17.2032 
  49   2.0000      -0.621989       -16.9252 
  50   2.0000      -0.619451       -16.8561 
  51   2.0000      -0.610154       -16.6031 
  52   2.0000      -0.596806       -16.2399 
  53   2.0000      -0.583413       -15.8755 
  54   2.0000      -0.565829       -15.3970 
  55   2.0000      -0.544064       -14.8047 
  56   2.0000      -0.538567       -14.6552 
  57   2.0000      -0.529697       -14.4138 
  58   2.0000      -0.515034       -14.0148 
  59   2.0000      -0.508053       -13.8248 
  60   2.0000      -0.498972       -13.5777 
  61   2.0000      -0.487079       -13.2541 
  62   2.0000      -0.481437       -13.1006 
  63   2.0000      -0.478041       -13.0081 
  64   2.0000      -0.475694       -12.9443 
  65   2.0000      -0.468933       -12.7603 
  66   2.0000      -0.462957       -12.5977 
  67   2.0000      -0.459951       -12.5159 
  68   2.0000      -0.456968       -12.4347 
  69   2.0000      -0.450110       -12.2481 
  70   2.0000      -0.447761       -12.1842 
  71   2.0000      -0.442031       -12.0283 
  72   2.0000      -0.435909       -11.8617 
  73   2.0000      -0.430704       -11.7200 
  74   2.0000      -0.427581       -11.6351 
  75   2.0000      -0.424626       -11.5547 
  76   2.0000      -0.416459       -11.3324 
  77   2.0000      -0.415075       -11.2948 
  78   2.0000      -0.406993       -11.0749 
  79   2.0000      -0.403517       -10.9802 
  80   2.0000      -0.401572       -10.9273 
  81   2.0000      -0.397398       -10.8137 
  82   2.0000      -0.395914       -10.7734 
  83   2.0000      -0.389882       -10.6092 
  84   2.0000      -0.387754       -10.5513 
  85   2.0000      -0.384724       -10.4689 
  86   2.0000      -0.378311       -10.2944 
  87   2.0000      -0.372650       -10.1403 
  88   2.0000      -0.368114       -10.0169 
  89   2.0000      -0.367303        -9.9948 
  90   2.0000      -0.362693        -9.8694 
  91   2.0000      -0.356217        -9.6932 
  92   2.0000      -0.355194        -9.6653 
  93   2.0000      -0.343032        -9.3344 
  94   2.0000      -0.340917        -9.2768 
  95   2.0000      -0.337961        -9.1964 
  96   2.0000      -0.336849        -9.1661 
  97   2.0000      -0.332899        -9.0586 
  98   2.0000      -0.329599        -8.9689 
  99   2.0000      -0.329047        -8.9538 
 100   2.0000      -0.325998        -8.8708 
 101   2.0000      -0.321945        -8.7606 
 102   2.0000      -0.316685        -8.6174 
 103   2.0000      -0.315159        -8.5759 
 104   2.0000      -0.311028        -8.4635 
 105   2.0000      -0.299464        -8.1488 
 106   2.0000      -0.280046        -7.6204 
 107   2.0000      -0.274857        -7.4792 
 108   2.0000      -0.256642        -6.9836 
 109   2.0000      -0.217630        -5.9220 
 110   0.0000      -0.030270        -0.8237 
 111   0.0000       0.021427         0.5830 
 112   0.0000       0.026314         0.7161 
 113   0.0000       0.079289         2.1576 
 114   0.0000       0.089483         2.4350 
 115   0.0000       0.101124         2.7517 
 116   0.0000       0.102357         2.7853 
 117   0.0000       0.107946         2.9374 
 118   0.0000       0.109624         2.9830 
 119   0.0000       0.113814         3.0970 
 120   0.0000       0.118594         3.2271 
*Only the first 10 virtual orbitals were printed.

                    ********************************
                    * MULLIKEN POPULATION ANALYSIS *
                    ********************************

-----------------------
MULLIKEN ATOMIC CHARGES
-----------------------
   0 C :    0.108046
   1 C :   -0.499975
   2 C :   -0.054912
   3 H :    0.207260
   4 H :    0.222144
   5 C :    0.135714
   6 C :   -0.475841
   7 C :   -0.451731
   8 H :    0.214154
   9 H :    0.224038
  10 H :    0.229131
  11 H :    0.204680
  12 O :   -0.487373
  13 H :    0.233919
  14 C :   -0.283495
  15 C :   -0.516472
  16 H :    0.201486
  17 H :    0.196710
  18 C :   -0.259219
  19 H :    0.217621
  20 C :    0.149512
  21 H :    0.219565
  22 C :   -0.479919
  23 C :   -0.427455
  24 H :    0.211502
  25 H :    0.206571
  26 C :   -0.396577
  27 H :    0.207986
  28 H :    0.216900
  29 C :    0.003989
  30 H :    0.222369
  31 H :    0.194196
  32 C :   -0.229176
  33 H :    0.226732
  34 C :   -0.433341
  35 H :    0.343108
  36 C :   -0.425341
  37 H :    0.206849
  38 H :    0.198342
  39 C :   -0.198025
  40 H :    0.214795
  41 H :    0.206638
  42 H :    0.209649
  43 C :   -0.241706
  44 C :   -0.629423
  45 H :    0.209489
  46 H :    0.201355
  47 H :    0.205107
  48 H :    0.220128
  49 C :   -0.619462
  50 C :   -0.179011
  51 C :   -0.184550
  52 H :    0.210150
  53 H :    0.215214
  54 C :   -0.239867
  55 C :   -0.616209
  56 C :   -0.198397
  57 H :    0.224317
  58 H :    0.218079
  59 C :   -0.624826
  60 C :   -0.608165
  61 H :    0.204052
  62 H :    0.198923
  63 H :    0.201557
  64 H :    0.203376
  65 H :    0.207367
  66 H :    0.201123
  67 H :    0.199670
  68 H :    0.197861
  69 H :    0.200864
  70 H :    0.204478
  71 H :    0.208087
  72 H :    0.195661
Sum of atomic charges:   -0.0000000

--------------------------------
MULLIKEN REDUCED ORBITAL CHARGES
--------------------------------
  0 C s       :     3.355816  s :     3.355816
      pz      :     1.009767  p :     2.536139
      px      :     0.793520
      py      :     0.732851

  1 C s       :     3.383677  s :     3.383677
      pz      :     1.012599  p :     3.116298
      px      :     0.950679
      py      :     1.153019

  2 C s       :     3.306328  s :     3.306328
      pz      :     1.055783  p :     2.748584
      px      :     0.801462
      py      :     0.891339

  3 H s       :     0.792740  s :     0.792740

  4 H s       :     0.777856  s :     0.777856

  5 C s       :     3.345376  s :     3.345376
      pz      :     0.828014  p :     2.518910
      px      :     0.942399
      py      :     0.748497

  6 C s       :     3.368398  s :     3.368398
      pz      :     1.019884  p :     3.107442
      px      :     0.948316
      py      :     1.139242

  7 C s       :     3.340425  s :     3.340425
      pz      :     1.196034  p :     3.111306
      px      :     0.993481
      py      :     0.921791

  8 H s       :     0.785846  s :     0.785846

  9 H s       :     0.775962  s :     0.775962

 10 H s       :     0.770869  s :     0.770869

 11 H s       :     0.795320  s :     0.795320

 12 O s       :     3.685542  s :     3.685542
      pz      :     1.659918  p :     4.801831
      px      :     1.287489
      py      :     1.854424

 13 H s       :     0.766081  s :     0.766081

 14 C s       :     3.392618  s :     3.392618
      pz      :     1.004533  p :     2.890877
      px      :     0.798453
      py      :     1.087892

 15 C s       :     3.387040  s :     3.387040
      pz      :     1.009669  p :     3.129432
      px      :     1.015673
      py      :     1.104090

 16 H s       :     0.798514  s :     0.798514

 17 H s       :     0.803290  s :     0.803290

 18 C s       :     3.396643  s :     3.396643
      pz      :     1.025893  p :     2.862576
      px      :     0.748520
      py      :     1.088163

 19 H s       :     0.782379  s :     0.782379

 20 C s       :     3.350672  s :     3.350672
      pz      :     0.952004  p :     2.499815
      px      :     0.752260
      py      :     0.795552

 21 H s       :     0.780435  s :     0.780435

 22 C s       :     3.372631  s :     3.372631
      pz      :     1.108015  p :     3.107288
      px      :     1.116685
      py      :     0.882588

 23 C s       :     3.327182  s :     3.327182
      pz      :     1.107031  p :     3.100273
      px      :     0.895150
      py      :     1.098092

 24 H s       :     0.788498  s :     0.788498

 25 H s       :     0.793429  s :     0.793429

 26 C s       :     3.349331  s :     3.349331
      pz      :     1.169206  p :     3.047246
      px      :     0.964439
      py      :     0.913601

 27 H s       :     0.792014  s :     0.792014

 28 H s       :     0.783100  s :     0.783100

 29 C s       :     3.317532  s :     3.317532
      pz      :     0.871454  p :     2.678480
      px      :     0.904977
      py      :     0.902048

 30 H s       :     0.777631  s :     0.777631

 31 H s       :     0.805804  s :     0.805804

 32 C s       :     3.362342  s :     3.362342
      pz      :     1.085665  p :     2.866834
      px      :     0.872381
      py      :     0.908788

 33 H s       :     0.773268  s :     0.773268

 34 C s       :     3.343905  s :     3.343905
      pz      :     1.185467  p :     3.089436
      px      :     0.939034
      py      :     0.964936

 35 H s       :     0.656892  s :     0.656892

 36 C s       :     3.338952  s :     3.338952
      pz      :     1.177890  p :     3.086389
      px      :     0.933783
      py      :     0.974716

 37 H s       :     0.793151  s :     0.793151

 38 H s       :     0.801658  s :     0.801658

 39 C s       :     3.342248  s :     3.342248
      pz      :     1.074361  p :     2.855777
      px      :     0.868596
      py      :     0.912820

 40 H s       :     0.785205  s :     0.785205

 41 H s       :     0.793362  s :     0.793362

 42 H s       :     0.790351  s :     0.790351

 43 C s       :     3.348194  s :     3.348194
      pz      :     1.063050  p :     2.893513
      px      :     0.887120
      py      :     0.943343

 44 C s       :     3.366384  s :     3.366384
      pz      :     0.952533  p :     3.263039
      px      :     1.157402
      py      :     1.153104

 45 H s       :     0.790511  s :     0.790511

 46 H s       :     0.798645  s :     0.798645

 47 H s       :     0.794893  s :     0.794893

 48 H s       :     0.779872  s :     0.779872

 49 C s       :     3.348350  s :     3.348350
      pz      :     1.155699  p :     3.271112
      px      :     1.152743
      py      :     0.962670

 50 C s       :     3.341908  s :     3.341908
      pz      :     0.908385  p :     2.837103
      px      :     0.957482
      py      :     0.971236

 51 C s       :     3.347723  s :     3.347723
      pz      :     0.908398  p :     2.836826
      px      :     0.949252
      py      :     0.979176

 52 H s       :     0.789850  s :     0.789850

 53 H s       :     0.784786  s :     0.784786

 54 C s       :     3.336835  s :     3.336835
      pz      :     1.058374  p :     2.903032
      px      :     0.957048
      py      :     0.887610

 55 C s       :     3.343506  s :     3.343506
      pz      :     1.078632  p :     3.272704
      px      :     1.104788
      py      :     1.089284

 56 C s       :     3.311652  s :     3.311652
      pz      :     0.895791  p :     2.886745
      px      :     1.084866
      py      :     0.906088

 57 H s       :     0.775683  s :     0.775683

 58 H s       :     0.781921  s :     0.781921

 59 C s       :     3.344679  s :     3.344679
      pz      :     1.021783  p :     3.280148
      px      :     1.093458
      py      :     1.164907

 60 C s       :     3.340766  s :     3.340766
      pz      :     1.059165  p :     3.267399
      px      :     1.136027
      py      :     1.072207

 61 H s       :     0.795948  s :     0.795948

 62 H s       :     0.801077  s :     0.801077

 63 H s       :     0.798443  s :     0.798443

 64 H s       :     0.796624  s :     0.796624

 65 H s       :     0.792633  s :     0.792633

 66 H s       :     0.798877  s :     0.798877

 67 H s       :     0.800330  s :     0.800330

 68 H s       :     0.802139  s :     0.802139

 69 H s       :     0.799136  s :     0.799136

 70 H s       :     0.795522  s :     0.795522

 71 H s       :     0.791913  s :     0.791913

 72 H s       :     0.804339  s :     0.804339


------------------------
MULLIKEN OVERLAP CHARGES
------------------------
B(  0-C ,  1-C ) :   0.4956 B(  0-C ,  2-C ) :  -0.1304 B(  0-C ,  3-H ) :  -0.0877 
B(  0-C ,  4-H ) :  -0.0673 B(  0-C ,  5-C ) :   0.4217 B(  0-C ,  6-C ) :  -0.1560 
B(  0-C , 14-C ) :   0.9466 B(  0-C , 15-C ) :  -0.2028 B(  0-C , 18-C ) :  -0.1838 
B(  0-C , 19-H ) :  -0.0751 B(  1-C ,  2-C ) :   0.5271 B(  1-C ,  3-H ) :   0.7958 
B(  1-C ,  4-H ) :   0.8137 B(  1-C ,  5-C ) :  -0.1482 B(  1-C ,  7-C ) :  -0.1691 
B(  1-C , 12-O ) :  -0.0832 B(  1-C , 13-H ) :  -0.0842 B(  1-C , 14-C ) :  -0.1076 
B(  2-C ,  3-H ) :  -0.0819 B(  2-C ,  4-H ) :  -0.0581 B(  2-C ,  6-C ) :  -0.1288 
B(  2-C ,  7-C ) :   0.5343 B(  2-C , 10-H ) :  -0.0697 B(  2-C , 11-H ) :  -0.0825 
B(  2-C , 12-O ) :   0.6902 B(  2-C , 13-H ) :   0.7986 B(  2-C , 35-H ) :  -0.1133 
B(  5-C ,  6-C ) :   0.5388 B(  5-C ,  7-C ) :  -0.1716 B(  5-C ,  8-H ) :  -0.0879 
B(  5-C ,  9-H ) :  -0.0737 B(  5-C , 14-C ) :  -0.1963 B(  5-C , 15-C ) :   1.0578 
B(  5-C , 16-H ) :  -0.0995 B(  5-C , 17-H ) :  -0.0943 B(  6-C ,  7-C ) :   0.5411 
B(  6-C ,  8-H ) :   0.8038 B(  6-C ,  9-H ) :   0.8190 B(  6-C , 11-H ) :  -0.0739 
B(  6-C , 15-C ) :  -0.1291 B(  7-C ,  8-H ) :  -0.0768 B(  7-C , 10-H ) :   0.8058 
B(  7-C , 11-H ) :   0.7945 B(  7-C , 12-O ) :  -0.0901 B(  7-C , 13-H ) :  -0.0842 
B( 12-O , 35-H ) :   0.6600 B( 14-C , 18-C ) :   0.6128 B( 14-C , 19-H ) :   0.8252 
B( 14-C , 20-C ) :  -0.1954 B( 14-C , 21-H ) :  -0.0735 B( 15-C , 16-H ) :   0.8143 
B( 15-C , 17-H ) :   0.8068 B( 18-C , 19-H ) :  -0.0611 B( 18-C , 20-C ) :   0.9229 
B( 18-C , 21-H ) :   0.8313 B( 18-C , 22-C ) :  -0.1497 B( 18-C , 32-C ) :  -0.1480 
B( 20-C , 21-H ) :  -0.0848 B( 20-C , 22-C ) :   0.5321 B( 20-C , 23-C ) :  -0.1693 
B( 20-C , 24-H ) :  -0.0670 B( 20-C , 25-H ) :  -0.0933 B( 20-C , 29-C ) :  -0.1250 
B( 20-C , 32-C ) :   0.5174 B( 20-C , 33-H ) :  -0.0920 B( 20-C , 34-C ) :  -0.0992 
[...]
        0.0000         2.8924        0.0000
        0.0000         0.0000        2.8924

 Diagonalized JT*J matrix:
 
 J[55,60](FC)             2.892            2.892            2.892  iso=      2.892
                ---------------  ---------------  ---------------  ---------------
 J[55,60](Total)          2.892            2.892            2.892  iso=      2.892



-----------------------------------------------------------
 NUCLEUS A = C   56 NUCLEUS B = C   59 
 ( 13C  gnA =  1.405  13C  gnB =  1.405) r(AB) =     1.5309
-----------------------------------------------------------

Fermi-contact contribution to J (Hz):
       26.2227         0.0000        0.0000
        0.0000        26.2227        0.0000
        0.0000         0.0000       26.2227

Total spin-spin coupling tensor J (Hz):
       26.2227         0.0000        0.0000
        0.0000        26.2227        0.0000
        0.0000         0.0000       26.2227

 Diagonalized JT*J matrix:
 
 J[56,59](FC)            26.223           26.223           26.223  iso=     26.223
                ---------------  ---------------  ---------------  ---------------
 J[56,59](Total)         26.223           26.223           26.223  iso=     26.223



-----------------------------------------------------------
 NUCLEUS A = C   56 NUCLEUS B = C   60 
 ( 13C  gnA =  1.405  13C  gnB =  1.405) r(AB) =     1.5295
-----------------------------------------------------------

Fermi-contact contribution to J (Hz):
       27.3353         0.0000        0.0000
        0.0000        27.3353        0.0000
        0.0000         0.0000       27.3353

Total spin-spin coupling tensor J (Hz):
       27.3353         0.0000        0.0000
        0.0000        27.3353        0.0000
        0.0000         0.0000       27.3353

 Diagonalized JT*J matrix:
 
 J[56,60](FC)            27.335           27.335           27.335  iso=     27.335
                ---------------  ---------------  ---------------  ---------------
 J[56,60](Total)         27.335           27.335           27.335  iso=     27.335



-----------------------------------------------------------
 NUCLEUS A = C   59 NUCLEUS B = C   60 
 ( 13C  gnA =  1.405  13C  gnB =  1.405) r(AB) =     2.5108
-----------------------------------------------------------

Fermi-contact contribution to J (Hz):
       -0.9227         0.0000        0.0000
        0.0000        -0.9227        0.0000
        0.0000         0.0000       -0.9227

Total spin-spin coupling tensor J (Hz):
       -0.9227         0.0000        0.0000
        0.0000        -0.9227        0.0000
        0.0000         0.0000       -0.9227

 Diagonalized JT*J matrix:
 
 J[59,60](FC)            -0.923           -0.923           -0.923  iso=     -0.923
                ---------------  ---------------  ---------------  ---------------
 J[59,60](Total)         -0.923           -0.923           -0.923  iso=     -0.923



-----------------------------------------------------------------------------
                SUMMARY OF ISOTROPIC COUPLING CONSTANTS J (Hz)                
-----------------------------------------------------------------------------
                  0 C        1 C        2 C        5 C        6 C        7 C  
      0 C        0.000     32.408     -2.358     42.233     -0.172      0.881
      1 C       32.408      0.000     25.386     -1.182      0.378     -0.393
      2 C       -2.358     25.386      0.000      2.040     -1.351     25.825
      5 C       42.233     -1.182      2.040      0.000     31.048     -2.894
      6 C       -0.172      0.378     -1.351     31.048      0.000     23.054
      7 C        0.881     -0.393     25.825     -2.894     23.054      0.000
     14 C       70.269     -0.393      3.576     -3.191      2.742     -0.704
     15 C       -3.288      2.727     -0.831     64.251     -0.891      2.830
     18 C       -2.634      4.221     -1.055      3.285     -1.011      0.207
     20 C        6.953     -1.149      1.241     -1.510      0.778     -0.147
     22 C       -0.946      0.332     -0.376      0.446     -0.236      0.046
     23 C        0.775     -0.263      0.282     -0.325      0.184      0.000
     26 C       -0.074      0.029      0.000      0.040      0.000      0.000
     29 C        1.113     -0.355      0.000     -0.483      0.254      0.000
     32 C       -1.152      0.555     -0.410      0.516     -0.277      0.057
     34 C        0.022     -0.015      0.017     -0.018      0.009     -0.002
     36 C       -0.012      0.000      0.000      0.015     -0.009      0.000
     39 C       -0.078      0.000      0.000      0.033      0.000      0.000
     43 C        0.000      0.000      0.000      0.000      0.000      0.000
     44 C        0.013     -0.005      0.005     -0.008      0.005     -0.001
     49 C        0.000      0.000      0.000      0.000      0.000      0.000
     50 C        0.000      0.000      0.000      0.000      0.000      0.000
     51 C        0.000      0.000      0.000      0.000      0.000      0.000
     54 C        0.000      0.000      0.000      0.000      0.000      0.000
     55 C        0.000      0.000      0.000      0.000      0.000      0.000
     56 C        0.000      0.000      0.000      0.000      0.000      0.000
     59 C        0.000      0.000      0.000      0.000      0.000      0.000
     60 C        0.000      0.000      0.000      0.000      0.000      0.000
                 14 C       15 C       18 C       20 C       22 C       23 C  
      0 C       70.269     -3.288     -2.634      6.953     -0.946      0.775
      1 C       -0.393      2.727      4.221     -1.149      0.332     -0.263
      2 C        3.576     -0.831     -1.055      1.241     -0.376      0.282
      5 C       -3.191     64.251      3.285     -1.510      0.446     -0.325
      6 C        2.742     -0.891     -1.011      0.778     -0.236      0.184
      7 C       -0.704      2.830      0.207     -0.147      0.046      0.000
     14 C        0.000      3.069     54.497     -2.784      3.841     -0.867
     15 C        3.069      0.000     -1.121      1.068     -0.274      0.230
     18 C       54.497     -1.121      0.000     70.079     -2.176      2.465
     20 C       -2.784      1.068     70.079      0.000     32.190     -2.821
     22 C        3.841     -0.274     -2.176     32.190      0.000     24.530
     23 C       -0.867      0.230      2.465     -2.821     24.530      0.000
     26 C        0.110     -0.019     -0.366      1.026     -1.925     25.473
     29 C       -1.137      0.337      2.400     -2.331      1.117     -2.181
     32 C        4.410     -0.337     -1.323     37.043     -0.258      1.498
     34 C        0.066      0.004      2.463     -1.318      1.593     -0.253
     36 C        0.011     -0.013     -0.155      3.513      0.059      0.179
     39 C        0.267     -0.023     -0.036      2.928     -0.337      2.555
     43 C        0.011      0.000      0.302      0.190      0.003     -0.109
     44 C       -0.003      0.004     -0.064      0.710     -0.138      0.648
     49 C       -0.001      0.000     -0.010     -0.036      0.137      0.038
     50 C        0.000      0.000      0.032      0.149     -0.010      0.135
     51 C        0.000      0.000     -0.006      0.043     -0.002     -0.006
     54 C        0.000      0.000      0.000      0.000      0.000      0.000
     55 C        0.000      0.000      0.000      0.000      0.000      0.000
     56 C        0.000      0.000      0.000      0.000      0.000      0.000
     59 C        0.000      0.000      0.000      0.000      0.000      0.000
     60 C        0.000      0.000      0.000      0.000      0.000      0.000
                 26 C       29 C       32 C       34 C       36 C       39 C  
      0 C       -0.074      1.113     -1.152      0.022     -0.012     -0.078
      1 C        0.029     -0.355      0.555     -0.015      0.000      0.000
      2 C        0.000      0.000     -0.410      0.017      0.000      0.000
      5 C        0.040     -0.483      0.516     -0.018      0.015      0.033
      6 C        0.000      0.254     -0.277      0.009     -0.009      0.000
      7 C        0.000      0.000      0.057     -0.002      0.000      0.000
     14 C        0.110     -1.137      4.410      0.066      0.011      0.267
     15 C       -0.019      0.337     -0.337      0.004     -0.013     -0.023
     18 C       -0.366      2.400     -1.323      2.463     -0.155     -0.036
     20 C        1.026     -2.331     37.043     -1.318      3.513      2.928
     22 C       -1.925      1.117     -0.258      1.593      0.059     -0.337
     23 C       25.473     -2.181      1.498     -0.253      0.179      2.555
     26 C        0.000     27.791     -0.948      2.326      3.038     -0.597
     29 C       27.791      0.000     23.450      0.909      0.577     28.928
     32 C       -0.948     23.450      0.000     27.898      1.329      3.499
     34 C        2.326      0.909     27.898      0.000     25.888      0.094
     36 C        3.038      0.577      1.329     25.888      0.000     26.229
     39 C       -0.597     28.928      3.499      0.094     26.229      0.000
     43 C       -0.012     -0.670      2.714      1.678      0.269     30.463
     44 C       -0.554     27.286     -0.923      0.817      0.252     -1.225
     49 C        0.351      0.206      0.001     -0.006      3.154     -1.013
     50 C       -0.094      3.348      0.005     -0.054      0.576     -1.647
     51 C        0.018     -0.101      0.045      0.003      0.101      2.078
     54 C        0.004      0.026     -0.004     -0.001      0.045     -0.184
     55 C        0.002     -0.027      0.004      0.001     -0.048      0.068
     56 C        0.000     -0.003      0.003      0.001     -0.000      0.068
     59 C       -0.000      0.000      0.003     -0.003      0.003     -0.003
     60 C        0.001      0.010      0.004      0.001     -0.019      0.019
                 43 C       44 C       49 C       50 C       51 C       54 C  
      0 C        0.000      0.013      0.000      0.000      0.000      0.000
      1 C        0.000     -0.005      0.000      0.000      0.000      0.000
      2 C        0.000      0.005      0.000      0.000      0.000      0.000
      5 C        0.000     -0.008      0.000      0.000      0.000      0.000
      6 C        0.000      0.005      0.000      0.000      0.000      0.000
      7 C        0.000     -0.001      0.000      0.000      0.000      0.000
     14 C        0.011     -0.003     -0.001      0.000      0.000      0.000
     15 C        0.000      0.004      0.000      0.000      0.000      0.000
     18 C        0.302     -0.064     -0.010      0.032     -0.006      0.000
     20 C        0.190      0.710     -0.036      0.149      0.043      0.000
     22 C        0.003     -0.138      0.137     -0.010     -0.002      0.000
     23 C       -0.109      0.648      0.038      0.135     -0.006      0.000
     26 C       -0.012     -0.554      0.351     -0.094      0.018      0.004
     29 C       -0.670     27.286      0.206      3.348     -0.101      0.026
     32 C        2.714     -0.923      0.001      0.005      0.045     -0.004
     34 C        1.678      0.817     -0.006     -0.054      0.003     -0.001
     36 C        0.269      0.252      3.154      0.576      0.101      0.045
     39 C       30.463     -1.225     -1.013     -1.647      2.078     -0.184
     43 C        0.000      1.492     24.927     35.128     -1.675      3.719
     44 C        1.492      0.000     -0.087     -0.146      0.134      0.022
     49 C       24.927     -0.087      0.000     -3.480      3.441     -1.048
     50 C       35.128     -0.146     -3.480      0.000     68.388     -0.476
     51 C       -1.675      0.134      3.441     68.388      0.000     36.042
     54 C        3.719      0.022     -1.048     -0.476     36.042      0.000
     55 C       -0.595      0.017      1.382      3.752     -2.272     26.781
     56 C       -0.540      0.018      1.107      2.975     -2.694     25.473
     59 C        0.000     -0.001     -0.026     -0.069      1.706     -1.613
     60 C       -0.013     -0.001      0.016     -0.078      0.563     -0.329
                 55 C       56 C       59 C       60 C  
      0 C        0.000      0.000      0.000      0.000
      1 C        0.000      0.000      0.000      0.000
      2 C        0.000      0.000      0.000      0.000
      5 C        0.000      0.000      0.000      0.000
      6 C        0.000      0.000      0.000      0.000
      7 C        0.000      0.000      0.000      0.000
     14 C        0.000      0.000      0.000      0.000
     15 C        0.000      0.000      0.000      0.000
     18 C        0.000      0.000      0.000      0.000
     20 C        0.000      0.000      0.000      0.000
     22 C        0.000      0.000      0.000      0.000
     23 C        0.000      0.000      0.000      0.000
     26 C        0.002      0.000     -0.000      0.001
     29 C       -0.027     -0.003      0.000      0.010
     32 C        0.004      0.003      0.003      0.004
     34 C        0.001      0.001     -0.003      0.001
     36 C       -0.048     -0.000      0.003     -0.019
     39 C        0.068      0.068     -0.003      0.019
     43 C       -0.595     -0.540      0.000     -0.013
     44 C        0.017      0.018     -0.001     -0.001
     49 C        1.382      1.107     -0.026      0.016
     50 C        3.752      2.975     -0.069     -0.078
     51 C       -2.272     -2.694      1.706      0.563
     54 C       26.781     25.473     -1.613     -0.329
     55 C        0.000     -0.812      0.983      2.892
     56 C       -0.812      0.000     26.223     27.335
     59 C        0.983     26.223      0.000     -0.923
     60 C        2.892     27.335     -0.923      0.000

NMR spin-spin coupling calculation done in   0.3 sec 

Maximum memory used throughout the entire PROP-calculation: 34.5 MB

--------------------------------
SUGGESTED CITATIONS FOR THIS RUN
--------------------------------

Below you find a list of papers that are relevant to this ORCA run
We neither can nor want to force you to cite these papers, but we appreciate if you do
You receive ORCA, which is the product of decades of hard work by many enthusiastic individuals, for free
The only thing we kindly ask in return is that you cite our papers,
We deeply appreciate it, if you show your appreciation for ORCA by not just citing the generic ORCA reference.

Please note that relegating all ORCA citations to the supporting information does *not* help us.
SI sections are not indexed - citations you put there will not count into any citation statistics
But we need these citations in order to attract the funding resources that allow us to do what we are doing

Therefore, if you are a happy ORCA user, please consider citing a few of the papers listed below in the main body of your paper

In addition to the list printed below, the program has created the file inpJ.bibtex that contains the list in bibtex format
You can import this file easily into all common literature databanks and citation aid programs


List of essential papers. We consider these as the minimum necessary citations

  1. Neese,F.
     Software update: the ORCA program system, version 5.0
     WIRES Comput. Molec. Sci., 2022 12(1)e1606
     doi.org/10.1002/wcms.1606

List of papers to cite with high priority. The work reported in these papers was absolutely
necessary for this run to complete.
Our perspective: the developers of density functionals and basis sets usually get cited in chemistry papers
Good! But without the algorithms to do something with them, the functionals or basis sets would not do anything.
Hence, in our opinion, the algorithm design and method developments papers are equally worthy of getting cited

  1. Neese,F.
     An improvement of the resolution of the identity approximation for the formation of the Coulomb matrix
     J. Comp. Chem., 2003 24(14)1740-1747
     doi.org/10.1002/jcc.10318
  2. Neese,F.; Wennmohs,F.; Hansen,A.; Becker,U.
     Efficient, approximate and parallel Hartree-Fock and hybrid DFT calculations. A 'chain-of-spheres' algorithm for the Hartree-Fock exchange
     Chem. Phys., 2009 356(1-3)98-109
     doi.org/10.1016/j.chemphys.2008.10.036
  3. Stoychev,G.L.; Auer,A.A.; Izsak,R.; Neese,F.
     Self-Consistent Field Calculation of Nuclear Magnetic Resonance Chemical Shielding Constants Using Gauge-Including Atomic Orbitals and Approximate Two-Electron Integrals
     J. Chem. Theory Comput., 2018 14(2)619-637
     doi.org/10.1021/acs.jctc.7b01006
  4. Garcia-Rates,M.; Neese,F.
     Effect of the Solute Cavity on the Solvation Energy and its Derivatives within the Framework of the Gaussian Charge Scheme
     J. Comput. Chem., 2020 41 922-939
     doi.org/10.1002/jcc.26139
  5. Helmich-Paris,B.; de Souza,B.; Neese,F.; Izsák,R.
     An improved chain of spheres for exchange algorithm
     J. Chem. Phys., 2021 155 104109
     doi.org/doi: 10.1063/5.0058766.
  6. Neese,F.
     The SHARK Integral Generation and Digestion System
     J. Comp. Chem., 2022  1-16
     doi.org/10.1002/jcc.26942
  7. Grimme,S.; Bannwarth,C.; Dohm,S.; Hansen,A.; Pisarek,J.; Pracht,P.; Seibert,J.; Neese,F.
     Fully Automated Quantum-Chemistry-Based Computation of Spin-Spin-Coupled Nuclear Magnetic Resonance Spectra
     Angew. Chem., Int. Ed., 2017 56 14763-14769
     doi.org/10.1002/anie.201708266
  8. Caldeweyher,E.; Bannwarth,C.; Grimme,S.
     Extension of the D3 dispersion coefficient model
     J. Chem. Phys., 2017 147 034112-XXXX
     doi.org/10.1063/1.4993215
  9. Caldeweyher,E.; Ehlert,S.; Hansen,A.; Neugebauer,H.; Spicher,S.; Bannwarth,C.; Grimme,S.
     A generally applicable atomic-charge dependent London dispersion correction
     J. Chem. Phys., 2019 150 154122-XXXX
     doi.org/10.1063/1.5090222
 10. Caldeweyher,E.; Mewes,J.; Ehlert,S.; Grimme,S.
     Extension and evaluation of the D4 London-dispersion model for periodic systems
     Phys. Chem. Chem. Phys., 2020 22(16)8499-8512
     doi.org/10.1039/D0CP00502A

List of suggested additional citations. These are papers that are important in the 'surrounding' of 
of this run, or papers that preceded the highly important papers. If you like your results we are grateful for a citation.

  1. Izsak,R.; Neese,F.
     An overlap fitted chain of spheres exchange method
     J. Chem. Phys., 2011 135 144105
     doi.org/10.1063/1.3646921
  2. Izsak,R.; Hansen,A.; Neese,F.
     The resolution of identity and chain of spheres approximations for the LPNO-CCSD singles Fock term
     Molec. Phys., 2012 110 2413-2417
     doi.org/10.1080/00268976.2012.687466
  3. Neese,F.
     The ORCA program system
     WIRES Comput. Molec. Sci., 2012 2(1)73-78
     doi.org/10.1002/wcms.81
  4. Izsak,R.; Neese,F.; Klopper,W.
     Robust fitting techniques in the chain of spheres approximation to the Fock exchange: The role of the complementary space
     J. Chem. Phys., 2013 139 
     doi.org/10.1063/1.4819264
  5. Neese,F.
     Software update: the ORCA program system, version 4.0
     WIRES Comput. Molec. Sci., 2018 8(1)1-6
     doi.org/10.1002/wcms.1327
  6. Neese,F.; Wennmohs,F.; Becker,U.; Riplinger,C.
     The ORCA quantum chemistry program package
     J. Chem. Phys., 2020 152 Art. No. L224108
     doi.org/10.1063/5.0004608

Timings for individual modules:

Sum of individual times          ...      137.661 sec (=   2.294 min)
Startup calculation              ...        3.895 sec (=   0.065 min)   2.8 %
SCF iterations                   ...       19.216 sec (=   0.320 min)  14.0 %
Property integrals               ...        0.669 sec (=   0.011 min)   0.5 %
SCF Response                     ...      113.376 sec (=   1.890 min)  82.4 %
Property calculations            ...        0.505 sec (=   0.008 min)   0.4 %
                             ****ORCA TERMINATED NORMALLY****
TOTAL RUN TIME: 0 days 0 hours 2 minutes 17 seconds 927 msec
