
                                 *****************
                                 * O   R   C   A *
                                 *****************

                                            #,                                       
                                            ###                                      
                                            ####                                     
                                            #####                                    
                                            ######                                   
                                           ########,                                 
                                     ,,################,,,,,                         
                               ,,#################################,,                 
                          ,,##########################################,,             
                       ,#########################################, ''#####,          
                    ,#############################################,,   '####,        
                  ,##################################################,,,,####,       
                ,###########''''           ''''###############################       
              ,#####''   ,,,,##########,,,,          '''####'''          '####       
            ,##' ,,,,###########################,,,                        '##       
           ' ,,###''''                  '''############,,,                           
         ,,##''                                '''############,,,,        ,,,,,,###''
      ,#''                                            '''#######################'''  
     '                                                          ''''####''''         
             ,#######,   #######,   ,#######,      ##                                
            ,#'     '#,  ##    ##  ,#'     '#,    #''#        ######   ,####,        
            ##       ##  ##   ,#'  ##            #'  '#       #        #'  '#        
            ##       ##  #######   ##           ,######,      #####,   #    #        
            '#,     ,#'  ##    ##  '#,     ,#' ,#      #,         ##   #,  ,#        
             '#######'   ##     ##  '#######'  #'      '#     #####' # '####'        



                  #######################################################
                  #                        -***-                        #
                  #          Department of theory and spectroscopy      #
                  #    Directorship and core code : Frank Neese         #
                  #        Max Planck Institute fuer Kohlenforschung    #
                  #                Kaiser Wilhelm Platz 1               #
                  #                 D-45470 Muelheim/Ruhr               #
                  #                      Germany                        #
                  #                                                     #
                  #                  All rights reserved                #
                  #                        -***-                        #
                  #######################################################


                         Program Version 5.0.2 -  RELEASE  -


 With contributions from (in alphabetic order):
   Daniel Aravena         : Magnetic Suceptibility
   Michael Atanasov       : Ab Initio Ligand Field Theory (pilot matlab implementation)
   Alexander A. Auer      : GIAO ZORA, VPT2 properties, NMR spectrum
   Ute Becker             : Parallelization
   Giovanni Bistoni       : ED, misc. LED, open-shell LED, HFLD
   Martin Brehm           : Molecular dynamics
   Dmytro Bykov           : SCF Hessian
   Vijay G. Chilkuri      : MRCI spin determinant printing, contributions to CSF-ICE
   Dipayan Datta          : RHF DLPNO-CCSD density
   Achintya Kumar Dutta   : EOM-CC, STEOM-CC
   Dmitry Ganyushin       : Spin-Orbit,Spin-Spin,Magnetic field MRCI
   Miquel Garcia          : C-PCM and meta-GGA Hessian, CC/C-PCM, Gaussian charge scheme
   Yang Guo               : DLPNO-NEVPT2, F12-NEVPT2, CIM, IAO-localization
   Andreas Hansen         : Spin unrestricted coupled pair/coupled cluster methods
   Benjamin Helmich-Paris : MC-RPA, TRAH-SCF, COSX integrals
   Lee Huntington         : MR-EOM, pCC
   Robert Izsak           : Overlap fitted RIJCOSX, COSX-SCS-MP3, EOM
   Marcus Kettner         : VPT2
   Christian Kollmar      : KDIIS, OOCD, Brueckner-CCSD(T), CCSD density, CASPT2, CASPT2-K
   Simone Kossmann        : Meta GGA functionals, TD-DFT gradient, OOMP2, MP2 Hessian
   Martin Krupicka        : Initial AUTO-CI
   Lucas Lang             : DCDCAS
   Marvin Lechner         : AUTO-CI (C++ implementation), FIC-MRCC
   Dagmar Lenk            : GEPOL surface, SMD
   Dimitrios Liakos       : Extrapolation schemes; Compound Job, initial MDCI parallelization
   Dimitrios Manganas     : Further ROCIS development; embedding schemes
   Dimitrios Pantazis     : SARC Basis sets
   Anastasios Papadopoulos: AUTO-CI, single reference methods and gradients
   Taras Petrenko         : DFT Hessian,TD-DFT gradient, ASA, ECA, R-Raman, ABS, FL, XAS/XES, NRVS
   Peter Pinski           : DLPNO-MP2, DLPNO-MP2 Gradient
   Christoph Reimann      : Effective Core Potentials
   Marius Retegan         : Local ZFS, SOC
   Christoph Riplinger    : Optimizer, TS searches, QM/MM, DLPNO-CCSD(T), (RO)-DLPNO pert. Triples
   Tobias Risthaus        : Range-separated hybrids, TD-DFT gradient, RPA, STAB
   Michael Roemelt        : Original ROCIS implementation
   Masaaki Saitow         : Open-shell DLPNO-CCSD energy and density
   Barbara Sandhoefer     : DKH picture change effects
   Avijit Sen             : IP-ROCIS
   Kantharuban Sivalingam : CASSCF convergence, NEVPT2, FIC-MRCI
   Bernardo de Souza      : ESD, SOC TD-DFT
   Georgi Stoychev        : AutoAux, RI-MP2 NMR, DLPNO-MP2 response
   Willem Van den Heuvel  : Paramagnetic NMR
   Boris Wezisla          : Elementary symmetry handling
   Frank Wennmohs         : Technical directorship


 We gratefully acknowledge several colleagues who have allowed us to
 interface, adapt or use parts of their codes:
   Stefan Grimme, W. Hujo, H. Kruse, P. Pracht,  : VdW corrections, initial TS optimization,
                  C. Bannwarth, S. Ehlert          DFT functionals, gCP, sTDA/sTD-DF
   Ed Valeev, F. Pavosevic, A. Kumar             : LibInt (2-el integral package), F12 methods
   Garnet Chan, S. Sharma, J. Yang, R. Olivares  : DMRG
   Ulf Ekstrom                                   : XCFun DFT Library
   Mihaly Kallay                                 : mrcc  (arbitrary order and MRCC methods)
   Jiri Pittner, Ondrej Demel                    : Mk-CCSD
   Frank Weinhold                                : gennbo (NPA and NBO analysis)
   Christopher J. Cramer and Donald G. Truhlar   : smd solvation model
   Lars Goerigk                                  : TD-DFT with DH, B97 family of functionals
   V. Asgeirsson, H. Jonsson                     : NEB implementation
   FAccTs GmbH                                   : IRC, NEB, NEB-TS, DLPNO-Multilevel, CI-OPT
                                                   MM, QMMM, 2- and 3-layer-ONIOM, Crystal-QMMM,
                                                   LR-CPCM, SF, NACMEs, symmetry and pop. for TD-DFT,
                                                   nearIR, NL-DFT gradient (VV10), updates on ESD,
                                                   ML-optimized integration grids
   S Lehtola, MJT Oliveira, MAL Marques          : LibXC Library
   Liviu Ungur et al                             : ANISO software


 Your calculation uses the libint2 library for the computation of 2-el integrals
 For citations please refer to: http://libint.valeyev.net

 Your ORCA version has been built with support for libXC version: 5.1.0
 For citations please refer to: https://tddft.org/programs/libxc/

 This ORCA versions uses:
   CBLAS   interface :  Fast vector & matrix operations
   LAPACKE interface :  Fast linear algebra routines
   SCALAPACK package :  Parallel linear algebra routines
   Shared memory     :  Shared parallel matrices
   BLAS/LAPACK       :  OpenBLAS 0.3.15  USE64BITINT DYNAMIC_ARCH NO_AFFINITY Zen SINGLE_THREADED
        Core in use  :  Zen
   Copyright (c) 2011-2014, The OpenBLAS Project


Your calculation utilizes the atom-pairwise dispersion correction
based on tight binding partial charges (D4)
Cite in your paper:
E.Caldeweyher, C.Bannwarth, S.Grimme, J.Chem.Phys., (2017), 147, 034112.
E.Caldeweyher, S.Ehlert, A.Hansen, H.Neugebauer, S.Grimme, J.Chem.Phys., (2018), in progress.
   

================================================================================

----- Orbital basis set information -----
Your calculation utilizes the basis: pcSseg-1
   F. Jensen, J. Chem. Theory Comput. 11, 132 (2015).

----- AuxJ basis set information -----
Your calculation utilizes the auxiliary basis: def2/J
   F. Weigend, Phys. Chem. Chem. Phys. 8, 1057 (2006).

================================================================================
                                        WARNINGS
                       Please study these warnings very carefully!
================================================================================



WARNING: Found flag for RIJCOSX approximation but no HF exchange needed!
  ===> : RIJCOSX  will be disabled and Split-RI-J is turned on

INFO   : the flag for use of the SHARK integral package has been found!

================================================================================
                                       INPUT FILE
================================================================================
NAME = inpS
|  1> ! revTPSS
|  2> ! D4
|  3> ! pcSseg-1
|  4> ! def2/J RIJCOSX
|  5> ! DEFGRID2
|  6> ! scfconv7
|  7> ! smallprint printgap noloewdin
|  8> ! NOSOSCF
|  9> %MaxCore 4000
| 10> %output
| 11>        print[P_BondOrder_M] 1
| 12>        print[P_Mayer] 1
| 13>        print[P_basis] 2
| 14> end
| 15> %pal
| 16>     nprocs 4
| 17> end
| 18> ! CPCM(chloroform)
| 19> *xyz 0 1
| 20> C   -4.9720859800   0.3360831800   0.3632985000
| 21> C   -6.3875711800  -0.1012868400   0.0684932200
| 22> C   -6.9704811900   0.6400410500  -1.1407378700
| 23> H   -7.0309752900   0.1303752600   0.9343757100
| 24> H   -6.4312311000  -1.1829161200  -0.0999298500
| 25> C   -4.7952029700   1.8013301500   0.4488006100
| 26> C   -5.4241289400   2.5762155000  -0.6870339300
| 27> C   -6.8771631800   2.1472464500  -0.9326810200
| 28> H   -4.8450373000   2.3814831500  -1.6025797900
| 29> H   -5.3674312500   3.6516022700  -0.4880998700
| 30> H   -7.2838038500   2.6674110300  -1.8079096200
| 31> H   -7.4948630400   2.4218659300  -0.0642513500
| 32> O   -8.3150507200   0.2203675300  -1.4075744500
| 33> H   -6.4035112300   0.3603618900  -2.0397687600
| 34> C   -3.9756215400  -0.5726401000   0.4853512500
| 35> C   -4.1723306700   2.4081692000   1.4656775200
| 36> H   -3.7485191400   1.8402972400   2.2891920300
| 37> H   -4.0830119800   3.4913667900   1.5005756000
| 38> C   -2.5708999900  -0.2878787700   0.6645448400
| 39> H   -4.2662840500  -1.6184588600   0.3958372800
| 40> C   -1.5893802800  -1.1929007300   0.8674906800
| 41> H   -2.2889048000   0.7615136600   0.6176472900
| 42> C   -1.7820590600  -2.6810620100   1.0133389400
| 43> C   -0.8725614600  -3.4739685300   0.0563737500
| 44> H   -2.8239081900  -2.9809866700   0.8710210300
| 45> H   -1.5133827400  -2.9546159300   2.0464124700
| 46> C    0.5962852000  -3.0360722200   0.1361315100
| 47> H   -1.2396016200  -3.3528507200  -0.9705744700
| 48> H   -0.9495655000  -4.5429995900   0.2899260000
| 49> C    0.7535878900  -1.5229688900  -0.0724741200
| 50> H    1.1749575400  -3.6035551300  -0.5997493800
| 51> H    0.9981604400  -3.2934587900   1.1277207800
| 52> C   -0.1459544600  -0.8111363300   0.9886664400
| 53> H    0.2014451100  -1.2139881500   1.9581709500
| 54> C    0.2880266300   0.6494509200   0.9270640700
| 55> H   -8.8515398200   0.4546416400  -0.6384589400
| 56> C    1.8104793900   0.5655685900   0.6557843900
| 57> H    0.0497870900   1.1907387400   1.8487095600
| 58> H   -0.2182556900   1.1702735300   0.1067459900
| 59> C    2.1340478700  -0.9203955300   0.3119233100
| 60> H    2.3951317700   0.8986587500   1.5191335400
| 61> H    2.0877811800   1.2174048700  -0.1814976500
| 62> H    2.4503582400  -1.4319269300   1.2352495300
| 63> C    3.3094068800  -1.0442941700  -0.6879027100
| 64> C    0.3510727200  -1.1167332800  -1.4961463700
| 65> H   -0.7188394800  -1.2708080000  -1.6663874300
| 66> H    0.8995071100  -1.7080374200  -2.2375707200
| 67> H    0.5633611300  -0.0606230900  -1.6904787700
| 68> H    3.0122382500  -0.4995586400  -1.5995764900
| 69> C    3.6252908700  -2.4873121700  -1.0781803900
| 70> C    4.5045222200  -0.3132423600  -0.1199732100
| 71> C    5.6450427300  -0.8680202800   0.2940461400
| 72> H    4.3810068400   0.7650998700  -0.0296582000
| 73> H    5.7617515200  -1.9475734500   0.2130742600
| 74> C    6.8343162000  -0.1397178600   0.8712647700
| 75> C    6.5163927400   1.3000162700   1.2791086300
| 76> C    8.0504922100  -0.2107341700  -0.0958750400
| 77> H    7.1354120500  -0.6926198300   1.7784441500
| 78> H    7.7701196600   0.3510305800  -1.0011883400
| 79> C    8.3773597800  -1.6504272000  -0.5062623100
| 80> C    9.2963363200   0.4400319800   0.5142648400
| 81> H    5.6092222800   1.3398089100   1.8911012200
| 82> H    6.3589622000   1.9350758200   0.3987956300
| 83> H    7.3310219600   1.7342481600   1.8638323800
| 84> H    9.2835726700  -1.6751207200  -1.1211057300
| 85> H    7.5709275700  -2.1101119600  -1.0847981300
| 86> H    8.5575498300  -2.2725014400   0.3803011000
| 87> H    9.5440647700  -0.0338724600   1.4731655500
| 88> H    9.1661865900   1.5116178500   0.6882086600
| 89> H    10.1568490300   0.3151971100  -0.1521174300
| 90> H    4.5421830900  -2.5329895500  -1.6759772400
| 91> H    2.8190009500  -2.9177660400  -1.6754413200
| 92> H    3.7646251000  -3.1205209200  -0.1940372300
| 93> *
| 94> %eprnmr
| 95>  Nuclei = all H { shift }
| 96>  origin giao
| 97>  giao_2el giao_2el_same_as_scf
| 98>  giao_1el giao_1el_analytic
| 99> end
|100> 
|101>                          ****END OF INPUT****
================================================================================

                       ****************************
                       * Single Point Calculation *
                       ****************************

---------------------------------
CARTESIAN COORDINATES (ANGSTROEM)
---------------------------------
  C     -4.972086    0.336083    0.363299
  C     -6.387571   -0.101287    0.068493
  C     -6.970481    0.640041   -1.140738
  H     -7.030975    0.130375    0.934376
  H     -6.431231   -1.182916   -0.099930
  C     -4.795203    1.801330    0.448801
  C     -5.424129    2.576215   -0.687034
  C     -6.877163    2.147246   -0.932681
  H     -4.845037    2.381483   -1.602580
  H     -5.367431    3.651602   -0.488100
  H     -7.283804    2.667411   -1.807910
  H     -7.494863    2.421866   -0.064251
  O     -8.315051    0.220368   -1.407574
  H     -6.403511    0.360362   -2.039769
  C     -3.975622   -0.572640    0.485351
  C     -4.172331    2.408169    1.465678
  H     -3.748519    1.840297    2.289192
  H     -4.083012    3.491367    1.500576
  C     -2.570900   -0.287879    0.664545
  H     -4.266284   -1.618459    0.395837
  C     -1.589380   -1.192901    0.867491
  H     -2.288905    0.761514    0.617647
  C     -1.782059   -2.681062    1.013339
  C     -0.872561   -3.473969    0.056374
  H     -2.823908   -2.980987    0.871021
  H     -1.513383   -2.954616    2.046412
  C      0.596285   -3.036072    0.136132
  H     -1.239602   -3.352851   -0.970574
  H     -0.949565   -4.543000    0.289926
  C      0.753588   -1.522969   -0.072474
  H      1.174958   -3.603555   -0.599749
  H      0.998160   -3.293459    1.127721
  C     -0.145954   -0.811136    0.988666
  H      0.201445   -1.213988    1.958171
  C      0.288027    0.649451    0.927064
  H     -8.851540    0.454642   -0.638459
  C      1.810479    0.565569    0.655784
  H      0.049787    1.190739    1.848710
  H     -0.218256    1.170274    0.106746
  C      2.134048   -0.920396    0.311923
  H      2.395132    0.898659    1.519134
  H      2.087781    1.217405   -0.181498
  H      2.450358   -1.431927    1.235250
  C      3.309407   -1.044294   -0.687903
  C      0.351073   -1.116733   -1.496146
  H     -0.718839   -1.270808   -1.666387
  H      0.899507   -1.708037   -2.237571
  H      0.563361   -0.060623   -1.690479
  H      3.012238   -0.499559   -1.599576
  C      3.625291   -2.487312   -1.078180
  C      4.504522   -0.313242   -0.119973
  C      5.645043   -0.868020    0.294046
  H      4.381007    0.765100   -0.029658
  H      5.761752   -1.947573    0.213074
  C      6.834316   -0.139718    0.871265
  C      6.516393    1.300016    1.279109
  C      8.050492   -0.210734   -0.095875
  H      7.135412   -0.692620    1.778444
  H      7.770120    0.351031   -1.001188
  C      8.377360   -1.650427   -0.506262
  C      9.296336    0.440032    0.514265
  H      5.609222    1.339809    1.891101
  H      6.358962    1.935076    0.398796
  H      7.331022    1.734248    1.863832
  H      9.283573   -1.675121   -1.121106
  H      7.570928   -2.110112   -1.084798
  H      8.557550   -2.272501    0.380301
  H      9.544065   -0.033872    1.473166
  H      9.166187    1.511618    0.688209
  H     10.156849    0.315197   -0.152117
  H      4.542183   -2.532990   -1.675977
  H      2.819001   -2.917766   -1.675441
  H      3.764625   -3.120521   -0.194037

----------------------------
CARTESIAN COORDINATES (A.U.)
----------------------------
  NO LB      ZA    FRAG     MASS         X           Y           Z
   0 C     6.0000    0    12.011   -9.395881    0.635105    0.686535
   1 C     6.0000    0    12.011  -12.070760   -0.191404    0.129433
   2 C     6.0000    0    12.011  -13.172300    1.209502   -2.155682
   3 H     1.0000    0     1.008  -13.286618    0.246374    1.765714
   4 H     1.0000    0     1.008  -12.153265   -2.235388   -0.188840
   5 C     6.0000    0    12.011   -9.061620    3.404021    0.848110
   6 C     6.0000    0    12.011  -10.250118    4.868342   -1.298306
   7 C     6.0000    0    12.011  -12.995955    4.057708   -1.762512
   8 H     1.0000    0     1.008   -9.155794    4.500351   -3.028437
   9 H     1.0000    0     1.008  -10.142975    6.900528   -0.922375
  10 H     1.0000    0     1.008  -13.764394    5.040676   -3.416454
  11 H     1.0000    0     1.008  -14.163239    4.576663   -0.121417
  12 O     8.0000    0    15.999  -15.713169    0.416434   -2.659930
  13 H     1.0000    0     1.008  -12.100883    0.680985   -3.854604
  14 C     6.0000    0    12.011   -7.512836   -1.082133    0.917181
  15 C     6.0000    0    12.011   -7.884562    4.550780    2.769729
  16 H     1.0000    0     1.008   -7.083675    3.477658    4.325946
  17 H     1.0000    0     1.008   -7.715774    6.597727    2.835677
  18 C     6.0000    0    12.011   -4.858297   -0.544012    1.255808
  19 H     1.0000    0     1.008   -8.062108   -3.058444    0.748024
  20 C     6.0000    0    12.011   -3.003493   -2.254256    1.639320
  21 H     1.0000    0     1.008   -4.325403    1.439052    1.167184
  22 C     6.0000    0    12.011   -3.367604   -5.066473    1.914933
  23 C     6.0000    0    12.011   -1.648902   -6.564849    0.106531
  24 H     1.0000    0     1.008   -5.336413   -5.633248    1.645991
  25 H     1.0000    0     1.008   -2.859879   -5.583415    3.867159
  26 C     6.0000    0    12.011    1.126816   -5.737345    0.257251
  27 H     1.0000    0     1.008   -2.342508   -6.335970   -1.834120
  28 H     1.0000    0     1.008   -1.794419   -8.585025    0.547881
  29 C     6.0000    0    12.011    1.424075   -2.877994   -0.136956
  30 H     1.0000    0     1.008    2.220348   -6.809732   -1.133362
  31 H     1.0000    0     1.008    1.886250   -6.223735    2.131083
  32 C     6.0000    0    12.011   -0.275814   -1.532826    1.868309
  33 H     1.0000    0     1.008    0.380676   -2.294105    3.700407
  34 C     6.0000    0    12.011    0.544291    1.227284    1.751897
  35 H     1.0000    0     1.008  -16.726986    0.859148   -1.206513
  36 C     6.0000    0    12.011    3.421310    1.068770    1.239253
  37 H     1.0000    0     1.008    0.094084    2.250170    3.493555
  38 H     1.0000    0     1.008   -0.412443    2.211496    0.201721
  39 C     6.0000    0    12.011    4.032766   -1.739295    0.589450
  40 H     1.0000    0     1.008    4.526143    1.698219    2.870746
  41 H     1.0000    0     1.008    3.945335    2.300562   -0.342981
  42 H     1.0000    0     1.008    4.630506   -2.705950    2.334283
  43 C     6.0000    0    12.011    6.253873   -1.973430   -1.299948
  44 C     6.0000    0    12.011    0.663431   -2.110320   -2.827307
  45 H     1.0000    0     1.008   -1.358410   -2.401479   -3.149016
  46 H     1.0000    0     1.008    1.699822   -3.227723   -4.228396
  47 H     1.0000    0     1.008    1.064598   -0.114561   -3.194542
  48 H     1.0000    0     1.008    5.692305   -0.944029   -3.022761
  49 C     6.0000    0    12.011    6.850807   -4.700339   -2.037466
  50 C     6.0000    0    12.011    8.512313   -0.591942   -0.226717
  51 C     6.0000    0    12.011   10.667585   -1.640321    0.555667
  52 H     1.0000    0     1.008    8.278903    1.445829   -0.056046
  53 H     1.0000    0     1.008   10.888132   -3.680380    0.402652
  54 C     6.0000    0    12.011   12.914986   -0.264028    1.646452
  55 C     6.0000    0    12.011   12.314198    2.456675    2.417165
  56 C     6.0000    0    12.011   15.213226   -0.398230   -0.181178
  57 H     1.0000    0     1.008   13.483975   -1.308862    3.360772
  58 H     1.0000    0     1.008   14.683398    0.663352   -1.891972
  59 C     6.0000    0    12.011   15.830916   -3.118855   -0.956697
  60 C     6.0000    0    12.011   17.567530    0.831540    0.971820
  61 H     1.0000    0     1.008   10.599894    2.531872    3.573663
  62 H     1.0000    0     1.008   12.016697    3.656763    0.753615
  63 H     1.0000    0     1.008   13.853624    3.277254    3.522133
  64 H     1.0000    0     1.008   17.543410   -3.165519   -2.118583
  65 H     1.0000    0     1.008   14.306980   -3.987534   -2.049971
  66 H     1.0000    0     1.008   16.171426   -4.294405    0.718665
  67 H     1.0000    0     1.008   18.035669   -0.064010    2.783879
  68 H     1.0000    0     1.008   17.321582    2.856544    1.300526
  69 H     1.0000    0     1.008   19.193663    0.595636   -0.287460
  70 H     1.0000    0     1.008    8.583482   -4.786657   -3.167138
  71 H     1.0000    0     1.008    5.327140   -5.513779   -3.166125
  72 H     1.0000    0     1.008    7.114110   -5.896930   -0.366677

--------------------------------
INTERNAL COORDINATES (ANGSTROEM)
--------------------------------
 C      0   0   0     0.000000000000     0.00000000     0.00000000
 C      1   0   0     1.510563152910     0.00000000     0.00000000
 C      2   1   0     1.533489794316   111.72289464     0.00000000
 H      2   1   3     1.103353372148   109.41939973   241.45002926
 H      2   1   3     1.095533850904   110.68401921   122.86607887
 C      1   2   3     1.478359527698   114.22855408    50.40515544
 C      6   1   2     1.511990503820   114.50243147   312.27532197
 C      3   2   1     1.524356920676   110.30932326   304.92222782
 H      7   6   1     1.100677989885   108.38185351   289.71464724
 H      7   6   1     1.095100951223   110.19808279   172.55954309
 H      8   3   2     1.096336137798   109.72165079   179.23937878
 H      8   3   2     1.100517636195   108.66732466   296.71014641
 O      3   2   1     1.433595077007   111.20888274   180.21363932
 H      3   2   1     1.099059556737   109.02150964    65.03329165
 C      1   2   3     1.354110871968   120.85368625   232.50832514
 C      6   1   2     1.338006795500   123.31013212   130.06168039
 H     16   6   1     1.086402744886   121.37411768     0.67948040
 H     16   6   1     1.087434008735   120.95730460   181.36793916
 C     15   1   2     1.444452142092   126.47865764   175.01642281
 H     15   1   2     1.089143849229   116.14187581   357.80446059
 C     19  15   1     1.350419454530   126.39564603   175.66776098
 H     19  15   1     1.087632814658   115.91285667   354.91559737
 C     21  19  15     1.507654079190   125.67332794   356.83845697
 C     23  21  19     1.540022405271   111.87737617   127.95128974
 H     23  21  19     1.093461841522   112.32872407     3.77779568
 H     23  21  19     1.101934494633   107.73240409   246.63488586
 C     24  23  21     1.534804544294   112.70619778    50.65464951
 H     24  23  21     1.097274190671   109.09838049   288.52857326
 H     24  23  21     1.096951996626   109.14760374   172.57507972
 C     27  24  23     1.535494100414   111.84718179   306.23162858
 H     27  24  23     1.094723350665   108.84768712   182.67399096
 H     27  24  23     1.100454831113   109.24387344    66.22989714
 C     21  19  15     1.497967195823   122.80084066   177.45184958
 H     33  21  19     1.105854893295   106.30711463   124.08482089
 C     33  21  19     1.524942475417   121.00135857     1.78860587
 H     13   3   2     0.966562766072   107.54874791    62.64895454
 C     35  33  21     1.548706336430   103.58945181   196.64150720
 H     35  33  21     1.095071226787   112.18024835    74.65645831
 H     35  33  21     1.095673186222   110.73387744   315.01708499
 C     30  27  24     1.554517865691   116.06269790   166.22474299
 H     37  35  33     1.094595457205   111.74216332   248.93106015
 H     37  35  33     1.096735170024   110.49295755   130.37439654
 H     40  30  27     1.101929186425   106.38956766   320.58901500
 C     40  30  27     1.548054180464   118.91466333    80.79596596
 C     30  27  24     1.534238739027   111.10677987   294.40388905
 H     45  30  27     1.094272888069   111.32121027    66.34370176
 H     45  30  27     1.095504875794   110.71730371   306.25607097
 H     45  30  27     1.094623306956   111.67386665   186.28895020
 H     44  40  30     1.102812347337   106.84573530    62.07368742
 C     44  40  30     1.527874442148   113.42449093   303.03610338
 C     44  40  30     1.511714702508   108.59609426   176.64104698
 C     51  44  40     1.334158010291   126.25082664   112.56836762
 H     51  44  40     1.089144074551   114.85306833   294.22855034
 H     52  51  44     1.088858316711   118.73922052     1.04035505
 C     52  51  44     1.509296905265   126.27255885   180.51917877
 C     55  52  51     1.529786359478   113.10029964    14.36157250
 C     55  52  51     1.555469966175   110.87104985   247.88055362
 H     55  52  51     1.104234452829   106.70452932   132.95581489
 H     57  55  52     1.101717101752   106.77825782    65.45797193
 C     57  55  52     1.532310719249   112.09884091   307.06061845
 C     57  55  52     1.532284177812   111.63785594   183.91053966
 H     56  55  52     1.095023574134   110.81612992    49.27556096
 H     56  55  52     1.096829970843   111.14734301   289.20512401
 H     56  55  52     1.092739659839   111.20558937   169.04264025
 H     60  57  55     1.095383039420   110.36430775   184.49250069
 H     60  57  55     1.093776340448   112.28749849    64.35197799
 H     60  57  55     1.097925085851   110.55397293   303.58946869
 H     61  57  55     1.097927763940   110.35923094    56.95572694
 H     61  57  55     1.093385422218   112.50727419   296.10696167
 H     61  57  55     1.095504997072   110.36789275   175.94270170
 H     50  44  40     1.095508484682   110.59777942   187.60514289
 H     50  44  40     1.091840001006   111.06361521    68.14854645
 H     50  44  40     1.096392482691   111.45365820   307.80750619

---------------------------
INTERNAL COORDINATES (A.U.)
---------------------------
 C      0   0   0     0.000000000000     0.00000000     0.00000000
 C      1   0   0     2.854550666993     0.00000000     0.00000000
 C      2   1   0     2.897875740421   111.72289464     0.00000000
 H      2   1   3     2.085035702298   109.41939973   241.45002926
 H      2   1   3     2.070258948648   110.68401921   122.86607887
 C      1   2   3     2.793694634822   114.22855408    50.40515544
 C      6   1   2     2.857247969310   114.50243147   312.27532197
 C      3   2   1     2.880617110424   110.30932326   304.92222782
 H      7   6   1     2.079979962518   108.38185351   289.71464724
 H      7   6   1     2.069440886809   110.19808279   172.55954309
 H      8   3   2     2.071775051160   109.72165079   179.23937878
 H      8   3   2     2.079676937959   108.66732466   296.71014641
 O      3   2   1     2.709102082482   111.20888274   180.21363932
 H      3   2   1     2.076921567102   109.02150964    65.03329165
 C      1   2   3     2.558898702984   120.85368625   232.50832514
 C      6   1   2     2.528466408820   123.31013212   130.06168039
 H     16   6   1     2.053003658975   121.37411768     0.67948040
 H     16   6   1     2.054952465221   120.95730460   181.36793916
 C     15   1   2     2.729618962110   126.47865764   175.01642281
 H     15   1   2     2.058183595487   116.14187581   357.80446059
 C     19  15   1     2.551922934982   126.39564603   175.66776098
 H     19  15   1     2.055328153969   115.91285667   354.91559737
 C     21  19  15     2.849053314359   125.67332794   356.83845697
 C     23  21  19     2.910220586064   111.87737617   127.95128974
 H     23  21  19     2.066343418370   112.32872407     3.77779568
 H     23  21  19     2.082354412378   107.73240409   246.63488586
 C     24  23  21     2.900360257813   112.70619778    50.65464951
 H     24  23  21     2.073547714189   109.09838049   288.52857326
 H     24  23  21     2.072938855681   109.14760374   172.57507972
 C     27  24  23     2.901663330034   111.84718179   306.23162858
 H     27  24  23     2.068727325165   108.84768712   182.67399096
 H     27  24  23     2.079558253555   109.24387344    66.22989714
 C     21  19  15     2.830747757703   122.80084066   177.45184958
 H     33  21  19     2.089762892184   106.30711463   124.08482089
 C     33  21  19     2.881723648521   121.00135857     1.78860587
 H     13   3   2     1.826538919122   107.54874791    62.64895454
 C     35  33  21     2.926630837721   103.58945181   196.64150720
 H     35  33  21     2.069384715765   112.18024835    74.65645831
 H     35  33  21     2.070522254241   110.73387744   315.01708499
 C     30  27  24     2.937613036445   116.06269790   166.22474299
 H     37  35  33     2.068485641552   111.74216332   248.93106015
 H     37  35  33     2.072529112785   110.49295755   130.37439654
 H     40  30  27     2.082344381318   106.38956766   320.58901500
 C     40  30  27     2.925398441548   118.91466333    80.79596596
 C     30  27  24     2.899291040814   111.10677987   294.40388905
 H     45  30  27     2.067876074225   111.32121027    66.34370176
 H     45  30  27     2.070204193626   110.71730371   306.25607097
 H     45  30  27     2.068538269955   111.67386665   186.28895020
 H     44  40  30     2.084013313575   106.84573530    62.07368742
 C     44  40  30     2.887264262677   113.42449093   303.03610338
 C     44  40  30     2.856726780362   108.59609426   176.64104698
 C     51  44  40     2.521193258828   126.25082664   112.56836762
 H     51  44  40     2.058184021284   114.85306833   294.22855034
 H     52  51  44     2.057644017227   118.73922052     1.04035505
 C     52  51  44     2.852157805726   126.27255885   180.51917877
 C     55  52  51     2.890877262822   113.10029964    14.36157250
 C     55  52  51     2.939412245610   110.87104985   247.88055362
 H     55  52  51     2.086700703487   106.70452932   132.95581489
 H     57  55  52     2.081943599369   106.77825782    65.45797193
 C     57  55  52     2.895647611453   112.09884091   307.06061845
 C     57  55  52     2.895597455406   111.63785594   183.91053966
 H     56  55  52     2.069294665301   110.81612992    49.27556096
 H     56  55  52     2.072708260370   111.14734301   289.20512401
 H     56  55  52     2.064978692770   111.20558937   169.04264025
 H     60  57  55     2.069973956246   110.36430775   184.49250069
 H     60  57  55     2.066937735210   112.28749849    64.35197799
 H     60  57  55     2.074777727821   110.55397293   303.58946869
 H     61  57  55     2.074782788675   110.35923094    56.95572694
 H     61  57  55     2.066199006814   112.50727419   296.10696167
 H     61  57  55     2.070204422808   110.36789275   175.94270170
 H     50  44  40     2.070211013436   110.59777942   187.60514289
 H     50  44  40     2.063278583961   111.06361521    68.14854645
 H     50  44  40     2.071881527576   111.45365820   307.80750619

---------------------
BASIS SET INFORMATION
---------------------
There are 3 groups of distinct atoms

 Group   1 Type C   : 8s5p1d contracted to 3s3p1d pattern {521/311/1}
 Group   2 Type H   : 4s2p contracted to 2s1p pattern {31/2}
 Group   3 Type O   : 8s5p1d contracted to 3s3p1d pattern {521/311/1}

Atom   0C    basis set group =>   1
Atom   1C    basis set group =>   1
Atom   2C    basis set group =>   1
Atom   3H    basis set group =>   2
Atom   4H    basis set group =>   2
Atom   5C    basis set group =>   1
Atom   6C    basis set group =>   1
Atom   7C    basis set group =>   1
Atom   8H    basis set group =>   2
Atom   9H    basis set group =>   2
Atom  10H    basis set group =>   2
Atom  11H    basis set group =>   2
Atom  12O    basis set group =>   3
Atom  13H    basis set group =>   2
Atom  14C    basis set group =>   1
Atom  15C    basis set group =>   1
Atom  16H    basis set group =>   2
Atom  17H    basis set group =>   2
Atom  18C    basis set group =>   1
Atom  19H    basis set group =>   2
Atom  20C    basis set group =>   1
Atom  21H    basis set group =>   2
Atom  22C    basis set group =>   1
Atom  23C    basis set group =>   1
Atom  24H    basis set group =>   2
Atom  25H    basis set group =>   2
Atom  26C    basis set group =>   1
Atom  27H    basis set group =>   2
Atom  28H    basis set group =>   2
Atom  29C    basis set group =>   1
Atom  30H    basis set group =>   2
Atom  31H    basis set group =>   2
Atom  32C    basis set group =>   1
Atom  33H    basis set group =>   2
Atom  34C    basis set group =>   1
Atom  35H    basis set group =>   2
Atom  36C    basis set group =>   1
Atom  37H    basis set group =>   2
Atom  38H    basis set group =>   2
Atom  39C    basis set group =>   1
Atom  40H    basis set group =>   2
Atom  41H    basis set group =>   2
Atom  42H    basis set group =>   2
Atom  43C    basis set group =>   1
Atom  44C    basis set group =>   1
Atom  45H    basis set group =>   2
Atom  46H    basis set group =>   2
Atom  47H    basis set group =>   2
Atom  48H    basis set group =>   2
Atom  49C    basis set group =>   1
Atom  50C    basis set group =>   1
Atom  51C    basis set group =>   1
Atom  52H    basis set group =>   2
Atom  53H    basis set group =>   2
Atom  54C    basis set group =>   1
Atom  55C    basis set group =>   1
Atom  56C    basis set group =>   1
Atom  57H    basis set group =>   2
Atom  58H    basis set group =>   2
Atom  59C    basis set group =>   1
Atom  60C    basis set group =>   1
Atom  61H    basis set group =>   2
Atom  62H    basis set group =>   2
Atom  63H    basis set group =>   2
Atom  64H    basis set group =>   2
Atom  65H    basis set group =>   2
Atom  66H    basis set group =>   2
Atom  67H    basis set group =>   2
Atom  68H    basis set group =>   2
Atom  69H    basis set group =>   2
Atom  70H    basis set group =>   2
Atom  71H    basis set group =>   2
Atom  72H    basis set group =>   2

-------------------------
BASIS SET IN INPUT FORMAT
-------------------------

 # Basis set for element : H 
 NewGTO H 
 S 3 
   1      12.2518000000      0.0372173893
   2       1.8687100000      0.2538082070
   3       0.4182080000      0.7973867639
 S 1 
   1       0.1061000000      1.0000000000
 P 2 
   1       9.0000000000      0.0402678705
   2       1.0000000000      0.9880231245
  end;

 # Basis set for element : C 
 NewGTO C 
 S 5 
   1    1243.2000000000      0.0056300977
   2     187.1450000000      0.0419506039
   3      42.5126000000      0.1846643605
   4      11.7393000000      0.4665574214
   5       3.5054800000      0.4482347783
 S 2 
   1       5.3908900000     -0.1481148174
   2       0.4933410000      1.0519817143
 S 1 
   1       0.1497410000      1.0000000000
 P 3 
   1      59.6736000000      0.0113906672
   2       9.1805600000      0.1672414929
   3       1.9365800000      0.9041087436
 P 1 
   1       0.5262960000      1.0000000000
 P 1 
   1       0.1363190000      1.0000000000
 D 1 
   1       0.8000000000      1.0000000000
  end;

 # Basis set for element : O 
 NewGTO O 
 S 5 
   1    2288.6400000000      0.0054511382
   2     344.4160000000      0.0407189228
   3      78.2538000000      0.1813694209
   4      21.7195000000      0.4655368202
   5       6.5590700000      0.4512113212
 S 2 
   1      10.4656000000     -0.1502112012
   2       0.9643510000      1.0528679834
 S 1 
   1       0.2851270000      1.0000000000
 P 3 
   1     110.8840000000      0.0113058003
   2      17.0590000000      0.1699226452
   3       3.6899900000      0.9008060328
 P 1 
   1       0.9929960000      1.0000000000
 P 1 
   1       0.2449240000      1.0000000000
 D 1 
   1       1.0000000000      1.0000000000
  end;

---------------------------------
AUXILIARY/J BASIS SET INFORMATION
---------------------------------
There are 3 groups of distinct atoms

 Group   1 Type C   : 12s5p4d2f1g contracted to 6s4p3d1f1g pattern {711111/2111/211/2/1}
 Group   2 Type H   : 5s2p1d contracted to 3s1p1d pattern {311/2/1}
 Group   3 Type O   : 12s5p4d2f1g contracted to 6s4p3d1f1g pattern {711111/2111/211/2/1}

Atom   0C    basis set group =>   1
Atom   1C    basis set group =>   1
Atom   2C    basis set group =>   1
Atom   3H    basis set group =>   2
Atom   4H    basis set group =>   2
Atom   5C    basis set group =>   1
Atom   6C    basis set group =>   1
Atom   7C    basis set group =>   1
Atom   8H    basis set group =>   2
Atom   9H    basis set group =>   2
Atom  10H    basis set group =>   2
Atom  11H    basis set group =>   2
Atom  12O    basis set group =>   3
Atom  13H    basis set group =>   2
Atom  14C    basis set group =>   1
Atom  15C    basis set group =>   1
Atom  16H    basis set group =>   2
Atom  17H    basis set group =>   2
Atom  18C    basis set group =>   1
Atom  19H    basis set group =>   2
Atom  20C    basis set group =>   1
Atom  21H    basis set group =>   2
Atom  22C    basis set group =>   1
Atom  23C    basis set group =>   1
Atom  24H    basis set group =>   2
Atom  25H    basis set group =>   2
Atom  26C    basis set group =>   1
Atom  27H    basis set group =>   2
Atom  28H    basis set group =>   2
Atom  29C    basis set group =>   1
Atom  30H    basis set group =>   2
Atom  31H    basis set group =>   2
Atom  32C    basis set group =>   1
Atom  33H    basis set group =>   2
Atom  34C    basis set group =>   1
Atom  35H    basis set group =>   2
Atom  36C    basis set group =>   1
Atom  37H    basis set group =>   2
Atom  38H    basis set group =>   2
Atom  39C    basis set group =>   1
Atom  40H    basis set group =>   2
Atom  41H    basis set group =>   2
Atom  42H    basis set group =>   2
Atom  43C    basis set group =>   1
Atom  44C    basis set group =>   1
Atom  45H    basis set group =>   2
Atom  46H    basis set group =>   2
Atom  47H    basis set group =>   2
Atom  48H    basis set group =>   2
Atom  49C    basis set group =>   1
Atom  50C    basis set group =>   1
Atom  51C    basis set group =>   1
Atom  52H    basis set group =>   2
Atom  53H    basis set group =>   2
Atom  54C    basis set group =>   1
Atom  55C    basis set group =>   1
Atom  56C    basis set group =>   1
Atom  57H    basis set group =>   2
Atom  58H    basis set group =>   2
Atom  59C    basis set group =>   1
Atom  60C    basis set group =>   1
Atom  61H    basis set group =>   2
Atom  62H    basis set group =>   2
Atom  63H    basis set group =>   2
Atom  64H    basis set group =>   2
Atom  65H    basis set group =>   2
Atom  66H    basis set group =>   2
Atom  67H    basis set group =>   2
Atom  68H    basis set group =>   2
Atom  69H    basis set group =>   2
Atom  70H    basis set group =>   2
Atom  71H    basis set group =>   2
Atom  72H    basis set group =>   2

-------------------------------------
AUXILIARY/J BASIS SET IN INPUT FORMAT
-------------------------------------

 # Auxiliary/J basis set for element : H 
 NewAuxJGTO H 
 S 3 
   1      15.6752927000      0.1007184237
   2       3.6063578000      0.3404257499
   3       1.2080016000      0.6491996172
 S 1 
   1       0.4726794000      1.0000000000
 S 1 
   1       0.2018100000      1.0000000000
 P 2 
   1       2.0281365000      0.5596620919
   2       0.5358730000      0.5596620919
 D 1 
   1       2.2165124000      1.0000000000
  end;

 # Auxiliary/J basis set for element : C 
 NewAuxJGTO C 
 S 7 
   1    1861.0916331000      0.0134602335
   2     642.9939764000      0.0299160374
   3     235.1105725000      0.1008649584
   4      90.7028894000      0.2370970548
   5      36.7794552000      0.3924037254
   6      15.6046273000      0.3195862154
   7       6.8907294000      0.0530104441
 S 1 
   1       3.1478850000     -1.0000000000
 S 1 
   1       1.4777287000      1.0000000000
 S 1 
   1       0.7076466000      1.0000000000
 S 1 
   1       0.3430122000      1.0000000000
 S 1 
   1       0.1669453000      1.0000000000
 P 2 
   1      13.5472892000     -0.6769313712
   2       5.4669419000     -0.3779500978
 P 1 
   1       2.1751721000      1.0000000000
 P 1 
   1       0.8582194000      1.0000000000
 P 1 
   1       0.3376720000      1.0000000000
 D 2 
   1       5.9287253000     -0.3533329857
   2       1.9809209000     -0.7456525731
 D 1 
   1       0.8055417000     -1.0000000000
 D 1 
   1       0.3531244000     -1.0000000000
 F 2 
   1       1.6755626000      0.6311076882
   2       0.5997536000      0.4968166032
 G 1 
   1       1.0024600000     -1.0000000000
  end;

 # Auxiliary/J basis set for element : O 
 NewAuxJGTO O 
 S 7 
   1    2876.8216605000      0.0168151159
   2    1004.7443032000      0.0340137548
   3     369.7579954000      0.1194951309
   4     142.9442404000      0.2664627624
   5      57.8366425000      0.4202764046
   6      24.3864983000      0.2765077335
   7      10.6622662000      0.0057008815
 S 1 
   1       4.8070437000     -1.0000000000
 S 1 
   1       2.2210770000      1.0000000000
 S 1 
   1       1.0447795000      1.0000000000
 S 1 
   1       0.4968425000      1.0000000000
 S 1 
   1       0.2371384000      1.0000000000
 P 2 
   1      64.2613382000     -0.2731534179
   2      16.3006076000     -0.8168011598
 P 1 
   1       4.3550542000      1.0000000000
 P 1 
   1       1.2019554000      1.0000000000
 P 1 
   1       0.3354196000      1.0000000000
 D 2 
   1       9.2146611000     -0.4661230638
   2       2.8435251000     -0.6600908911
 D 1 
   1       0.9955759000     -1.0000000000
 D 1 
   1       0.3649441000     -1.0000000000
 F 2 
   1       2.6420115000      0.5931563945
   2       0.7345613000      0.5931563945
 G 1 
   1       1.3931000000     -1.0000000000
  end;



           ************************************************************
           *        Program running with 4 parallel MPI-processes     *
           *              working on a common directory               *
           ************************************************************
------------------------------------------------------------------------------
                           ORCA GTO INTEGRAL CALCULATION
                           -- RI-GTO INTEGRALS CHOSEN --
------------------------------------------------------------------------------
------------------------------------------------------------------------------
                   ___                                                        
                  /   \      - P O W E R E D   B Y -                         
                 /     \                                                     
                 |  |  |   _    _      __       _____    __    __             
                 |  |  |  | |  | |    /  \     |  _  \  |  |  /  |          
                  \  \/   | |  | |   /    \    | | | |  |  | /  /          
                 / \  \   | |__| |  /  /\  \   | |_| |  |  |/  /          
                |  |  |   |  __  | /  /__\  \  |    /   |      \           
                |  |  |   | |  | | |   __   |  |    \   |  |\   \          
                \     /   | |  | | |  |  |  |  | |\  \  |  | \   \       
                 \___/    |_|  |_| |__|  |__|  |_| \__\ |__|  \__/        
                                                                              
                      - O R C A' S   B I G   F R I E N D -                    
                                      &                                       
                       - I N T E G R A L  F E E D E R -                       
                                                                              
 v1 FN, 2020, v2 2021                                                         
------------------------------------------------------------------------------


Reading SHARK input file inpS.SHARKINP.tmp ... ok
----------------------
SHARK INTEGRAL PACKAGE
----------------------

Number of atoms                             ...     73
Number of basis functions                   ...    713
Number of shells                            ...    335
Maximum angular momentum                    ...      2
Integral batch strategy                     ... SHARK/LIBINT Hybrid
RI-J (if used) integral strategy            ... SPLIT-RIJ (Revised 2003 algorithm where possible)
Printlevel                                  ...      1
Contraction scheme used                     ... SEGMENTED contraction
Coulomb Range Separation                    ... NOT USED
Exchange Range Separation                   ... NOT USED
Finite Nucleus Model                        ... NOT USED
Auxiliary Coulomb fitting basis             ... AVAILABLE
   # of basis functions in Aux-J            ...   1905
   # of shells in Aux-J                     ...    655
   Maximum angular momentum in Aux-J        ...      4
Auxiliary J/K fitting basis                 ... NOT available
Auxiliary Correlation fitting basis         ... NOT available
Auxiliary 'external' fitting basis          ... NOT available
Integral threshold                          ...     3.000000e-11
Primitive cut-off                           ...     1.000000e-12
Primitive pair pre-selection threshold      ...     1.000000e-12

Calculating pre-screening integrals         ... done (  0.0 sec) Dimension = 335
Organizing shell pair data                  ... done (  0.2 sec)
Shell pair information
Total number of shell pairs                 ...     56280
Shell pairs after pre-screening             ...     30948
Total number of primitive shell pairs       ...    225367
Primitive shell pairs kept                  ...     73065
          la=0 lb=0:   9443 shell pairs
          la=1 lb=0:  12710 shell pairs
          la=1 lb=1:   4166 shell pairs
          la=2 lb=0:   2710 shell pairs
          la=2 lb=1:   1725 shell pairs
          la=2 lb=2:    194 shell pairs

Calculating one electron integrals          ... done (  0.1 sec)
Calculating RI/J V-Matrix + Cholesky decomp.... done (  0.1 sec)
Calculating Nuclear repulsion               ... done (  0.0 sec) ENN=   2745.542728537786 Eh

SHARK setup successfully completed in   0.6 seconds

Maximum memory used throughout the entire GTOINT-calculation: 60.6 MB


           ************************************************************
           *        Program running with 4 parallel MPI-processes     *
           *              working on a common directory               *
           ************************************************************
-------------------------------------------------------------------------------
                                 ORCA SCF
-------------------------------------------------------------------------------

------------
SCF SETTINGS
------------
Hamiltonian:
 Density Functional     Method          .... DFT(GTOs)
 Exchange Functional    Exchange        .... revTPSS
 Correlation Functional Correlation     .... revTPSS
 LDA part of GGA corr.  LDAOpt          .... PW91-LDA
 Gradients option       PostSCFGGA      .... off
   Density functional embedding theory  .... OFF
 RI-approximation to the Coulomb term is turned on
   Number of AuxJ basis functions       .... 1905


General Settings:
 Integral files         IntName         .... inpS
 Hartree-Fock type      HFTyp           .... RHF
 Total Charge           Charge          ....    0
 Multiplicity           Mult            ....    1
 Number of Electrons    NEL             ....  220
 Basis Dimension        Dim             ....  713
 Nuclear Repulsion      ENuc            ....   2745.5427285378 Eh

Convergence Acceleration:
 DIIS                   CNVDIIS         .... on
   Start iteration      DIISMaxIt       ....    12
   Startup error        DIISStart       ....  0.200000
   # of expansion vecs  DIISMaxEq       ....     5
   Bias factor          DIISBfac        ....   1.050
   Max. coefficient     DIISMaxC        ....  10.000
 Trust-Rad. Augm. Hess. CNVTRAH         .... auto
   Auto Start mean grad. ratio tolernc. ....  1.125000
   Auto Start start iteration           ....    20
   Auto Start num. interpolation iter.  ....    10
   Max. Number of Micro iterations      ....    16
   Max. Number of Macro iterations      .... Maxiter - #DIIS iter
   Number of Davidson start vectors     ....     2
   Converg. threshold I  (grad. norm)   ....   1.000e-04
   Converg. threshold II (energy diff.) ....   1.000e-07
   Grad. Scal. Fac. for Micro threshold ....   0.100
   Minimum threshold for Micro iter.    ....   0.010
   NR start threshold (gradient norm)   ....   0.001
   Initial trust radius                 ....   0.400
   Minimum AH scaling param. (alpha)    ....   1.000
   Maximum AH scaling param. (alpha)    .... 1000.000
   Orbital update algorithm             .... Taylor
   White noise on init. David. guess    .... on
   Maximum white noise                  ....   0.010
   Quad. conv. algorithm                .... NR
 SOSCF                  CNVSOSCF        .... off
 Level Shifting         CNVShift        .... on
   Level shift para.    LevelShift      ....    0.2500
   Turn off err/grad.   ShiftErr        ....    0.0010
 Zerner damping         CNVZerner       .... off
 Static damping         CNVDamp         .... on
   Fraction old density DampFac         ....    0.7000
   Max. Damping (<1)    DampMax         ....    0.9800
   Min. Damping (>=0)   DampMin         ....    0.0000
   Turn off err/grad.   DampErr         ....    0.1000
 Fernandez-Rico         CNVRico         .... off

SCF Procedure:
 Maximum # iterations   MaxIter         ....   125
 SCF integral mode      SCFMode         .... Direct
   Integral package                     .... SHARK and LIBINT hybrid scheme
 Reset frequency        DirectResetFreq ....    20
 Integral Threshold     Thresh          ....  3.000e-11 Eh
 Primitive CutOff       TCut            ....  1.000e-12 Eh

Convergence Tolerance:
 Convergence Check Mode ConvCheckMode   .... Total+1el-Energy
 Convergence forced     ConvForced      .... 0
 Energy Change          TolE            ....  1.000e-07 Eh
 1-El. energy change                    ....  1.000e-04 Eh
 DIIS Error             TolErr          ....  1.000e-07


Diagonalization of the overlap matrix:
Smallest eigenvalue                        ... 5.067e-04
Time for diagonalization                   ...    0.063 sec
Threshold for overlap eigenvalues          ... 1.000e-08
Number of eigenvalues below threshold      ... 0
Time for construction of square roots      ...    0.073 sec
Total time needed                          ...    0.138 sec

Time for model grid setup =    0.932 sec

------------------------------
INITIAL GUESS: MODEL POTENTIAL
------------------------------
Loading Hartree-Fock densities                     ... done
Calculating cut-offs                               ... done
Initializing the effective Hamiltonian             ... done
Setting up the integral package (SHARK)            ... done
Starting the Coulomb interaction                   ... done (   1.2 sec)
Reading the grid                                   ... done
Mapping shells                                     ... done
Starting the XC term evaluation                    ... done (   0.5 sec)
  promolecular density results
     # of electrons  =    219.975241093
     EX              =   -164.434368518
     EC              =     -7.327164842
     EX+EC           =   -171.761533360
Transforming the Hamiltonian                       ... done (   0.1 sec)
Diagonalizing the Hamiltonian                      ... done (   0.1 sec)
Back transforming the eigenvectors                 ... done (   0.0 sec)
Now organizing SCF variables                       ... done
                      ------------------
                      INITIAL GUESS DONE (   2.8 sec)
                      ------------------
-------------------
DFT GRID GENERATION
-------------------

General Integration Accuracy     IntAcc      ... 4.388
Radial Grid Type                 RadialGrid  ... OptM3 with GC (2021)
Angular Grid (max. ang.)         AngularGrid ... 4 (Lebedev-302)
Angular grid pruning method      GridPruning ... 4 (adaptive)
Weight generation scheme         WeightScheme... Becke
Basis function cutoff            BFCut       ... 1.0000e-11
Integration weight cutoff        WCut        ... 1.0000e-14
Angular grids for H and He will be reduced by one unit
Partially contracted basis set               ... off
Rotationally invariant grid construction     ... off

Total number of grid points                  ...   309922
Total number of batches                      ...     4881
Average number of points per batch           ...       63
Average number of grid points per atom       ...     4246
Time for grid setup =    2.886 sec


--------------------
CPCM SOLVATION MODEL
--------------------
CPCM parameters:
  Epsilon                                         ...       4.9000
  Refrac                                          ...       1.4500
  Rsolv                                           ...       1.3000
  Surface type                                    ... GAUSSIAN VDW
  Epsilon function type                           ...         CPCM
Radii:
 Radius for C  used is    3.8550 Bohr (=   2.0400 Ang.)
 Radius for H  used is    2.4944 Bohr (=   1.3200 Ang.)
 Radius for O  used is    3.4469 Bohr (=   1.8240 Ang.)
Calculating surface                               ...        done! (  0.0s)
GEPOL surface points                              ...         3624
GEPOL Volume                                      ...    3584.5581
GEPOL Surface-area                                ...    1780.6205
Calculating surface distance matrix               ...        done! (  0.1s)
Performing Cholesky decomposition & store         ...        done! (  0.4s)
Overall time for CPCM initialization              ...                 0.5s
--------------
SCF ITERATIONS
--------------
ITER       Energy         Delta-E        Max-DP      RMS-DP      [F,P]     Damp
               ***  Starting incremental Fock matrix formation  ***

  HOMO= 109 E= -1.865 eV LUMO=  7.827 eV gap=   9.691 eV
  0  -1167.5234401620   0.000000000000 0.05289977  0.00082782  0.2619715 0.7000

  HOMO= 109 E= -3.346 eV LUMO=  6.713 eV gap=  10.059 eV
  1  -1167.8957107738  -0.372270611718 0.02889775  0.00061153  0.1021581 0.7000
                               ***Turning on DIIS***

  HOMO= 109 E= -4.322 eV LUMO=  5.822 eV gap=  10.144 eV
  2  -1168.0420507606  -0.146339986860 0.05170300  0.00101022  0.0304793 0.0000

  HOMO= 109 E= -4.951 eV LUMO=  5.230 eV gap=  10.180 eV
  3  -1168.2386145708  -0.196563810213 0.02313503  0.00047005  0.0538311 0.0000

  HOMO= 109 E= -4.988 eV LUMO=  5.193 eV gap=  10.180 eV
  4  -1168.3057450495  -0.067130478693 0.00756657  0.00015219  0.0103495 0.0000

  HOMO= 109 E= -4.939 eV LUMO=  5.249 eV gap=  10.188 eV
  5  -1168.3088147016  -0.003069652038 0.00313940  0.00005685  0.0094457 0.0000

  HOMO= 109 E= -4.919 eV LUMO=  5.266 eV gap=  10.185 eV
  6  -1168.3090891548  -0.000274453236 0.00121532  0.00001924  0.0027789 0.0000

  HOMO= 109 E= -4.921 eV LUMO= -1.539 eV gap=   3.382 eV
  7  -1168.3091085557  -0.000019400943 0.00072046  0.00001171  0.0005670 0.0000

  HOMO= 109 E= -4.919 eV LUMO= -1.537 eV gap=   3.382 eV
  8  -1168.3091115946  -0.000003038807 0.00026964  0.00000289  0.0003806 0.0000

  HOMO= 109 E= -4.917 eV LUMO= -1.535 eV gap=   3.382 eV
  9  -1168.3091121911  -0.000000596578 0.00017321  0.00000158  0.0002806 0.0000

  HOMO= 109 E= -4.918 eV LUMO= -1.536 eV gap=   3.382 eV
 10  -1168.3091124772  -0.000000286085 0.00006313  0.00000071  0.0001049 0.0000

  HOMO= 109 E= -4.918 eV LUMO= -1.536 eV gap=   3.382 eV
 11  -1168.3091125102  -0.000000033012 0.00002672  0.00000028  0.0000338 0.0000

  HOMO= 109 E= -4.918 eV LUMO= -1.536 eV gap=   3.382 eV
 12  -1168.3091124846   0.000000025614 0.00001251  0.00000012  0.0000176 0.0000

  HOMO= 109 E= -4.918 eV LUMO= -1.536 eV gap=   3.382 eV
 13  -1168.3091125253  -0.000000040690 0.00000612  0.00000005  0.0000085 0.0000
                 **** Energy Check signals convergence ****

               *****************************************************
               *                     SUCCESS                       *
               *           SCF CONVERGED AFTER  14 CYCLES          *
               *****************************************************


----------------
TOTAL SCF ENERGY
----------------

Total Energy       :        -1168.30911255 Eh          -31791.30719 eV

Components:
Nuclear Repulsion  :         2745.54272854 Eh           74710.01583 eV
Electronic Energy  :        -3913.85184109 Eh         -106501.32302 eV
One Electron Energy:        -7037.44514155 Eh         -191498.61790 eV
Two Electron Energy:         3123.59330046 Eh           84997.29488 eV
CPCM Dielectric    :           -0.01044040 Eh              -0.28410 eV

Virial components:
Potential Energy   :        -2330.41290107 Eh          -63413.75893 eV
Kinetic Energy     :         1162.10378852 Eh           31622.45174 eV
Virial Ratio       :            2.00533973


DFT components:
N(Alpha)           :      110.000251125600 electrons
N(Beta)            :      110.000251125600 electrons
N(Total)           :      220.000502251199 electrons
E(X)               :     -169.584627926593 Eh       
E(C)               :       -7.442914390016 Eh       
E(XC)              :     -177.027542316609 Eh       
DFET-embed. en.    :        0.000000000000 Eh       
CPCM Solvation Model Properties:
Surface-charge          :           -0.04577371
Charge-correction       :           -0.00002932 Eh              -0.00080 eV
Free-energy (cav+disp)  :  This term is not implemented in the current solvation scheme

---------------
SCF CONVERGENCE
---------------

  Last Energy change         ...   -2.3431e-08  Tolerance :   1.0000e-07
  Last MAX-Density change    ...    3.0004e-06  Tolerance :   1.0000e-05
  Last RMS-Density change    ...    2.8133e-08  Tolerance :   1.0000e-06
  Last DIIS Error            ...    3.5160e-06  Tolerance :   1.0000e-07

             **** THE GBW FILE WAS UPDATED (inpS.gbw) ****
             **** DENSITY inpS.scfp WAS UPDATED ****
             **** ENERGY FILE WAS UPDATED (inpS.en.tmp) ****
             **** THE GBW FILE WAS UPDATED (inpS.gbw) ****
             **** DENSITY inpS.scfp WAS UPDATED ****
----------------
ORBITAL ENERGIES
----------------

  NO   OCC          E(Eh)            E(eV) 
   0   2.0000     -18.905638      -514.4486 
   1   2.0000     -10.057111      -273.6679 
   2   2.0000     -10.015964      -272.5482 
   3   2.0000     -10.013513      -272.4815 
   4   2.0000     -10.013417      -272.4789 
   5   2.0000     -10.011641      -272.4306 
   6   2.0000     -10.011552      -272.4282 
   7   2.0000     -10.010655      -272.4038 
   8   2.0000     -10.010264      -272.3931 
   9   2.0000     -10.008973      -272.3580 
  10   2.0000     -10.008489      -272.3448 
  11   2.0000     -10.007864      -272.3278 
  12   2.0000     -10.006802      -272.2989 
  13   2.0000     -10.006758      -272.2977 
  14   2.0000     -10.006616      -272.2939 
  15   2.0000     -10.005924      -272.2750 
  16   2.0000     -10.004138      -272.2264 
  17   2.0000     -10.001086      -272.1434 
  18   2.0000     -10.000366      -272.1238 
  19   2.0000     -10.000172      -272.1185 
  20   2.0000      -9.999731      -272.1065 
  21   2.0000      -9.998561      -272.0747 
  22   2.0000      -9.996710      -272.0243 
  23   2.0000      -9.995929      -272.0031 
  24   2.0000      -9.995767      -271.9987 
  25   2.0000      -9.995738      -271.9979 
  26   2.0000      -9.995653      -271.9955 
  27   2.0000      -9.995468      -271.9905 
  28   2.0000      -9.995165      -271.9823 
  29   2.0000      -0.955915       -26.0118 
  30   2.0000      -0.807425       -21.9712 
  31   2.0000      -0.791097       -21.5268 
  32   2.0000      -0.770338       -20.9620 
  33   2.0000      -0.756761       -20.5925 
  34   2.0000      -0.734475       -19.9861 
  35   2.0000      -0.727998       -19.8098 
  36   2.0000      -0.708753       -19.2861 
  37   2.0000      -0.708130       -19.2692 
  38   2.0000      -0.693632       -18.8747 
  39   2.0000      -0.675778       -18.3888 
  40   2.0000      -0.658304       -17.9134 
  41   2.0000      -0.651280       -17.7222 
  42   2.0000      -0.635822       -17.3016 
  43   2.0000      -0.627720       -17.0811 
  44   2.0000      -0.623340       -16.9620 
  45   2.0000      -0.616439       -16.7742 
  46   2.0000      -0.592479       -16.1222 
  47   2.0000      -0.589061       -16.0292 
  48   2.0000      -0.560301       -15.2466 
  49   2.0000      -0.549138       -14.9428 
  50   2.0000      -0.547701       -14.9037 
  51   2.0000      -0.537391       -14.6232 
  52   2.0000      -0.527271       -14.3478 
  53   2.0000      -0.514313       -13.9952 
  54   2.0000      -0.489439       -13.3183 
  55   2.0000      -0.474477       -12.9112 
  56   2.0000      -0.468590       -12.7510 
  57   2.0000      -0.463993       -12.6259 
  58   2.0000      -0.451317       -12.2810 
  59   2.0000      -0.447041       -12.1646 
  60   2.0000      -0.438084       -11.9209 
  61   2.0000      -0.430022       -11.7015 
  62   2.0000      -0.415488       -11.3060 
  63   2.0000      -0.413891       -11.2625 
  64   2.0000      -0.411760       -11.2045 
  65   2.0000      -0.408080       -11.1044 
  66   2.0000      -0.402144       -10.9429 
  67   2.0000      -0.396910       -10.8005 
  68   2.0000      -0.395947       -10.7743 
  69   2.0000      -0.394500       -10.7349 
  70   2.0000      -0.386469       -10.5164 
  71   2.0000      -0.385616       -10.4931 
  72   2.0000      -0.378582       -10.3017 
  73   2.0000      -0.374918       -10.2020 
  74   2.0000      -0.371468       -10.1082 
  75   2.0000      -0.366438        -9.9713 
  76   2.0000      -0.359716        -9.7884 
  77   2.0000      -0.356974        -9.7138 
  78   2.0000      -0.353411        -9.6168 
  79   2.0000      -0.348193        -9.4748 
  80   2.0000      -0.346385        -9.4256 
  81   2.0000      -0.344764        -9.3815 
  82   2.0000      -0.341730        -9.2990 
  83   2.0000      -0.335583        -9.1317 
  84   2.0000      -0.331254        -9.0139 
  85   2.0000      -0.325278        -8.8513 
  86   2.0000      -0.323402        -8.8002 
  87   2.0000      -0.320617        -8.7244 
  88   2.0000      -0.316151        -8.6029 
  89   2.0000      -0.315749        -8.5920 
  90   2.0000      -0.308913        -8.4059 
  91   2.0000      -0.307905        -8.3785 
  92   2.0000      -0.300028        -8.1642 
  93   2.0000      -0.295457        -8.0398 
  94   2.0000      -0.289660        -7.8820 
  95   2.0000      -0.288556        -7.8520 
  96   2.0000      -0.285372        -7.7654 
  97   2.0000      -0.284110        -7.7310 
  98   2.0000      -0.281073        -7.6484 
  99   2.0000      -0.279064        -7.5937 
 100   2.0000      -0.276097        -7.5130 
 101   2.0000      -0.273937        -7.4542 
 102   2.0000      -0.271631        -7.3915 
 103   2.0000      -0.266715        -7.2577 
 104   2.0000      -0.261244        -7.1088 
 105   2.0000      -0.250190        -6.8080 
 106   2.0000      -0.233560        -6.3555 
 107   2.0000      -0.227367        -6.1870 
 108   2.0000      -0.212272        -5.7762 
 109   2.0000      -0.180726        -4.9178 
 110   0.0000      -0.056438        -1.5358 
 111   0.0000      -0.013105        -0.3566 
 112   0.0000      -0.003406        -0.0927 
 113   0.0000       0.031702         0.8627 
 114   0.0000       0.041895         1.1400 
 115   0.0000       0.044132         1.2009 
 116   0.0000       0.048320         1.3149 
 117   0.0000       0.049289         1.3412 
 118   0.0000       0.050803         1.3824 
 119   0.0000       0.055422         1.5081 
 120   0.0000       0.059581         1.6213 
 121   0.0000       0.064198         1.7469 
 122   0.0000       0.068825         1.8728 
 123   0.0000       0.072529         1.9736 
 124   0.0000       0.074573         2.0292 
 125   0.0000       0.077945         2.1210 
 126   0.0000       0.083085         2.2609 
 127   0.0000       0.085257         2.3199 
 128   0.0000       0.089993         2.4488 
 129   0.0000       0.092488         2.5167 
 130   0.0000       0.096391         2.6229 
 131   0.0000       0.101745         2.7686 
 132   0.0000       0.104515         2.8440 
 133   0.0000       0.107712         2.9310 
 134   0.0000       0.108176         2.9436 
 135   0.0000       0.110205         2.9988 
 136   0.0000       0.112846         3.0707 
 137   0.0000       0.120429         3.2770 
 138   0.0000       0.121590         3.3086 
 139   0.0000       0.124163         3.3787 
 140   0.0000       0.126260         3.4357 
 141   0.0000       0.127651         3.4735 
 142   0.0000       0.130448         3.5497 
 143   0.0000       0.134619         3.6632 
 144   0.0000       0.136443         3.7128 
 145   0.0000       0.140417         3.8209 
 146   0.0000       0.144696         3.9374 
 147   0.0000       0.146438         3.9848 
 148   0.0000       0.147763         4.0208 
 149   0.0000       0.150917         4.1066 
 150   0.0000       0.153684         4.1819 
 151   0.0000       0.157910         4.2970 
 152   0.0000       0.161745         4.4013 
 153   0.0000       0.162794         4.4299 
 154   0.0000       0.166835         4.5398 
 155   0.0000       0.169301         4.6069 
 156   0.0000       0.174595         4.7510 
 157   0.0000       0.177973         4.8429 
 158   0.0000       0.183812         5.0018 
 159   0.0000       0.187081         5.0907 
 160   0.0000       0.191191         5.2026 
 161   0.0000       0.194268         5.2863 
 162   0.0000       0.197743         5.3809 
 163   0.0000       0.198743         5.4081 
 164   0.0000       0.202141         5.5005 
 165   0.0000       0.203222         5.5299 
 166   0.0000       0.207778         5.6539 
 167   0.0000       0.210190         5.7196 
 168   0.0000       0.214491         5.8366 
 169   0.0000       0.219207         5.9649 
 170   0.0000       0.224595         6.1115 
 171   0.0000       0.227873         6.2007 
 172   0.0000       0.229673         6.2497 
 173   0.0000       0.230554         6.2737 
 174   0.0000       0.231824         6.3083 
 175   0.0000       0.242198         6.5905 
 176   0.0000       0.250983         6.8296 
 177   0.0000       0.257447         7.0055 
 178   0.0000       0.263992         7.1836 
 179   0.0000       0.269611         7.3365 
 180   0.0000       0.273583         7.4446 
 181   0.0000       0.286301         7.7907 
 182   0.0000       0.292137         7.9494 
 183   0.0000       0.295675         8.0457 
 184   0.0000       0.298923         8.1341 
 185   0.0000       0.331365         9.0169 
 186   0.0000       0.334087         9.0910 
 187   0.0000       0.338786         9.2188 
 188   0.0000       0.343534         9.3480 
 189   0.0000       0.351322         9.5599 
 190   0.0000       0.355978         9.6867 
 191   0.0000       0.360995         9.8232 
 192   0.0000       0.362415         9.8618 
 193   0.0000       0.370635        10.0855 
 194   0.0000       0.371961        10.1216 
 195   0.0000       0.380014        10.3407 
 196   0.0000       0.383065        10.4237 
 197   0.0000       0.387718        10.5504 
 198   0.0000       0.396336        10.7848 
 199   0.0000       0.397390        10.8135 
 200   0.0000       0.402049        10.9403 
 201   0.0000       0.406227        11.0540 
 202   0.0000       0.408862        11.1257 
 203   0.0000       0.418890        11.3986 
 204   0.0000       0.429339        11.6829 
 205   0.0000       0.434098        11.8124 
 206   0.0000       0.440081        11.9752 
 207   0.0000       0.442796        12.0491 
 208   0.0000       0.453321        12.3355 
 209   0.0000       0.458665        12.4809 
 210   0.0000       0.461883        12.5685 
 211   0.0000       0.467404        12.7187 
 212   0.0000       0.470448        12.8015 
 213   0.0000       0.471868        12.8402 
 214   0.0000       0.476589        12.9686 
 215   0.0000       0.479901        13.0588 
 216   0.0000       0.488612        13.2958 
 217   0.0000       0.489563        13.3217 
 218   0.0000       0.494220        13.4484 
 219   0.0000       0.504223        13.7206 
 220   0.0000       0.507511        13.8101 
 221   0.0000       0.509120        13.8539 
 222   0.0000       0.514542        14.0014 
 223   0.0000       0.525018        14.2865 
 224   0.0000       0.528663        14.3856 
 225   0.0000       0.533999        14.5309 
 226   0.0000       0.539268        14.6742 
 227   0.0000       0.543948        14.8016 
 228   0.0000       0.546245        14.8641 
 229   0.0000       0.549592        14.9552 
 230   0.0000       0.552813        15.0428 
 231   0.0000       0.556298        15.1376 
 232   0.0000       0.557756        15.1773 
 233   0.0000       0.565640        15.3918 
 234   0.0000       0.566866        15.4252 
 235   0.0000       0.567446        15.4410 
 236   0.0000       0.571492        15.5511 
 237   0.0000       0.575108        15.6495 
 238   0.0000       0.578275        15.7357 
 239   0.0000       0.579487        15.7687 
 240   0.0000       0.582517        15.8511 
 241   0.0000       0.585313        15.9272 
 242   0.0000       0.590558        16.0699 
 243   0.0000       0.591428        16.0936 
 244   0.0000       0.592682        16.1277 
 245   0.0000       0.596605        16.2344 
 246   0.0000       0.598118        16.2756 
 247   0.0000       0.599162        16.3040 
 248   0.0000       0.603705        16.4277 
 249   0.0000       0.604279        16.4433 
 250   0.0000       0.606378        16.5004 
 251   0.0000       0.610980        16.6256 
 252   0.0000       0.612566        16.6688 
 253   0.0000       0.613870        16.7042 
 254   0.0000       0.615374        16.7452 
 255   0.0000       0.620019        16.8716 
 256   0.0000       0.626912        17.0591 
 257   0.0000       0.627895        17.0859 
 258   0.0000       0.629585        17.1319 
 259   0.0000       0.631310        17.1788 
 260   0.0000       0.634049        17.2534 
 261   0.0000       0.635585        17.2952 
 262   0.0000       0.636650        17.3241 
 263   0.0000       0.641852        17.4657 
 264   0.0000       0.643840        17.5198 
 265   0.0000       0.647386        17.6163 
 266   0.0000       0.650471        17.7002 
 267   0.0000       0.652850        17.7650 
 268   0.0000       0.655530        17.8379 
 269   0.0000       0.658195        17.9104 
 270   0.0000       0.659556        17.9474 
 271   0.0000       0.663246        18.0478 
 272   0.0000       0.664088        18.0707 
 273   0.0000       0.668450        18.1895 
 274   0.0000       0.669442        18.2164 
 275   0.0000       0.672988        18.3129 
 276   0.0000       0.677485        18.4353 
 277   0.0000       0.682423        18.5697 
 278   0.0000       0.687416        18.7055 
 279   0.0000       0.690020        18.7764 
 280   0.0000       0.691954        18.8290 
 281   0.0000       0.694609        18.9013 
 282   0.0000       0.698198        18.9989 
 283   0.0000       0.700571        19.0635 
 284   0.0000       0.707784        19.2598 
 285   0.0000       0.712138        19.3783 
 286   0.0000       0.716328        19.4923 
 287   0.0000       0.721156        19.6237 
 288   0.0000       0.723958        19.6999 
 289   0.0000       0.730124        19.8677 
 290   0.0000       0.741396        20.1744 
 291   0.0000       0.747268        20.3342 
 292   0.0000       0.747743        20.3471 
 293   0.0000       0.757009        20.5993 
 294   0.0000       0.767058        20.8727 
 295   0.0000       0.768067        20.9002 
 296   0.0000       0.772777        21.0283 
 297   0.0000       0.780084        21.2272 
 298   0.0000       0.790503        21.5107 
 299   0.0000       0.792321        21.5602 
 300   0.0000       0.795280        21.6407 
 301   0.0000       0.803706        21.8700 
 302   0.0000       0.819932        22.3115 
 303   0.0000       0.829706        22.5774 
 304   0.0000       0.835922        22.7466 
 305   0.0000       0.849655        23.1203 
 306   0.0000       0.863505        23.4972 
 307   0.0000       0.884181        24.0598 
 308   0.0000       0.893864        24.3233 
 309   0.0000       0.913638        24.8613 
 310   0.0000       0.915842        24.9213 
 311   0.0000       0.930513        25.3206 
 312   0.0000       0.942535        25.6477 
 313   0.0000       0.953433        25.9442 
 314   0.0000       0.964330        26.2407 
 315   0.0000       0.975381        26.5415 
 316   0.0000       0.989452        26.9244 
 317   0.0000       1.023308        27.8456 
 318   0.0000       1.033700        28.1284 
 319   0.0000       1.041237        28.3335 
 320   0.0000       1.057002        28.7625 
 321   0.0000       1.063540        28.9404 
 322   0.0000       1.075710        29.2715 
 323   0.0000       1.108571        30.1657 
 324   0.0000       1.125006        30.6130 
 325   0.0000       1.142158        31.0797 
 326   0.0000       1.150235        31.2995 
 327   0.0000       1.167212        31.7615 
 328   0.0000       1.178251        32.0618 
 329   0.0000       1.185576        32.2612 
 330   0.0000       1.198690        32.6180 
 331   0.0000       1.222645        33.2699 
 332   0.0000       1.229079        33.4450 
 333   0.0000       1.244607        33.8675 
 334   0.0000       1.254652        34.1408 
 335   0.0000       1.267196        34.4822 
 336   0.0000       1.276422        34.7332 
 337   0.0000       1.284833        34.9621 
 338   0.0000       1.296923        35.2911 
 339   0.0000       1.322082        35.9757 
 340   0.0000       1.328450        36.1490 
 341   0.0000       1.329395        36.1747 
 342   0.0000       1.349684        36.7268 
 343   0.0000       1.360250        37.0143 
 344   0.0000       1.364848        37.1394 
 345   0.0000       1.377469        37.4828 
 346   0.0000       1.385629        37.7049 
 347   0.0000       1.392871        37.9020 
 348   0.0000       1.395485        37.9731 
 349   0.0000       1.411005        38.3954 
 350   0.0000       1.414396        38.4877 
 351   0.0000       1.431742        38.9597 
 352   0.0000       1.433589        39.0099 
 353   0.0000       1.440381        39.1948 
 354   0.0000       1.452686        39.5296 
 355   0.0000       1.463334        39.8193 
 356   0.0000       1.469617        39.9903 
 357   0.0000       1.495180        40.6859 
 358   0.0000       1.507283        41.0153 
 359   0.0000       1.511861        41.1398 
 360   0.0000       1.519181        41.3390 
 361   0.0000       1.524218        41.4761 
 362   0.0000       1.533308        41.7234 
 363   0.0000       1.548791        42.1448 
 364   0.0000       1.556645        42.3585 
 365   0.0000       1.563332        42.5404 
 366   0.0000       1.574135        42.8344 
 367   0.0000       1.577910        42.9371 
 368   0.0000       1.601132        43.5690 
 369   0.0000       1.611509        43.8514 
 370   0.0000       1.614117        43.9224 
 371   0.0000       1.622559        44.1521 
 372   0.0000       1.629905        44.3520 
 373   0.0000       1.636464        44.5304 
 374   0.0000       1.647627        44.8342 
 375   0.0000       1.651810        44.9480 
 376   0.0000       1.664692        45.2986 
 377   0.0000       1.670524        45.4573 
 378   0.0000       1.679617        45.7047 
 379   0.0000       1.683203        45.8023 
 380   0.0000       1.689516        45.9741 
 381   0.0000       1.696279        46.1581 
 382   0.0000       1.699461        46.2447 
 383   0.0000       1.702461        46.3263 
 384   0.0000       1.708458        46.4895 
 385   0.0000       1.719792        46.7979 
 386   0.0000       1.721878        46.8547 
 387   0.0000       1.728496        47.0348 
 388   0.0000       1.734421        47.1960 
 389   0.0000       1.738575        47.3090 
 390   0.0000       1.740024        47.3485 
 391   0.0000       1.746547        47.5260 
 392   0.0000       1.755537        47.7706 
 393   0.0000       1.766903        48.0799 
 394   0.0000       1.770770        48.1851 
 395   0.0000       1.774260        48.2801 
 396   0.0000       1.777536        48.3692 
 397   0.0000       1.781860        48.4869 
 398   0.0000       1.790080        48.7106 
 399   0.0000       1.793535        48.8046 
 400   0.0000       1.797800        48.9206 
 401   0.0000       1.800477        48.9935 
 402   0.0000       1.805327        49.1255 
 403   0.0000       1.809490        49.2387 
 404   0.0000       1.814733        49.3814 
 405   0.0000       1.818139        49.4741 
 406   0.0000       1.828113        49.7455 
 407   0.0000       1.830780        49.8181 
 408   0.0000       1.836247        49.9668 
 409   0.0000       1.842206        50.1290 
 410   0.0000       1.845901        50.2295 
 411   0.0000       1.866274        50.7839 
 412   0.0000       1.873072        50.9689 
 413   0.0000       1.880539        51.1721 
 414   0.0000       1.891833        51.4794 
 415   0.0000       1.894420        51.5498 
 416   0.0000       1.902423        51.7676 
 417   0.0000       1.905119        51.8409 
 418   0.0000       1.911546        52.0158 
 419   0.0000       1.921224        52.2792 
 420   0.0000       1.934497        52.6403 
 421   0.0000       1.936981        52.7079 
 422   0.0000       1.941101        52.8201 
 423   0.0000       1.947232        52.9869 
 424   0.0000       1.950654        53.0800 
 425   0.0000       1.954372        53.1812 
 426   0.0000       1.965395        53.4811 
 427   0.0000       1.968316        53.5606 
 428   0.0000       1.976960        53.7958 
 429   0.0000       1.978208        53.8298 
 430   0.0000       1.980783        53.8998 
 431   0.0000       1.986427        54.0534 
 432   0.0000       1.992488        54.2183 
 433   0.0000       1.993819        54.2546 
 434   0.0000       2.002304        54.4855 
 435   0.0000       2.008605        54.6569 
 436   0.0000       2.010746        54.7152 
 437   0.0000       2.012893        54.7736 
 438   0.0000       2.019198        54.9452 
 439   0.0000       2.022246        55.0281 
 440   0.0000       2.030824        55.2615 
 441   0.0000       2.033404        55.3317 
 442   0.0000       2.039782        55.5053 
 443   0.0000       2.043014        55.5932 
[...]

 --------------
 Nucleus  47H :
 --------------

Diamagnetic contribution to the shielding tensor (ppm) : 
            30.715          3.369         0.057
             0.693         47.400        -4.398
             0.305         -4.007        43.692

Paramagnetic contribution to the shielding tensor (ppm): 
            -2.199         -3.332         0.787
            -0.301        -14.027         1.044
            -0.044          0.527       -11.787

Total shielding tensor (ppm): 
            28.517          0.037         0.843
             0.392         33.374        -3.353
             0.262         -3.480        31.906


 Diagonalized sT*s matrix:
 
 sDSO            32.139           39.689           49.980  iso=      40.603
 sPSO            -3.957          -10.213          -13.842  iso=      -9.337
        ---------------  ---------------  ---------------
 Total           28.182           29.476           36.138  iso=      31.265

 --------------
 Nucleus  48H :
 --------------

Diamagnetic contribution to the shielding tensor (ppm) : 
            35.286         -0.504        -0.913
            -1.596         32.235        -5.723
            -6.460         -4.997        51.503

Paramagnetic contribution to the shielding tensor (ppm): 
            -4.346          0.929         0.835
             1.523         -4.194         3.678
             7.698          2.521       -21.033

Total shielding tensor (ppm): 
            30.940          0.426        -0.078
            -0.073         28.041        -2.046
             1.238         -2.476        30.470


 Diagonalized sT*s matrix:
 
 sDSO            33.342           38.514           47.168  iso=      39.675
 sPSO            -6.699           -7.691          -15.182  iso=      -9.857
        ---------------  ---------------  ---------------
 Total           26.642           30.823           31.986  iso=      29.817

 --------------
 Nucleus  52H :
 --------------

Diamagnetic contribution to the shielding tensor (ppm) : 
            39.950         -1.576        -0.686
             2.190         54.976        -2.241
             4.021          2.720        29.866

Paramagnetic contribution to the shielding tensor (ppm): 
            -5.654          3.080         2.540
             0.499        -33.085         3.137
            -2.664         -2.092        -7.982

Total shielding tensor (ppm): 
            34.296          1.505         1.855
             2.689         21.891         0.896
             1.357          0.628        21.884


 Diagonalized sT*s matrix:
 
 sDSO            43.849           40.272           40.672  iso=      41.597
 sPSO           -22.735          -18.178           -5.808  iso=     -15.574
        ---------------  ---------------  ---------------
 Total           21.114           22.094           34.864  iso=      26.024

 --------------
 Nucleus  53H :
 --------------

Diamagnetic contribution to the shielding tensor (ppm) : 
            38.077         -3.859         1.228
           -10.023         54.601        11.308
            -3.077         -1.717        38.480

Paramagnetic contribution to the shielding tensor (ppm): 
            -4.447          4.937         0.812
            12.089        -32.678       -10.269
             4.376          2.347       -16.312

Total shielding tensor (ppm): 
            33.630          1.078         2.040
             2.066         21.922         1.039
             1.298          0.630        22.168


 Diagonalized sT*s matrix:
 
 sDSO            43.279           51.347           36.532  iso=      43.719
 sPSO           -22.077          -28.926           -2.435  iso=     -17.812
        ---------------  ---------------  ---------------
 Total           21.202           22.421           34.097  iso=      25.907

 --------------
 Nucleus  57H :
 --------------

Diamagnetic contribution to the shielding tensor (ppm) : 
            32.972         -0.185         2.551
             0.649         46.651         0.273
            17.486          0.376        34.111

Paramagnetic contribution to the shielding tensor (ppm): 
            -3.748         -0.074        -1.722
            -0.982        -16.907        -2.200
           -15.226         -3.022        -2.358

Total shielding tensor (ppm): 
            29.224         -0.259         0.829
            -0.333         29.744        -1.927
             2.259         -2.646        31.753


 Diagonalized sT*s matrix:
 
 sDSO            32.670           39.131           41.932  iso=      37.911
 sPSO            -4.792          -10.011           -8.209  iso=      -7.671
        ---------------  ---------------  ---------------
 Total           27.878           29.120           33.723  iso=      30.240

 --------------
 Nucleus  58H :
 --------------

Diamagnetic contribution to the shielding tensor (ppm) : 
            33.893         -0.465        -0.269
             0.276         24.429       -11.690
           -12.668         -8.935        36.655

Paramagnetic contribution to the shielding tensor (ppm): 
            -3.418          0.160         0.971
            -0.658          5.495         9.527
            12.924          6.451        -4.285

Total shielding tensor (ppm): 
            30.475         -0.305         0.702
            -0.382         29.923        -2.163
             0.256         -2.484        32.371


 Diagonalized sT*s matrix:
 
 sDSO            18.426           36.092           40.459  iso=      31.659
 sPSO            10.094           -5.718           -6.584  iso=      -0.736
        ---------------  ---------------  ---------------
 Total           28.520           30.375           33.875  iso=      30.923

 --------------
 Nucleus  61H :
 --------------

Diamagnetic contribution to the shielding tensor (ppm) : 
            35.528         -2.592        -7.567
            11.554         45.744         2.395
             9.705         11.315        35.167

Paramagnetic contribution to the shielding tensor (ppm): 
            -1.416          2.013         4.412
           -12.744        -17.650         0.565
           -13.252         -7.652        -5.111

Total shielding tensor (ppm): 
            34.112         -0.579        -3.154
            -1.190         28.094         2.960
            -3.547          3.663        30.057


 Diagonalized sT*s matrix:
 
 sDSO            33.369           47.639           35.431  iso=      38.813
 sPSO            -7.979          -17.492            1.294  iso=      -8.059
        ---------------  ---------------  ---------------
 Total           25.391           30.147           36.725  iso=      30.754

 --------------
 Nucleus  62H :
 --------------

Diamagnetic contribution to the shielding tensor (ppm) : 
            28.264         -1.283        -0.342
            15.107         45.462        -8.838
             5.896         -2.605        33.681

Paramagnetic contribution to the shielding tensor (ppm): 
             2.032          0.555         1.645
           -16.241        -11.727         5.734
            -4.769         -0.537        -4.897

Total shielding tensor (ppm): 
            30.296         -0.728         1.303
            -1.133         33.735        -3.104
             1.126         -3.142        28.784


 Diagonalized sT*s matrix:
 
 sDSO            28.835           34.568           44.004  iso=      35.802
 sPSO            -1.721           -4.467           -8.404  iso=      -4.864
        ---------------  ---------------  ---------------
 Total           27.114           30.101           35.601  iso=      30.939

 --------------
 Nucleus  63H :
 --------------

Diamagnetic contribution to the shielding tensor (ppm) : 
            30.622          5.382         4.191
            26.118         34.602        -1.518
            26.205          7.907        33.683

Paramagnetic contribution to the shielding tensor (ppm): 
             1.605         -3.869        -2.025
           -23.962         -4.260         6.427
           -24.113         -2.944        -5.076

Total shielding tensor (ppm): 
            32.228          1.513         2.166
             2.156         30.342         4.910
             2.091          4.963        28.607


 Diagonalized sT*s matrix:
 
 sDSO            30.660           12.680           55.566  iso=      32.969
 sPSO            -6.226           17.705          -19.209  iso=      -2.577
        ---------------  ---------------  ---------------
 Total           24.434           30.385           36.357  iso=      30.392

 --------------
 Nucleus  64H :
 --------------

Diamagnetic contribution to the shielding tensor (ppm) : 
            35.197         -5.445        -7.920
           -22.112         12.479        -3.411
           -17.801         -2.677        23.225

Paramagnetic contribution to the shielding tensor (ppm): 
            -1.897          3.933         3.418
            19.794         16.691         6.234
            12.812          5.355         6.979

Total shielding tensor (ppm): 
            33.301         -1.512        -4.502
            -2.318         29.170         2.823
            -4.989          2.678        30.204


 Diagonalized sT*s matrix:
 
 sDSO            22.061            3.450           45.390  iso=      23.634
 sPSO             4.109           25.150           -7.486  iso=       7.258
        ---------------  ---------------  ---------------
 Total           26.170           28.600           37.905  iso=      30.892

 --------------
 Nucleus  65H :
 --------------

Diamagnetic contribution to the shielding tensor (ppm) : 
            33.124          1.707         3.486
           -20.140         33.820        10.816
           -13.389          4.086        27.593

Paramagnetic contribution to the shielding tensor (ppm): 
            -0.409         -0.682        -1.903
            22.890         -3.779        -5.880
            14.646          1.101         0.358

Total shielding tensor (ppm): 
            32.715          1.025         1.582
             2.750         30.041         4.936
             1.257          5.187        27.951


 Diagonalized sT*s matrix:
 
 sDSO            22.773           44.999           26.764  iso=      31.512
 sPSO             1.054          -14.028            9.144  iso=      -1.277
        ---------------  ---------------  ---------------
 Total           23.828           30.971           35.908  iso=      30.235

 --------------
 Nucleus  66H :
 --------------

Diamagnetic contribution to the shielding tensor (ppm) : 
            28.138         -4.876         1.019
           -24.467         30.587        -5.090
            -3.404         -9.840        24.574

Paramagnetic contribution to the shielding tensor (ppm): 
             1.623          2.682         0.131
            22.323          3.407         1.971
             3.895          7.379         4.754

Total shielding tensor (ppm): 
            29.761         -2.194         1.150
            -2.144         33.995        -3.119
             0.491         -2.462        29.327


 Diagonalized sT*s matrix:
 
 sDSO            17.331           23.393           42.575  iso=      27.766
 sPSO            10.664            5.558           -6.438  iso=       3.261
        ---------------  ---------------  ---------------
 Total           27.994           28.952           36.137  iso=      31.028

 --------------
 Nucleus  67H :
 --------------

Diamagnetic contribution to the shielding tensor (ppm) : 
            32.618         -0.188         5.679
             5.559         10.791        -9.265
            19.778         -8.187        24.419

Paramagnetic contribution to the shielding tensor (ppm): 
            -0.180         -0.389        -1.404
            -5.617         17.239         8.586
           -16.011          7.139         8.498

Total shielding tensor (ppm): 
            32.438         -0.576         4.276
            -0.058         28.031        -0.679
             3.768         -1.048        32.917


 Diagonalized sT*s matrix:
 
 sDSO             5.084           21.232           41.512  iso=      22.609
 sPSO            22.713            7.568           -4.724  iso=       8.519
        ---------------  ---------------  ---------------
 Total           27.797           28.800           36.788  iso=      31.128

 --------------
 Nucleus  68H :
 --------------

Diamagnetic contribution to the shielding tensor (ppm) : 
            29.881          3.468         1.049
            25.394         25.456        -5.757
            10.866         -2.012        17.039

Paramagnetic contribution to the shielding tensor (ppm): 
             1.314         -0.544        -0.748
           -23.724          9.167         8.031
           -11.476          4.783         8.150

Total shielding tensor (ppm): 
            31.195          2.924         0.301
             1.670         34.624         2.274
            -0.610          2.771        25.189


 Diagonalized sT*s matrix:
 
 sDSO            20.099           16.753           35.524  iso=      24.125
 sPSO             4.378           13.560            0.694  iso=       6.211
        ---------------  ---------------  ---------------
 Total           24.477           30.312           36.218  iso=      30.336

 --------------
 Nucleus  69H :
 --------------

Diamagnetic contribution to the shielding tensor (ppm) : 
            40.691          0.862        -4.765
             6.174          2.816        -6.997
            -7.869        -11.221        11.607

Paramagnetic contribution to the shielding tensor (ppm): 
            -4.100          0.550         0.960
            -4.131         24.839         7.512
             4.708         11.727        16.794

Total shielding tensor (ppm): 
            36.591          1.412        -3.805
             2.043         27.655         0.515
            -3.160          0.506        28.402


 Diagonalized sT*s matrix:
 
 sDSO            14.847           -2.136           42.402  iso=      18.371
 sPSO            11.361           30.501           -4.328  iso=      12.511
        ---------------  ---------------  ---------------
 Total           26.209           28.365           38.074  iso=      30.883

 --------------
 Nucleus  70H :
 --------------

Diamagnetic contribution to the shielding tensor (ppm) : 
            34.535         -7.097        -7.576
           -11.566         26.304         8.894
           -18.904          3.957        39.768

Paramagnetic contribution to the shielding tensor (ppm): 
             0.171          5.915         3.717
             9.914          1.472        -5.951
            14.686         -0.126       -10.156

Total shielding tensor (ppm): 
            34.707         -1.182        -3.859
            -1.653         27.775         2.942
            -4.217          3.832        29.612


 Diagonalized sT*s matrix:
 
 sDSO            25.724           22.418           52.465  iso=      33.536
 sPSO            -0.775            6.925          -14.663  iso=      -2.838
        ---------------  ---------------  ---------------
 Total           24.949           29.343           37.802  iso=      30.698

 --------------
 Nucleus  71H :
 --------------

Diamagnetic contribution to the shielding tensor (ppm) : 
            31.622          2.913         5.630
            -5.571         38.324        11.942
            -2.573          7.559        41.511

Paramagnetic contribution to the shielding tensor (ppm): 
             1.750         -2.086        -5.016
             6.919         -8.721        -7.127
             3.356         -2.951       -13.582

Total shielding tensor (ppm): 
            33.372          0.827         0.614
             1.349         29.604         4.815
             0.783          4.608        27.929


 Diagonalized sT*s matrix:
 
 sDSO            30.634           39.948           40.875  iso=      37.152
 sPSO            -6.656           -7.770           -6.126  iso=      -6.851
        ---------------  ---------------  ---------------
 Total           23.978           32.178           34.749  iso=      30.302

 --------------
 Nucleus  72H :
 --------------

Diamagnetic contribution to the shielding tensor (ppm) : 
            28.043         -5.819         0.958
           -10.057         42.283         2.176
            -0.690         -7.838        43.095

Paramagnetic contribution to the shielding tensor (ppm): 
             3.602          4.575        -0.238
             8.431         -9.401        -5.297
             0.965          4.770       -15.005

Total shielding tensor (ppm): 
            31.645         -1.244         0.720
            -1.626         32.882        -3.120
             0.275         -3.068        28.090


 Diagonalized sT*s matrix:
 
 sDSO            40.422           25.733           47.265  iso=      37.807
 sPSO           -13.857            5.253          -12.200  iso=      -6.934
        ---------------  ---------------  ---------------
 Total           26.566           30.987           35.065  iso=      30.872



--------------------------------
CHEMICAL SHIELDING SUMMARY (ppm)
--------------------------------


  Nucleus  Element    Isotropic     Anisotropy
  -------  -------  ------------   ------------
      3       H           29.636          5.430 
      4       H           29.132          5.325 
      8       H           29.561          6.442 
      9       H           29.421          7.782 
     10       H           29.629          8.796 
     11       H           30.530          6.241 
     13       H           28.186          2.746 
     16       H           26.852          5.165 
     17       H           26.512          5.019 
     19       H           25.446         10.789 
     21       H           25.698         15.000 
     24       H           28.890          9.983 
     25       H           29.998          9.426 
     27       H           30.219          7.116 
     28       H           30.150         11.715 
     30       H           29.722          8.428 
     31       H           30.446          6.773 
     33       H           29.842          4.141 
     35       H           31.119         14.876 
     37       H           30.330         10.938 
     38       H           30.224          9.512 
     40       H           29.837          9.926 
     41       H           30.227          8.070 
     42       H           30.799          5.102 
     45       H           31.049          8.257 
     46       H           31.288          9.256 
     47       H           31.265          7.309 
     48       H           29.817          3.253 
     52       H           26.024         13.260 
     53       H           25.907         12.286 
     57       H           30.240          5.224 
     58       H           30.923          4.427 
     61       H           30.754          8.956 
     62       H           30.939          6.993 
     63       H           30.392          8.948 
     64       H           30.892         10.520 
     65       H           30.235          8.509 
     66       H           31.028          7.664 
     67       H           31.128          8.489 
     68       H           30.336          8.824 
     69       H           30.883         10.787 
     70       H           30.698         10.656 
     71       H           30.302          6.671 
     72       H           30.872          6.289 



Maximum memory used throughout the entire EPRNMR-calculation: 139.8 MB

Timings for individual modules:

Sum of individual times         ...      141.352 sec (=   2.356 min)
GTO integral calculation        ...        0.767 sec (=   0.013 min)   0.5 %
SCF iterations                  ...       93.953 sec (=   1.566 min)  66.5 %
EPR/NMR calculation             ...       46.632 sec (=   0.777 min)  33.0 %
                             ****ORCA TERMINATED NORMALLY****
TOTAL RUN TIME: 0 days 0 hours 2 minutes 21 seconds 887 msec
