
                                 *****************
                                 * O   R   C   A *
                                 *****************

                                            #,                                       
                                            ###                                      
                                            ####                                     
                                            #####                                    
                                            ######                                   
                                           ########,                                 
                                     ,,################,,,,,                         
                               ,,#################################,,                 
                          ,,##########################################,,             
                       ,#########################################, ''#####,          
                    ,#############################################,,   '####,        
                  ,##################################################,,,,####,       
                ,###########''''           ''''###############################       
              ,#####''   ,,,,##########,,,,          '''####'''          '####       
            ,##' ,,,,###########################,,,                        '##       
           ' ,,###''''                  '''############,,,                           
         ,,##''                                '''############,,,,        ,,,,,,###''
      ,#''                                            '''#######################'''  
     '                                                          ''''####''''         
             ,#######,   #######,   ,#######,      ##                                
            ,#'     '#,  ##    ##  ,#'     '#,    #''#        ######   ,####,        
            ##       ##  ##   ,#'  ##            #'  '#       #        #'  '#        
            ##       ##  #######   ##           ,######,      #####,   #    #        
            '#,     ,#'  ##    ##  '#,     ,#' ,#      #,         ##   #,  ,#        
             '#######'   ##     ##  '#######'  #'      '#     #####' # '####'        



                  #######################################################
                  #                        -***-                        #
                  #          Department of theory and spectroscopy      #
                  #    Directorship and core code : Frank Neese         #
                  #        Max Planck Institute fuer Kohlenforschung    #
                  #                Kaiser Wilhelm Platz 1               #
                  #                 D-45470 Muelheim/Ruhr               #
                  #                      Germany                        #
                  #                                                     #
                  #                  All rights reserved                #
                  #                        -***-                        #
                  #######################################################


                         Program Version 5.0.2 -  RELEASE  -


 With contributions from (in alphabetic order):
   Daniel Aravena         : Magnetic Suceptibility
   Michael Atanasov       : Ab Initio Ligand Field Theory (pilot matlab implementation)
   Alexander A. Auer      : GIAO ZORA, VPT2 properties, NMR spectrum
   Ute Becker             : Parallelization
   Giovanni Bistoni       : ED, misc. LED, open-shell LED, HFLD
   Martin Brehm           : Molecular dynamics
   Dmytro Bykov           : SCF Hessian
   Vijay G. Chilkuri      : MRCI spin determinant printing, contributions to CSF-ICE
   Dipayan Datta          : RHF DLPNO-CCSD density
   Achintya Kumar Dutta   : EOM-CC, STEOM-CC
   Dmitry Ganyushin       : Spin-Orbit,Spin-Spin,Magnetic field MRCI
   Miquel Garcia          : C-PCM and meta-GGA Hessian, CC/C-PCM, Gaussian charge scheme
   Yang Guo               : DLPNO-NEVPT2, F12-NEVPT2, CIM, IAO-localization
   Andreas Hansen         : Spin unrestricted coupled pair/coupled cluster methods
   Benjamin Helmich-Paris : MC-RPA, TRAH-SCF, COSX integrals
   Lee Huntington         : MR-EOM, pCC
   Robert Izsak           : Overlap fitted RIJCOSX, COSX-SCS-MP3, EOM
   Marcus Kettner         : VPT2
   Christian Kollmar      : KDIIS, OOCD, Brueckner-CCSD(T), CCSD density, CASPT2, CASPT2-K
   Simone Kossmann        : Meta GGA functionals, TD-DFT gradient, OOMP2, MP2 Hessian
   Martin Krupicka        : Initial AUTO-CI
   Lucas Lang             : DCDCAS
   Marvin Lechner         : AUTO-CI (C++ implementation), FIC-MRCC
   Dagmar Lenk            : GEPOL surface, SMD
   Dimitrios Liakos       : Extrapolation schemes; Compound Job, initial MDCI parallelization
   Dimitrios Manganas     : Further ROCIS development; embedding schemes
   Dimitrios Pantazis     : SARC Basis sets
   Anastasios Papadopoulos: AUTO-CI, single reference methods and gradients
   Taras Petrenko         : DFT Hessian,TD-DFT gradient, ASA, ECA, R-Raman, ABS, FL, XAS/XES, NRVS
   Peter Pinski           : DLPNO-MP2, DLPNO-MP2 Gradient
   Christoph Reimann      : Effective Core Potentials
   Marius Retegan         : Local ZFS, SOC
   Christoph Riplinger    : Optimizer, TS searches, QM/MM, DLPNO-CCSD(T), (RO)-DLPNO pert. Triples
   Tobias Risthaus        : Range-separated hybrids, TD-DFT gradient, RPA, STAB
   Michael Roemelt        : Original ROCIS implementation
   Masaaki Saitow         : Open-shell DLPNO-CCSD energy and density
   Barbara Sandhoefer     : DKH picture change effects
   Avijit Sen             : IP-ROCIS
   Kantharuban Sivalingam : CASSCF convergence, NEVPT2, FIC-MRCI
   Bernardo de Souza      : ESD, SOC TD-DFT
   Georgi Stoychev        : AutoAux, RI-MP2 NMR, DLPNO-MP2 response
   Willem Van den Heuvel  : Paramagnetic NMR
   Boris Wezisla          : Elementary symmetry handling
   Frank Wennmohs         : Technical directorship


 We gratefully acknowledge several colleagues who have allowed us to
 interface, adapt or use parts of their codes:
   Stefan Grimme, W. Hujo, H. Kruse, P. Pracht,  : VdW corrections, initial TS optimization,
                  C. Bannwarth, S. Ehlert          DFT functionals, gCP, sTDA/sTD-DF
   Ed Valeev, F. Pavosevic, A. Kumar             : LibInt (2-el integral package), F12 methods
   Garnet Chan, S. Sharma, J. Yang, R. Olivares  : DMRG
   Ulf Ekstrom                                   : XCFun DFT Library
   Mihaly Kallay                                 : mrcc  (arbitrary order and MRCC methods)
   Jiri Pittner, Ondrej Demel                    : Mk-CCSD
   Frank Weinhold                                : gennbo (NPA and NBO analysis)
   Christopher J. Cramer and Donald G. Truhlar   : smd solvation model
   Lars Goerigk                                  : TD-DFT with DH, B97 family of functionals
   V. Asgeirsson, H. Jonsson                     : NEB implementation
   FAccTs GmbH                                   : IRC, NEB, NEB-TS, DLPNO-Multilevel, CI-OPT
                                                   MM, QMMM, 2- and 3-layer-ONIOM, Crystal-QMMM,
                                                   LR-CPCM, SF, NACMEs, symmetry and pop. for TD-DFT,
                                                   nearIR, NL-DFT gradient (VV10), updates on ESD,
                                                   ML-optimized integration grids
   S Lehtola, MJT Oliveira, MAL Marques          : LibXC Library
   Liviu Ungur et al                             : ANISO software


 Your calculation uses the libint2 library for the computation of 2-el integrals
 For citations please refer to: http://libint.valeyev.net

 Your ORCA version has been built with support for libXC version: 5.1.0
 For citations please refer to: https://tddft.org/programs/libxc/

 This ORCA versions uses:
   CBLAS   interface :  Fast vector & matrix operations
   LAPACKE interface :  Fast linear algebra routines
   SCALAPACK package :  Parallel linear algebra routines
   Shared memory     :  Shared parallel matrices
   BLAS/LAPACK       :  OpenBLAS 0.3.15  USE64BITINT DYNAMIC_ARCH NO_AFFINITY Zen SINGLE_THREADED
        Core in use  :  Zen
   Copyright (c) 2011-2014, The OpenBLAS Project


Your calculation utilizes the atom-pairwise dispersion correction
based on tight binding partial charges (D4)
Cite in your paper:
E.Caldeweyher, C.Bannwarth, S.Grimme, J.Chem.Phys., (2017), 147, 034112.
E.Caldeweyher, S.Ehlert, A.Hansen, H.Neugebauer, S.Grimme, J.Chem.Phys., (2018), in progress.
   

================================================================================

----- Orbital basis set information -----
Your calculation utilizes the basis: pcJ-0
   F. Jensen, Theor. Chem. Acc. 126, 371 (2010).

----- AuxJ basis set information -----
Your calculation utilizes the auxiliary basis: def2/J
   F. Weigend, Phys. Chem. Chem. Phys. 8, 1057 (2006).

================================================================================
                                        WARNINGS
                       Please study these warnings very carefully!
================================================================================


INFO   : the flag for use of the SHARK integral package has been found!

================================================================================
                                       INPUT FILE
================================================================================
NAME = inpJ
|  1> ! pbe0
|  2> ! D4
|  3> ! pcJ-0
|  4> ! def2/J RIJCOSX
|  5> ! DEFGRID2
|  6> ! scfconv7
|  7> ! smallprint printgap noloewdin
|  8> ! NOSOSCF
|  9> %MaxCore 4000
| 10> %output
| 11>        print[P_BondOrder_M] 1
| 12>        print[P_Mayer] 1
| 13>        print[P_basis] 2
| 14> end
| 15> %pal
| 16>     nprocs 4
| 17> end
| 18> ! CPCM(chloroform)
| 19> *xyz 0 1
| 20> C   -5.0420712100   0.1777732900  -0.4780462600
| 21> C   -6.4850292200  -0.2440945100  -0.6230889500
| 22> C   -7.3967425800   0.6716815800   0.2037095700
| 23> H   -6.6180309600  -1.2862664000  -0.3111779300
| 24> H   -6.7932571000  -0.1636708100  -1.6760722000
| 25> C   -4.7993454000   1.6027466000  -0.7946461600
| 26> C   -5.7347628900   2.5654246800  -0.0969187300
| 27> C   -7.2018716100   2.1292311700  -0.2170926200
| 28> H   -5.6004893100   3.5778010300  -0.4926190000
| 29> H   -5.4632836600   2.5987998600   0.9691939200
| 30> H   -7.5322108100   2.2345546200  -1.2594810200
| 31> H   -7.8383151400   2.7760397200   0.3978222200
| 32> O   -7.1599673300   0.4880747300   1.6095098100
| 33> H   -8.4436427100   0.3828614500   0.0485059200
| 34> C   -4.1001449000  -0.6848428100  -0.0274669700
| 35> C   -3.8610390100   2.0115590100  -1.6555813100
| 36> H   -3.2100307100   1.3030980400  -2.1609059900
| 37> H   -3.7309929800   3.0674777100  -1.8808853600
| 38> C   -2.7181585800  -0.3677233200   0.2490797500
| 39> H   -4.4338473700  -1.7027894800   0.1706291600
| 40> C   -1.7494480700  -1.2385407900   0.6038216100
| 41> H   -2.4485665800   0.6829240800   0.1686352500
| 42> C   -1.9140655000  -2.7304854700   0.7435318700
| 43> C   -0.8965516200  -3.4973689400  -0.1237940600
| 44> H   -2.9275794300  -3.0618804800   0.5016691700
| 45> H   -1.7317108100  -2.9935414500   1.7976621200
| 46> C    0.5455453600  -3.0174732400   0.0913220300
| 47> H   -1.1713832000  -3.3854989400  -1.1802421500
| 48> H   -0.9651818400  -4.5681528600   0.1040645100
| 49> C    0.6777477500  -1.5002758200  -0.0985632600
| 50> H    1.2065802100  -3.5635355200  -0.5898335600
| 51> H    0.8618327100  -3.2682938800   1.1150853800
| 52> C   -0.3376154700  -0.8167157800   0.8729570300
| 53> H   -0.0764466200  -1.2162700800   1.8700312500
| 54> C    0.0643566000   0.6551747300   0.8573355700
| 55> H   -6.2029021700   0.4267831700   1.7397632300
| 56> C    1.6075159900   0.6095207600   0.7384169000
| 57> H   -0.2792509900   1.1853332600   1.7517515800
| 58> H   -0.3698793300   1.1677949000  -0.0083175100
| 59> C    1.9995371500  -0.8628836100   0.4118736900
| 60> H    2.0994077800   0.9426291200   1.6576620800
| 61> H    1.9590525100   1.2763090000  -0.0576641200
| 62> H    2.2490988000  -1.3773225100   1.3543484400
| 63> C    3.2527582700  -0.9280728600  -0.4848965000
| 64> C    0.4035165600  -1.0990823900  -1.5539120400
| 65> H    0.6060154200  -0.0367469100  -1.7235387900
| 66> H   -0.6395337300  -1.2806644100  -1.8311648400
| 67> H    1.0389743400  -1.6714582400  -2.2386198800
| 68> H    3.0337241300  -0.3984482100  -1.4237445400
| 69> C    3.6941723400  -2.3612169400  -0.8181813300
| 70> C    4.3875200700  -0.2108697900   0.1968037100
| 71> C    5.0395695000   0.8440724300  -0.2898591900
| 72> H    4.6871588600  -0.6187898800   1.1676668600
| 73> H    4.7277687700   1.2526953600  -1.2546656600
| 74> C    6.1770146000   1.5460745100   0.3996048900
| 75> C    5.8338841100   3.0311918700   0.5895358600
| 76> C    7.5233406700   1.3139581900  -0.3403724600
| 77> H    6.2899111700   1.0914898900   1.3953741500
| 78> H    7.6029954800   0.2250424500  -0.4783380900
| 79> C    8.7169537000   1.7602156700   0.5087183800
| 80> C    7.5800962700   1.9677775400  -1.7231292400
| 81> H    5.6277758500   3.5156684600  -0.3713367600
| 82> H    6.6462722700   3.5778991000   1.0793143800
| 83> H    4.9368393100   3.1330594700   1.2093993300
| 84> H    8.6881237200   1.3065711100   1.5060520400
| 85> H    8.7360997200   2.8491964200   0.6312404100
| 86> H    9.6584892300   1.4679968500   0.0302567100
| 87> H    6.7417549200   1.6627037300  -2.3580041500
| 88> H    8.5067091300   1.6876987900  -2.2362622500
| 89> H    7.5663015000   3.0607895000  -1.6428177000
| 90> H    2.9716010500  -2.8706405500  -1.4608037400
| 91> H    3.8139652400  -2.9541909500   0.0968983400
| 92> H    4.6567880900  -2.3476920800  -1.3405469600
| 93> *
| 94> %eprnmr
| 95>  Nuclei = all H { ssfc }
| 96>  SpinSpinRThresh 8.0
| 97> end
| 98> 
| 99>                          ****END OF INPUT****
================================================================================

                       ****************************
                       * Single Point Calculation *
                       ****************************

---------------------------------
CARTESIAN COORDINATES (ANGSTROEM)
---------------------------------
  C     -5.042071    0.177773   -0.478046
  C     -6.485029   -0.244095   -0.623089
  C     -7.396743    0.671682    0.203710
  H     -6.618031   -1.286266   -0.311178
  H     -6.793257   -0.163671   -1.676072
  C     -4.799345    1.602747   -0.794646
  C     -5.734763    2.565425   -0.096919
  C     -7.201872    2.129231   -0.217093
  H     -5.600489    3.577801   -0.492619
  H     -5.463284    2.598800    0.969194
  H     -7.532211    2.234555   -1.259481
  H     -7.838315    2.776040    0.397822
  O     -7.159967    0.488075    1.609510
  H     -8.443643    0.382861    0.048506
  C     -4.100145   -0.684843   -0.027467
  C     -3.861039    2.011559   -1.655581
  H     -3.210031    1.303098   -2.160906
  H     -3.730993    3.067478   -1.880885
  C     -2.718159   -0.367723    0.249080
  H     -4.433847   -1.702789    0.170629
  C     -1.749448   -1.238541    0.603822
  H     -2.448567    0.682924    0.168635
  C     -1.914065   -2.730485    0.743532
  C     -0.896552   -3.497369   -0.123794
  H     -2.927579   -3.061880    0.501669
  H     -1.731711   -2.993541    1.797662
  C      0.545545   -3.017473    0.091322
  H     -1.171383   -3.385499   -1.180242
  H     -0.965182   -4.568153    0.104065
  C      0.677748   -1.500276   -0.098563
  H      1.206580   -3.563536   -0.589834
  H      0.861833   -3.268294    1.115085
  C     -0.337615   -0.816716    0.872957
  H     -0.076447   -1.216270    1.870031
  C      0.064357    0.655175    0.857336
  H     -6.202902    0.426783    1.739763
  C      1.607516    0.609521    0.738417
  H     -0.279251    1.185333    1.751752
  H     -0.369879    1.167795   -0.008318
  C      1.999537   -0.862884    0.411874
  H      2.099408    0.942629    1.657662
  H      1.959053    1.276309   -0.057664
  H      2.249099   -1.377323    1.354348
  C      3.252758   -0.928073   -0.484896
  C      0.403517   -1.099082   -1.553912
  H      0.606015   -0.036747   -1.723539
  H     -0.639534   -1.280664   -1.831165
  H      1.038974   -1.671458   -2.238620
  H      3.033724   -0.398448   -1.423745
  C      3.694172   -2.361217   -0.818181
  C      4.387520   -0.210870    0.196804
  C      5.039569    0.844072   -0.289859
  H      4.687159   -0.618790    1.167667
  H      4.727769    1.252695   -1.254666
  C      6.177015    1.546075    0.399605
  C      5.833884    3.031192    0.589536
  C      7.523341    1.313958   -0.340372
  H      6.289911    1.091490    1.395374
  H      7.602995    0.225042   -0.478338
  C      8.716954    1.760216    0.508718
  C      7.580096    1.967778   -1.723129
  H      5.627776    3.515668   -0.371337
  H      6.646272    3.577899    1.079314
  H      4.936839    3.133059    1.209399
  H      8.688124    1.306571    1.506052
  H      8.736100    2.849196    0.631240
  H      9.658489    1.467997    0.030257
  H      6.741755    1.662704   -2.358004
  H      8.506709    1.687699   -2.236262
  H      7.566301    3.060789   -1.642818
  H      2.971601   -2.870641   -1.460804
  H      3.813965   -2.954191    0.096898
  H      4.656788   -2.347692   -1.340547

----------------------------
CARTESIAN COORDINATES (A.U.)
----------------------------
  NO LB      ZA    FRAG     MASS         X           Y           Z
   0 C     6.0000    0    12.011   -9.528134    0.335943   -0.903377
   1 C     6.0000    0    12.011  -12.254929   -0.461272   -1.177467
   2 C     6.0000    0    12.011  -13.977818    1.269294    0.384955
   3 H     1.0000    0     1.008  -12.506266   -2.430691   -0.588041
   4 H     1.0000    0     1.008  -12.837395   -0.309293   -3.167317
   5 C     6.0000    0    12.011   -9.069448    3.028752   -1.501664
   6 C     6.0000    0    12.011  -10.837131    4.847950   -0.183150
   7 C     6.0000    0    12.011  -13.609565    4.023664   -0.410246
   8 H     1.0000    0     1.008  -10.583391    6.761064   -0.930915
   9 H     1.0000    0     1.008  -10.324110    4.911020    1.831511
  10 H     1.0000    0     1.008  -14.233816    4.222696   -2.380074
  11 H     1.0000    0     1.008  -14.812269    5.245955    0.751775
  12 O     8.0000    0    15.999  -13.530377    0.922328    3.041533
  13 H     1.0000    0     1.008  -15.956172    0.723503    0.091663
  14 C     6.0000    0    12.011   -7.748151   -1.294165   -0.051905
  15 C     6.0000    0    12.011   -7.296306    3.801296   -3.128595
  16 H     1.0000    0     1.008   -6.066079    2.462498   -4.083521
  17 H     1.0000    0     1.008   -7.050555    5.796693   -3.554358
  18 C     6.0000    0    12.011   -5.136575   -0.694896    0.470693
  19 H     1.0000    0     1.008   -8.378757   -3.217806    0.322442
  20 C     6.0000    0    12.011   -3.305978   -2.340503    1.141057
  21 H     1.0000    0     1.008   -4.627120    1.290539    0.318674
  22 C     6.0000    0    12.011   -3.617060   -5.159870    1.405072
  23 C     6.0000    0    12.011   -1.694237   -6.609069   -0.233937
  24 H     1.0000    0     1.008   -5.532323   -5.786116    0.948017
  25 H     1.0000    0     1.008   -3.272459   -5.656974    3.397089
  26 C     6.0000    0    12.011    1.030931   -5.702198    0.172574
  27 H     1.0000    0     1.008   -2.213593   -6.397666   -2.230334
  28 H     1.0000    0     1.008   -1.823929   -8.632558    0.196653
  29 C     6.0000    0    12.011    1.280758   -2.835110   -0.186258
  30 H     1.0000    0     1.008    2.280106   -6.734106   -1.114624
  31 H     1.0000    0     1.008    1.628628   -6.176180    2.107206
  32 C     6.0000    0    12.011   -0.638001   -1.543369    1.649650
  33 H     1.0000    0     1.008   -0.144463   -2.298417    3.533847
  34 C     6.0000    0    12.011    0.121616    1.238101    1.620129
  35 H     1.0000    0     1.008  -11.721786    0.806503    3.287676
  36 C     6.0000    0    12.011    3.037765    1.151827    1.395406
  37 H     1.0000    0     1.008   -0.527708    2.239955    3.310331
  38 H     1.0000    0     1.008   -0.698971    2.206813   -0.015718
  39 C     6.0000    0    12.011    3.778578   -1.630614    0.778328
  40 H     1.0000    0     1.008    3.967306    1.781311    3.132527
  41 H     1.0000    0     1.008    3.702073    2.411874   -0.108969
  42 H     1.0000    0     1.008    4.250181   -2.602762    2.559348
  43 C     6.0000    0    12.011    6.146822   -1.753804   -0.916322
  44 C     6.0000    0    12.011    0.762536   -2.076965   -2.936468
  45 H     1.0000    0     1.008    1.145203   -0.069442   -3.257016
  46 H     1.0000    0     1.008   -1.208544   -2.420105   -3.460400
  47 H     1.0000    0     1.008    1.963377   -3.158598   -4.230378
  48 H     1.0000    0     1.008    5.732908   -0.752958   -2.690487
  49 C     6.0000    0    12.011    6.980974   -4.462053   -1.546139
  50 C     6.0000    0    12.011    8.291211   -0.398486    0.371905
  51 C     6.0000    0    12.011    9.523406    1.595066   -0.547754
  52 H     1.0000    0     1.008    8.857447   -1.169343    2.206571
  53 H     1.0000    0     1.008    8.934188    2.367251   -2.370974
  54 C     6.0000    0    12.011   11.672866    2.921657    0.755144
  55 C     6.0000    0    12.011   11.024443    5.728122    1.114061
  56 C     6.0000    0    12.011   14.217053    2.483021   -0.643211
  57 H     1.0000    0     1.008   11.886210    2.062617    2.636875
  58 H     1.0000    0     1.008   14.367579    0.425269   -0.903928
  59 C     6.0000    0    12.011   16.472655    3.326326    0.961338
  60 C     6.0000    0    12.011   14.324306    3.718561   -3.256242
  61 H     1.0000    0     1.008   10.634955    6.643651   -0.701725
  62 H     1.0000    0     1.008   12.559634    6.761249    2.039609
  63 H     1.0000    0     1.008    9.329274    5.920624    2.285434
  64 H     1.0000    0     1.008   16.418174    2.469062    2.846026
  65 H     1.0000    0     1.008   16.508836    5.384201    1.192871
  66 H     1.0000    0     1.008   18.251900    2.774112    0.057177
  67 H     1.0000    0     1.008   12.740070    3.142055   -4.455982
  68 H     1.0000    0     1.008   16.075351    3.189289   -4.225923
  69 H     1.0000    0     1.008   14.298238    5.784054   -3.104476
  70 H     1.0000    0     1.008    5.615512   -5.424724   -2.760519
  71 H     1.0000    0     1.008    7.207350   -5.582612    0.183111
  72 H     1.0000    0     1.008    8.800054   -4.436495   -2.533267

--------------------------------
INTERNAL COORDINATES (ANGSTROEM)
--------------------------------
 C      0   0   0     0.000000000000     0.00000000     0.00000000
 C      1   0   0     1.510343550727     0.00000000     0.00000000
 C      2   1   0     1.534100026234   110.44377111     0.00000000
 H      2   1   3     1.095947168228   110.74598934   237.88219311
 H      2   1   3     1.100111868090   109.82676830   118.76495733
 C      1   2   3     1.479763578999   113.90003528   306.00208538
 C      6   1   2     1.512804856181   114.37378841    49.94499699
 C      3   2   1     1.529542410450   110.17324892    56.77449379
 H      7   6   1     1.095223252129   110.22908579   188.70421658
 H      7   6   1     1.100641202868   108.27188992    72.02179133
 H      8   3   2     1.098540209838   108.30681631    64.49076495
 H      8   3   2     1.096148679552   109.51127909   181.47492678
 O      3   2   1     1.437375493448   110.66834094   292.74100054
 H      3   2   1     1.097043810730   109.49521613   177.23977721
 C      1   2   3     1.354383035196   121.23064814   122.72196425
 C      6   1   2     1.337443756047   123.17188502   231.90392276
 H     16   6   1     1.086775866911   121.35295448   359.01300238
 H     16   6   1     1.087491694623   120.93412506   178.39963694
 C     15   1   2     1.444620728062   126.09925047   185.09636256
 H     15   1   2     1.089410316717   116.26924522     3.09605126
 C     19  15   1     1.350024038852   126.52293759   185.22071691
 H     19  15   1     1.087663147841   115.78562369     5.84936875
 C     21  19  15     1.507486909790   125.75950505     1.86885803
 C     23  21  19     1.541330276548   111.60324890   124.89449347
 H     23  21  19     1.093403267147   112.37591952     1.21233157
 H     23  21  19     1.101654331242   107.87400044   243.47800774
 C     24  23  21     1.534997887549   112.69274995    50.89368964
 H     24  23  21     1.097328511035   109.00717778   288.75802213
 H     24  23  21     1.096908308999   109.11721511   172.83726646
 C     27  24  23     1.534738383743   111.87917985   306.49076142
 H     27  24  23     1.095045215661   108.90813074   182.97350686
 H     27  24  23     1.100472661188   109.21609419    66.50402257
 C     21  19  15     1.497879001716   122.81249160   180.04473947
 H     33  21  19     1.105445524233   106.43697651   127.10861967
 C     33  21  19     1.525872618701   121.20600522     4.48594996
 H     13   3   2     0.967830733773   107.61449663    42.28221791
 C     35  33  21     1.548407839685   103.58510686   196.88077798
 H     35  33  21     1.095040748914   112.08564830    74.82483154
 H     35  33  21     1.095762536550   110.79105903   315.22554106
 C     30  27  24     1.553686560168   115.98855877   166.25843849
 H     37  35  33     1.094500074703   111.98856318   249.51484594
 H     37  35  33     1.096325440871   110.94048725   130.92119890
 H     40  30  27     1.102355230119   106.38159628   321.10556939
 C     40  30  27     1.542403834151   118.87419185    81.85984017
 C     30  27  24     1.534339918431   111.12766630   294.09740768
 H     45  30  27     1.094685203464   111.57166167   186.45949903
 H     45  30  27     1.094438236066   111.54560163    66.41462349
 H     45  30  27     1.095557177870   110.64232657   306.25886837
 H     44  40  30     1.099960847751   108.30684271    60.92787727
 C     44  40  30     1.536172878663   113.51844091   300.06373212
 C     44  40  30     1.505582864764   109.20850297   178.17961816
 C     51  44  40     1.332258355177   125.49935695   239.90226024
 H     51  44  40     1.094877828950   115.48566081    60.55771625
 H     52  51  44     1.093180643217   118.60597049     1.33716288
 C     52  51  44     1.503977723721   124.91060991   180.35146832
 C     55  52  51     1.536029257373   109.81785401   237.27467912
 C     55  52  51     1.553717590582   111.54780896   110.69841356
 H     55  52  51     1.100431384239   107.43344050   354.59905599
 H     57  55  52     1.100507561372   105.67891362   309.02260649
 C     57  55  52     1.531278243303   111.58105104   192.42423017
 C     57  55  52     1.530593758383   113.48919672    67.01473014
 H     56  55  52     1.095661614260   111.16803275   301.64920612
 H     56  55  52     1.094872739863   111.86030186   180.66500533
 H     56  55  52     1.095124240704   110.05413669    60.67230846
 H     60  57  55     1.096037856980   111.31150867    52.44710035
 H     60  57  55     1.096018837333   111.41741031   291.75461210
 H     60  57  55     1.095813196979   110.48252568   172.47355996
 H     61  57  55     1.094966848820   112.11110757   305.68902181
 H     61  57  55     1.095609868735   110.19874581   185.69081624
 H     61  57  55     1.096045338405   111.05854416    66.73931237
 H     50  44  40     1.092970834648   111.86532278    67.60379793
 H     50  44  40     1.096968239227   110.77493798   306.91863465
 H     50  44  40     1.095298066917   110.15059527   187.53085151

---------------------------
INTERNAL COORDINATES (A.U.)
---------------------------
 C      0   0   0     0.000000000000     0.00000000     0.00000000
 C      1   0   0     2.854135679008     0.00000000     0.00000000
 C      2   1   0     2.899028911624   110.44377111     0.00000000
 H      2   1   3     2.071040005197   110.74598934   237.88219311
 H      2   1   3     2.078910147366   109.82676830   118.76495733
 C      1   2   3     2.796347907260   113.90003528   306.00208538
 C      6   1   2     2.858786872248   114.37378841    49.94499699
 C      3   2   1     2.890416265969   110.17324892    56.77449379
 H      7   6   1     2.069672002026   110.22908579   188.70421658
 H      7   6   1     2.079910445131   108.27188992    72.02179133
 H      8   3   2     2.075940143694   108.30681631    64.49076495
 H      8   3   2     2.071420806413   109.51127909   181.47492678
 O      3   2   1     2.716246034226   110.66834094   292.74100054
 H      3   2   1     2.073112359193   109.49521613   177.23977721
 C      1   2   3     2.559413016949   121.23064814   122.72196425
 C      6   1   2     2.527402418453   123.17188502   231.90392276
 H     16   6   1     2.053708757416   121.35295448   359.01300238
 H     16   6   1     2.055061475752   120.93412506   178.39963694
 C     15   1   2     2.729937543424   126.09925047   185.09636256
 H     15   1   2     2.058687146063   116.26924522     3.09605126
 C     19  15   1     2.551175707640   126.52293759   185.22071691
 H     19  15   1     2.055385475378   115.78562369     5.84936875
 C     21  19  15     2.848737409975   125.75950505     1.86885803
 C     23  21  19     2.912692104596   111.60324890   124.89449347
 H     23  21  19     2.066232728843   112.37591952     1.21233157
 H     23  21  19     2.081824980295   107.87400044   243.47800774
 C     24  23  21     2.900725623616   112.69274995    50.89368964
 H     24  23  21     2.073650364799   109.00717778   288.75802213
 H     24  23  21     2.072856298030   109.11721511   172.83726646
 C     27  24  23     2.900235232492   111.87917985   306.49076142
 H     27  24  23     2.069335561860   108.90813074   182.97350686
 H     27  24  23     2.079591947514   109.21609419    66.50402257
 C     21  19  15     2.830581094995   122.81249160   180.04473947
 H     33  21  19     2.088989296770   106.43697651   127.10861967
 C     33  21  19     2.883481364594   121.20600522     4.48594996
 H     13   3   2     1.828935030822   107.61449663    42.28221791
 C     35  33  21     2.926066760620   103.58510686   196.88077798
 H     35  33  21     2.069327120931   112.08564830    74.82483154
 H     35  33  21     2.070691101891   110.79105903   315.22554106
 C     30  27  24     2.936042096671   115.98855877   166.25843849
 H     37  35  33     2.068305394745   111.98856318   249.51484594
 H     37  35  33     2.071754836896   110.94048725   130.92119890
 H     40  30  27     2.083149487221   106.38159628   321.10556939
 C     40  30  27     2.914720834455   118.87419185    81.85984017
 C     30  27  24     2.899482242178   111.12766630   294.09740768
 H     45  30  27     2.068655237403   111.57166167   186.45949903
 H     45  30  27     2.068188536657   111.54560163    66.41462349
 H     45  30  27     2.070303030227   110.64232657   306.25886837
 H     44  40  30     2.078624760285   108.30684271    60.92787727
 C     44  40  30     2.902946035031   113.51844091   300.06373212
 C     44  40  30     2.845139286328   109.20850297   178.17961816
 C     51  44  40     2.517603430912   125.49935695   239.90226024
 H     51  44  40     2.069019246818   115.48566081    60.55771625
 H     52  51  44     2.065812030584   118.60597049     1.33716288
 C     52  51  44     2.842106009351   124.91060991   180.35146832
 C     55  52  51     2.902674630126   109.81785401   237.27467912
 C     55  52  51     2.936100735657   111.54780896   110.69841356
 H     55  52  51     2.079513945385   107.43344050   354.59905599
 H     57  55  52     2.079657899303   105.67891362   309.02260649
 C     57  55  52     2.893696514675   111.58105104   192.42423017
 C     57  55  52     2.892403025634   113.48919672    67.01473014
 H     56  55  52     2.070500386402   111.16803275   301.64920612
 H     56  55  52     2.069009629838   111.86030186   180.66500533
 H     56  55  52     2.069484897549   110.05413669    60.67230846
 H     60  57  55     2.071211382102   111.31150867    52.44710035
 H     60  57  55     2.071175440177   111.41741031   291.75461210
 H     60  57  55     2.070786836227   110.48252568   172.47355996
 H     61  57  55     2.069187469993   112.11110757   305.68902181
 H     61  57  55     2.070402601531   110.19874581   185.69081624
 H     61  57  55     2.071225519947   111.05854416    66.73931237
 H     50  44  40     2.065415549849   111.86532278    67.60379793
 H     50  44  40     2.072969549749   110.77493798   306.91863465
 H     50  44  40     2.069813381486   110.15059527   187.53085151

---------------------
BASIS SET INFORMATION
---------------------
There are 3 groups of distinct atoms

 Group   1 Type C   : 7s4p contracted to 4s3p pattern {4111/211}
 Group   2 Type H   : 5s contracted to 3s pattern {311}
 Group   3 Type O   : 7s4p contracted to 4s3p pattern {4111/211}

Atom   0C    basis set group =>   1
Atom   1C    basis set group =>   1
Atom   2C    basis set group =>   1
Atom   3H    basis set group =>   2
Atom   4H    basis set group =>   2
Atom   5C    basis set group =>   1
Atom   6C    basis set group =>   1
Atom   7C    basis set group =>   1
Atom   8H    basis set group =>   2
Atom   9H    basis set group =>   2
Atom  10H    basis set group =>   2
Atom  11H    basis set group =>   2
Atom  12O    basis set group =>   3
Atom  13H    basis set group =>   2
Atom  14C    basis set group =>   1
Atom  15C    basis set group =>   1
Atom  16H    basis set group =>   2
Atom  17H    basis set group =>   2
Atom  18C    basis set group =>   1
Atom  19H    basis set group =>   2
Atom  20C    basis set group =>   1
Atom  21H    basis set group =>   2
Atom  22C    basis set group =>   1
Atom  23C    basis set group =>   1
Atom  24H    basis set group =>   2
Atom  25H    basis set group =>   2
Atom  26C    basis set group =>   1
Atom  27H    basis set group =>   2
Atom  28H    basis set group =>   2
Atom  29C    basis set group =>   1
Atom  30H    basis set group =>   2
Atom  31H    basis set group =>   2
Atom  32C    basis set group =>   1
Atom  33H    basis set group =>   2
Atom  34C    basis set group =>   1
Atom  35H    basis set group =>   2
Atom  36C    basis set group =>   1
Atom  37H    basis set group =>   2
Atom  38H    basis set group =>   2
Atom  39C    basis set group =>   1
Atom  40H    basis set group =>   2
Atom  41H    basis set group =>   2
Atom  42H    basis set group =>   2
Atom  43C    basis set group =>   1
Atom  44C    basis set group =>   1
Atom  45H    basis set group =>   2
Atom  46H    basis set group =>   2
Atom  47H    basis set group =>   2
Atom  48H    basis set group =>   2
Atom  49C    basis set group =>   1
Atom  50C    basis set group =>   1
Atom  51C    basis set group =>   1
Atom  52H    basis set group =>   2
Atom  53H    basis set group =>   2
Atom  54C    basis set group =>   1
Atom  55C    basis set group =>   1
Atom  56C    basis set group =>   1
Atom  57H    basis set group =>   2
Atom  58H    basis set group =>   2
Atom  59C    basis set group =>   1
Atom  60C    basis set group =>   1
Atom  61H    basis set group =>   2
Atom  62H    basis set group =>   2
Atom  63H    basis set group =>   2
Atom  64H    basis set group =>   2
Atom  65H    basis set group =>   2
Atom  66H    basis set group =>   2
Atom  67H    basis set group =>   2
Atom  68H    basis set group =>   2
Atom  69H    basis set group =>   2
Atom  70H    basis set group =>   2
Atom  71H    basis set group =>   2
Atom  72H    basis set group =>   2

-------------------------
BASIS SET IN INPUT FORMAT
-------------------------

 # Basis set for element : H 
 NewGTO H 
 S 3 
   1    1357.7500000000      0.0012928364
   2      54.3100000000      0.0588280685
   3       4.3448000000      0.9761499708
 S 1 
   1       0.6604910000      1.0000000000
 S 1 
   1       0.1366870000      1.0000000000
  end;

 # Basis set for element : C 
 NewGTO C 
 S 4 
   1  139534.0000000000      0.0001655246
   2    5581.3600000000      0.0074486101
   3     446.5090000000      0.1285821065
   4      67.4620000000      0.9218029311
 S 1 
   1      15.0674000000      1.0000000000
 S 1 
   1       3.9387600000      1.0000000000
 S 1 
   1       0.2999150000      1.0000000000
 P 2 
   1      28.3900000000      0.0816325586
   2       4.3676900000      0.9660360576
 P 1 
   1       0.8698170000      1.0000000000
 P 1 
   1       0.1889340000      1.0000000000
  end;

 # Basis set for element : O 
 NewGTO O 
 S 4 
   1  253789.0000000000      0.0001641076
   2   10151.6000000000      0.0074010921
   3     812.1250000000      0.1277711901
   4     122.6930000000      0.9223372164
 S 1 
   1      27.5608000000      1.0000000000
 S 1 
   1       7.3172600000      1.0000000000
 S 1 
   1       0.5792400000      1.0000000000
 P 2 
   1      53.4157000000      0.0793786106
   2       8.2177900000      0.9670506337
 P 1 
   1       1.6754400000      1.0000000000
 P 1 
   1       0.3506720000      1.0000000000
  end;

---------------------------------
AUXILIARY/J BASIS SET INFORMATION
---------------------------------
There are 3 groups of distinct atoms

 Group   1 Type C   : 12s5p4d2f1g contracted to 6s4p3d1f1g pattern {711111/2111/211/2/1}
 Group   2 Type H   : 5s2p1d contracted to 3s1p1d pattern {311/2/1}
 Group   3 Type O   : 12s5p4d2f1g contracted to 6s4p3d1f1g pattern {711111/2111/211/2/1}

Atom   0C    basis set group =>   1
Atom   1C    basis set group =>   1
Atom   2C    basis set group =>   1
Atom   3H    basis set group =>   2
Atom   4H    basis set group =>   2
Atom   5C    basis set group =>   1
Atom   6C    basis set group =>   1
Atom   7C    basis set group =>   1
Atom   8H    basis set group =>   2
Atom   9H    basis set group =>   2
Atom  10H    basis set group =>   2
Atom  11H    basis set group =>   2
Atom  12O    basis set group =>   3
Atom  13H    basis set group =>   2
Atom  14C    basis set group =>   1
Atom  15C    basis set group =>   1
Atom  16H    basis set group =>   2
Atom  17H    basis set group =>   2
Atom  18C    basis set group =>   1
Atom  19H    basis set group =>   2
Atom  20C    basis set group =>   1
Atom  21H    basis set group =>   2
Atom  22C    basis set group =>   1
Atom  23C    basis set group =>   1
Atom  24H    basis set group =>   2
Atom  25H    basis set group =>   2
Atom  26C    basis set group =>   1
Atom  27H    basis set group =>   2
Atom  28H    basis set group =>   2
Atom  29C    basis set group =>   1
Atom  30H    basis set group =>   2
Atom  31H    basis set group =>   2
Atom  32C    basis set group =>   1
Atom  33H    basis set group =>   2
Atom  34C    basis set group =>   1
Atom  35H    basis set group =>   2
Atom  36C    basis set group =>   1
Atom  37H    basis set group =>   2
Atom  38H    basis set group =>   2
Atom  39C    basis set group =>   1
Atom  40H    basis set group =>   2
Atom  41H    basis set group =>   2
Atom  42H    basis set group =>   2
Atom  43C    basis set group =>   1
Atom  44C    basis set group =>   1
Atom  45H    basis set group =>   2
Atom  46H    basis set group =>   2
Atom  47H    basis set group =>   2
Atom  48H    basis set group =>   2
Atom  49C    basis set group =>   1
Atom  50C    basis set group =>   1
Atom  51C    basis set group =>   1
Atom  52H    basis set group =>   2
Atom  53H    basis set group =>   2
Atom  54C    basis set group =>   1
Atom  55C    basis set group =>   1
Atom  56C    basis set group =>   1
Atom  57H    basis set group =>   2
Atom  58H    basis set group =>   2
Atom  59C    basis set group =>   1
Atom  60C    basis set group =>   1
Atom  61H    basis set group =>   2
Atom  62H    basis set group =>   2
Atom  63H    basis set group =>   2
Atom  64H    basis set group =>   2
Atom  65H    basis set group =>   2
Atom  66H    basis set group =>   2
Atom  67H    basis set group =>   2
Atom  68H    basis set group =>   2
Atom  69H    basis set group =>   2
Atom  70H    basis set group =>   2
Atom  71H    basis set group =>   2
Atom  72H    basis set group =>   2

-------------------------------------
AUXILIARY/J BASIS SET IN INPUT FORMAT
-------------------------------------

 # Auxiliary/J basis set for element : H 
 NewAuxJGTO H 
 S 3 
   1      15.6752927000      0.1007184237
   2       3.6063578000      0.3404257499
   3       1.2080016000      0.6491996172
 S 1 
   1       0.4726794000      1.0000000000
 S 1 
   1       0.2018100000      1.0000000000
 P 2 
   1       2.0281365000      0.5596620919
   2       0.5358730000      0.5596620919
 D 1 
   1       2.2165124000      1.0000000000
  end;

 # Auxiliary/J basis set for element : C 
 NewAuxJGTO C 
 S 7 
   1    1861.0916331000      0.0134602335
   2     642.9939764000      0.0299160374
   3     235.1105725000      0.1008649584
   4      90.7028894000      0.2370970548
   5      36.7794552000      0.3924037254
   6      15.6046273000      0.3195862154
   7       6.8907294000      0.0530104441
 S 1 
   1       3.1478850000     -1.0000000000
 S 1 
   1       1.4777287000      1.0000000000
 S 1 
   1       0.7076466000      1.0000000000
 S 1 
   1       0.3430122000      1.0000000000
 S 1 
   1       0.1669453000      1.0000000000
 P 2 
   1      13.5472892000     -0.6769313712
   2       5.4669419000     -0.3779500978
 P 1 
   1       2.1751721000      1.0000000000
 P 1 
   1       0.8582194000      1.0000000000
 P 1 
   1       0.3376720000      1.0000000000
 D 2 
   1       5.9287253000     -0.3533329857
   2       1.9809209000     -0.7456525731
 D 1 
   1       0.8055417000     -1.0000000000
 D 1 
   1       0.3531244000     -1.0000000000
 F 2 
   1       1.6755626000      0.6311076882
   2       0.5997536000      0.4968166032
 G 1 
   1       1.0024600000     -1.0000000000
  end;

 # Auxiliary/J basis set for element : O 
 NewAuxJGTO O 
 S 7 
   1    2876.8216605000      0.0168151159
   2    1004.7443032000      0.0340137548
   3     369.7579954000      0.1194951309
   4     142.9442404000      0.2664627624
   5      57.8366425000      0.4202764046
   6      24.3864983000      0.2765077335
   7      10.6622662000      0.0057008815
 S 1 
   1       4.8070437000     -1.0000000000
 S 1 
   1       2.2210770000      1.0000000000
 S 1 
   1       1.0447795000      1.0000000000
 S 1 
   1       0.4968425000      1.0000000000
 S 1 
   1       0.2371384000      1.0000000000
 P 2 
   1      64.2613382000     -0.2731534179
   2      16.3006076000     -0.8168011598
 P 1 
   1       4.3550542000      1.0000000000
 P 1 
   1       1.2019554000      1.0000000000
 P 1 
   1       0.3354196000      1.0000000000
 D 2 
   1       9.2146611000     -0.4661230638
   2       2.8435251000     -0.6600908911
 D 1 
   1       0.9955759000     -1.0000000000
 D 1 
   1       0.3649441000     -1.0000000000
 F 2 
   1       2.6420115000      0.5931563945
   2       0.7345613000      0.5931563945
 G 1 
   1       1.3931000000     -1.0000000000
  end;



           ************************************************************
           *        Program running with 4 parallel MPI-processes     *
           *              working on a common directory               *
           ************************************************************
------------------------------------------------------------------------------
                           ORCA GTO INTEGRAL CALCULATION
                           -- RI-GTO INTEGRALS CHOSEN --
------------------------------------------------------------------------------
------------------------------------------------------------------------------
                   ___                                                        
                  /   \      - P O W E R E D   B Y -                         
                 /     \                                                     
                 |  |  |   _    _      __       _____    __    __             
                 |  |  |  | |  | |    /  \     |  _  \  |  |  /  |          
                  \  \/   | |  | |   /    \    | | | |  |  | /  /          
                 / \  \   | |__| |  /  /\  \   | |_| |  |  |/  /          
                |  |  |   |  __  | /  /__\  \  |    /   |      \           
                |  |  |   | |  | | |   __   |  |    \   |  |\   \          
                \     /   | |  | | |  |  |  |  | |\  \  |  | \   \       
                 \___/    |_|  |_| |__|  |__|  |_| \__\ |__|  \__/        
                                                                              
                      - O R C A' S   B I G   F R I E N D -                    
                                      &                                       
                       - I N T E G R A L  F E E D E R -                       
                                                                              
 v1 FN, 2020, v2 2021                                                         
------------------------------------------------------------------------------


Reading SHARK input file inpJ.SHARKINP.tmp ... ok
----------------------
SHARK INTEGRAL PACKAGE
----------------------

Number of atoms                             ...     73
Number of basis functions                   ...    509
Number of shells                            ...    335
Maximum angular momentum                    ...      1
Integral batch strategy                     ... SHARK/LIBINT Hybrid
RI-J (if used) integral strategy            ... SPLIT-RIJ (Revised 2003 algorithm where possible)
Printlevel                                  ...      1
Contraction scheme used                     ... SEGMENTED contraction
Coulomb Range Separation                    ... NOT USED
Exchange Range Separation                   ... NOT USED
Finite Nucleus Model                        ... NOT USED
Auxiliary Coulomb fitting basis             ... AVAILABLE
   # of basis functions in Aux-J            ...   1905
   # of shells in Aux-J                     ...    655
   Maximum angular momentum in Aux-J        ...      4
Auxiliary J/K fitting basis                 ... NOT available
Auxiliary Correlation fitting basis         ... NOT available
Auxiliary 'external' fitting basis          ... NOT available
Integral threshold                          ...     3.000000e-11
Primitive cut-off                           ...     1.000000e-12
Primitive pair pre-selection threshold      ...     1.000000e-12

Calculating pre-screening integrals         ... done (  0.0 sec) Dimension = 335
Organizing shell pair data                  ... done (  0.1 sec)
Shell pair information
Total number of shell pairs                 ...     56280
Shell pairs after pre-screening             ...     21556
Total number of primitive shell pairs       ...    145865
Primitive shell pairs kept                  ...     37077
          la=0 lb=0:  10824 shell pairs
          la=1 lb=0:   8883 shell pairs
          la=1 lb=1:   1849 shell pairs

Calculating one electron integrals          ... done (  0.0 sec)
Calculating RI/J V-Matrix + Cholesky decomp.... done (  0.2 sec)
Calculating Nuclear repulsion               ... done (  0.0 sec) ENN=   2767.552559492728 Eh

SHARK setup successfully completed in   0.4 seconds

Maximum memory used throughout the entire GTOINT-calculation: 46.1 MB


           ************************************************************
           *        Program running with 4 parallel MPI-processes     *
           *              working on a common directory               *
           ************************************************************
-------------------------------------------------------------------------------
                                 ORCA SCF
-------------------------------------------------------------------------------

------------
SCF SETTINGS
------------
Hamiltonian:
 Density Functional     Method          .... DFT(GTOs)
 Exchange Functional    Exchange        .... PBE
   PBE kappa parameter   XKappa         ....  0.804000
   PBE mue parameter    XMuePBE         ....  0.219520
 Correlation Functional Correlation     .... PBE
   PBE beta parameter  CBetaPBE         ....  0.066725
 LDA part of GGA corr.  LDAOpt          .... PW91-LDA
 Gradients option       PostSCFGGA      .... off
 Hybrid DFT is turned on
   Fraction HF Exchange ScalHFX         ....  0.250000
   Scaling of DF-GGA-X  ScalDFX         ....  0.750000
   Scaling of DF-GGA-C  ScalDFC         ....  1.000000
   Scaling of DF-LDA-C  ScalLDAC        ....  1.000000
   Perturbative correction              ....  0.000000
   Density functional embedding theory  .... OFF
   NL short-range parameter             ....  6.900000
 RI-approximation to the Coulomb term is turned on
   Number of AuxJ basis functions       .... 1905
   RIJ-COSX (HFX calculated with COS-X)).... on


General Settings:
 Integral files         IntName         .... inpJ
 Hartree-Fock type      HFTyp           .... RHF
 Total Charge           Charge          ....    0
 Multiplicity           Mult            ....    1
 Number of Electrons    NEL             ....  220
 Basis Dimension        Dim             ....  509
 Nuclear Repulsion      ENuc            ....   2767.5525594927 Eh

Convergence Acceleration:
 DIIS                   CNVDIIS         .... on
   Start iteration      DIISMaxIt       ....    12
   Startup error        DIISStart       ....  0.200000
   # of expansion vecs  DIISMaxEq       ....     5
   Bias factor          DIISBfac        ....   1.050
   Max. coefficient     DIISMaxC        ....  10.000
 Trust-Rad. Augm. Hess. CNVTRAH         .... auto
   Auto Start mean grad. ratio tolernc. ....  1.125000
   Auto Start start iteration           ....    20
   Auto Start num. interpolation iter.  ....    10
   Max. Number of Micro iterations      ....    16
   Max. Number of Macro iterations      .... Maxiter - #DIIS iter
   Number of Davidson start vectors     ....     2
   Converg. threshold I  (grad. norm)   ....   1.000e-04
   Converg. threshold II (energy diff.) ....   1.000e-07
   Grad. Scal. Fac. for Micro threshold ....   0.100
   Minimum threshold for Micro iter.    ....   0.010
   NR start threshold (gradient norm)   ....   0.001
   Initial trust radius                 ....   0.400
   Minimum AH scaling param. (alpha)    ....   1.000
   Maximum AH scaling param. (alpha)    .... 1000.000
   Orbital update algorithm             .... Taylor
   White noise on init. David. guess    .... on
   Maximum white noise                  ....   0.010
   Quad. conv. algorithm                .... NR
 SOSCF                  CNVSOSCF        .... off
 Level Shifting         CNVShift        .... on
   Level shift para.    LevelShift      ....    0.2500
   Turn off err/grad.   ShiftErr        ....    0.0010
 Zerner damping         CNVZerner       .... off
 Static damping         CNVDamp         .... on
   Fraction old density DampFac         ....    0.7000
   Max. Damping (<1)    DampMax         ....    0.9800
   Min. Damping (>=0)   DampMin         ....    0.0000
   Turn off err/grad.   DampErr         ....    0.1000
 Fernandez-Rico         CNVRico         .... off

SCF Procedure:
 Maximum # iterations   MaxIter         ....   125
 SCF integral mode      SCFMode         .... Direct
   Integral package                     .... SHARK and LIBINT hybrid scheme
 Reset frequency        DirectResetFreq ....    20
 Integral Threshold     Thresh          ....  3.000e-11 Eh
 Primitive CutOff       TCut            ....  1.000e-12 Eh

Convergence Tolerance:
 Convergence Check Mode ConvCheckMode   .... Total+1el-Energy
 Convergence forced     ConvForced      .... 0
 Energy Change          TolE            ....  1.000e-07 Eh
 1-El. energy change                    ....  1.000e-04 Eh
 DIIS Error             TolErr          ....  1.000e-07


Diagonalization of the overlap matrix:
Smallest eigenvalue                        ... 7.559e-03
Time for diagonalization                   ...    0.040 sec
Threshold for overlap eigenvalues          ... 1.000e-08
Number of eigenvalues below threshold      ... 0
Time for construction of square roots      ...    0.037 sec
Total time needed                          ...    0.079 sec

Time for model grid setup =    0.774 sec

------------------------------
INITIAL GUESS: MODEL POTENTIAL
------------------------------
Loading Hartree-Fock densities                     ... done
Calculating cut-offs                               ... done
Initializing the effective Hamiltonian             ... done
Setting up the integral package (SHARK)            ... done
Starting the Coulomb interaction                   ... done (   0.4 sec)
Reading the grid                                   ... done
Mapping shells                                     ... done
Starting the XC term evaluation                    ... done (   0.1 sec)
  promolecular density results
     # of electrons  =    219.976325324
     EX              =   -164.426538586
     EC              =     -7.322768513
     EX+EC           =   -171.749307100
Transforming the Hamiltonian                       ... done (   0.0 sec)
Diagonalizing the Hamiltonian                      ... done (   0.0 sec)
Back transforming the eigenvectors                 ... done (   0.0 sec)
Now organizing SCF variables                       ... done
                      ------------------
                      INITIAL GUESS DONE (   1.4 sec)
                      ------------------
-------------------
DFT GRID GENERATION
-------------------

General Integration Accuracy     IntAcc      ... 4.388
Radial Grid Type                 RadialGrid  ... OptM3 with GC (2021)
Angular Grid (max. ang.)         AngularGrid ... 4 (Lebedev-302)
Angular grid pruning method      GridPruning ... 4 (adaptive)
Weight generation scheme         WeightScheme... Becke
Basis function cutoff            BFCut       ... 1.0000e-11
Integration weight cutoff        WCut        ... 1.0000e-14
Angular grids for H and He will be reduced by one unit
Partially contracted basis set               ... off
Rotationally invariant grid construction     ... off

Total number of grid points                  ...   310040
Total number of batches                      ...     4883
Average number of points per batch           ...       63
Average number of grid points per atom       ...     4247
Time for grid setup =    3.080 sec

--------------------
COSX GRID GENERATION
--------------------

GRIDX 1
-------
General Integration Accuracy     IntAcc      ... 3.816
Radial Grid Type                 RadialGrid  ... OptM3 with GC (2021)
Angular Grid (max. ang.)         AngularGrid ... 1 (Lebedev-50)
Angular grid pruning method      GridPruning ... 4 (adaptive)
Weight generation scheme         WeightScheme... Becke
Basis function cutoff            BFCut       ... 1.0000e-11
Integration weight cutoff        WCut        ... 1.0000e-14
Angular grids for H and He will be reduced by one unit
Partially contracted basis set               ... on
Rotationally invariant grid construction     ... off

Total number of grid points                  ...    39426
Total number of batches                      ...      654
Average number of points per batch           ...       60
Average number of grid points per atom       ...      540
UseSFitting                                  ... on

GRIDX 2
-------
General Integration Accuracy     IntAcc      ... 4.020
Radial Grid Type                 RadialGrid  ... OptM3 with GC (2021)
Angular Grid (max. ang.)         AngularGrid ... 2 (Lebedev-110)
Angular grid pruning method      GridPruning ... 4 (adaptive)
Weight generation scheme         WeightScheme... Becke
Basis function cutoff            BFCut       ... 1.0000e-11
Integration weight cutoff        WCut        ... 1.0000e-14
Angular grids for H and He will be reduced by one unit
Partially contracted basis set               ... on
Rotationally invariant grid construction     ... off

Total number of grid points                  ...    81452
Total number of batches                      ...     1312
Average number of points per batch           ...       62
Average number of grid points per atom       ...     1116
UseSFitting                                  ... on

GRIDX 3
-------
General Integration Accuracy     IntAcc      ... 4.338
Radial Grid Type                 RadialGrid  ... OptM3 with GC (2021)
Angular Grid (max. ang.)         AngularGrid ... 3 (Lebedev-194)
Angular grid pruning method      GridPruning ... 4 (adaptive)
Weight generation scheme         WeightScheme... Becke
Basis function cutoff            BFCut       ... 1.0000e-11
Integration weight cutoff        WCut        ... 1.0000e-14
Angular grids for H and He will be reduced by one unit
Partially contracted basis set               ... on
Rotationally invariant grid construction     ... off

Total number of grid points                  ...   176357
Total number of batches                      ...     2789
Average number of points per batch           ...       63
Average number of grid points per atom       ...     2416
UseSFitting                                  ... on

Time for X-Grid setup             =    4.171 sec


--------------------
CPCM SOLVATION MODEL
--------------------
CPCM parameters:
  Epsilon                                         ...       4.9000
  Refrac                                          ...       1.4500
  Rsolv                                           ...       1.3000
  Surface type                                    ... GAUSSIAN VDW
  Epsilon function type                           ...         CPCM
Radii:
 Radius for C  used is    3.8550 Bohr (=   2.0400 Ang.)
 Radius for H  used is    2.4944 Bohr (=   1.3200 Ang.)
 Radius for O  used is    3.4469 Bohr (=   1.8240 Ang.)
Calculating surface                               ...        done! (  0.0s)
GEPOL surface points                              ...         3640
GEPOL Volume                                      ...    3609.6265
GEPOL Surface-area                                ...    1801.7937
Calculating surface distance matrix               ...        done! (  0.1s)
Performing Cholesky decomposition & store         ...        done! (  0.6s)
Overall time for CPCM initialization              ...                 0.8s
--------------
SCF ITERATIONS
--------------
ITER       Energy         Delta-E        Max-DP      RMS-DP      [F,P]     Damp
               ***  Starting incremental Fock matrix formation  ***

  HOMO= 109 E= -3.982 eV LUMO=  7.701 eV gap=  11.684 eV
  0  -1165.0104421327   0.000000000000 0.09770939  0.00106304  0.1964806 0.7000

  HOMO= 109 E= -4.846 eV LUMO=  7.019 eV gap=  11.865 eV
  1  -1165.2296785170  -0.219236384333 0.06552098  0.00078281  0.0951421 0.7000
                               ***Turning on DIIS***

  HOMO= 109 E= -5.444 eV LUMO=  6.471 eV gap=  11.915 eV
  2  -1165.3307194782  -0.101040961203 0.10334166  0.00138608  0.0375593 0.0000

  HOMO= 109 E= -6.001 eV LUMO=  5.942 eV gap=  11.943 eV
  3  -1165.4755152674  -0.144795789196 0.05169603  0.00057255  0.0461445 0.0000

  HOMO= 109 E= -6.070 eV LUMO=  5.872 eV gap=  11.942 eV
  4  -1165.5110215609  -0.035506293494 0.01155934  0.00013518  0.0058824 0.0000

  HOMO= 109 E= -6.019 eV LUMO=  5.930 eV gap=  11.949 eV
  5  -1165.5118767826  -0.000855221661 0.00248799  0.00003788  0.0050956 0.0000

  HOMO= 109 E= -6.006 eV LUMO=  5.943 eV gap=  11.949 eV
  6  -1165.5119564498  -0.000079667225 0.00114813  0.00001173  0.0010599 0.0000

  HOMO= 109 E= -6.008 eV LUMO= -0.861 eV gap=   5.147 eV
  7  -1165.5119617647  -0.000005314907 0.00049911  0.00000602  0.0002316 0.0000
               *** Restarting incremental Fock matrix formation ***
                                   *** Resetting DIIS ***

  HOMO= 109 E= -6.007 eV LUMO= -0.860 eV gap=   5.147 eV
  8  -1165.5119282148   0.000033549906 0.00035210  0.00000278  0.0001203 0.0000

  HOMO= 109 E= -6.007 eV LUMO= -0.860 eV gap=   5.147 eV
  9  -1165.5119282552  -0.000000040410 0.00013828  0.00000124  0.0001619 0.0000

  HOMO= 109 E= -6.007 eV LUMO= -0.860 eV gap=   5.148 eV
 10  -1165.5119283729  -0.000000117680 0.00006181  0.00000039  0.0000314 0.0000

  HOMO= 109 E= -6.007 eV LUMO= -0.860 eV gap=   5.148 eV
 11  -1165.5119283976  -0.000000024681 0.00002464  0.00000017  0.0000184 0.0000

  HOMO= 109 E= -6.007 eV LUMO= -0.860 eV gap=   5.148 eV
 12  -1165.5119283776   0.000000019946 0.00000717  0.00000004  0.0000035 0.0000
                 **** Energy Check signals convergence ****

               *****************************************************
               *                     SUCCESS                       *
               *           SCF CONVERGED AFTER  13 CYCLES          *
               *****************************************************

Old exchange energy                            =    -42.067351214 Eh
New exchange energy                            =    -42.067311140 Eh
Exchange energy change after final integration =      0.000040074 Eh
Total energy after final integration           =  -1165.511888303 Eh
Final COS-X integration done in                =    13.701 sec

----------------
TOTAL SCF ENERGY
----------------

Total Energy       :        -1165.51188830 Eh          -31715.19085 eV

Components:
Nuclear Repulsion  :         2767.55255949 Eh           75308.93378 eV
Electronic Energy  :        -3933.06444780 Eh         -107024.12463 eV
One Electron Energy:        -7076.86328034 Eh         -192571.23999 eV
Two Electron Energy:         3143.79883254 Eh           85547.11536 eV
Max COSX asymmetry :            0.00000196 Eh               0.00005 eV
CPCM Dielectric    :           -0.01364127 Eh              -0.37120 eV

Virial components:
Potential Energy   :        -2322.40833564 Eh          -63195.94363 eV
Kinetic Energy     :         1156.89644734 Eh           31480.75278 eV
Virial Ratio       :            2.00744703


DFT components:
N(Alpha)           :      109.999996157446 electrons
N(Beta)            :      109.999996157446 electrons
N(Total)           :      219.999992314892 electrons
E(X)               :     -125.744624366920 Eh       
E(C)               :       -7.325985819229 Eh       
E(XC)              :     -133.070610186149 Eh       
DFET-embed. en.    :        0.000000000000 Eh       
CPCM Solvation Model Properties:
Surface-charge          :           -0.03478989
Charge-correction       :           -0.00008410 Eh              -0.00229 eV
Free-energy (cav+disp)  :  This term is not implemented in the current solvation scheme

---------------
SCF CONVERGENCE
---------------

  Last Energy change         ...    1.6780e-10  Tolerance :   1.0000e-07
  Last MAX-Density change    ...    0.0000e+00  Tolerance :   1.0000e-05
  Last RMS-Density change    ...    0.0000e+00  Tolerance :   1.0000e-06
  Last DIIS Error            ...    2.1757e-06  Tolerance :   1.0000e-07

             **** THE GBW FILE WAS UPDATED (inpJ.gbw) ****
             **** DENSITY inpJ.scfp WAS UPDATED ****
             **** ENERGY FILE WAS UPDATED (inpJ.en.tmp) ****
             **** THE GBW FILE WAS UPDATED (inpJ.gbw) ****
             **** DENSITY inpJ.scfp WAS UPDATED ****
----------------
ORBITAL ENERGIES
----------------

  NO   OCC          E(Eh)            E(eV) 
   0   2.0000     -19.212390      -522.7957 
   1   2.0000     -10.300428      -280.2889 
   2   2.0000     -10.270355      -279.4706 
   3   2.0000     -10.268240      -279.4130 
   4   2.0000     -10.263687      -279.2891 
   5   2.0000     -10.257403      -279.1181 
   6   2.0000     -10.256967      -279.1063 
   7   2.0000     -10.250381      -278.9270 
   8   2.0000     -10.249567      -278.9049 
   9   2.0000     -10.248573      -278.8779 
  10   2.0000     -10.248052      -278.8637 
  11   2.0000     -10.247601      -278.8514 
  12   2.0000     -10.246182      -278.8128 
  13   2.0000     -10.245233      -278.7870 
  14   2.0000     -10.245075      -278.7827 
  15   2.0000     -10.244475      -278.7663 
  16   2.0000     -10.243678      -278.7446 
  17   2.0000     -10.242934      -278.7244 
  18   2.0000     -10.241714      -278.6912 
  19   2.0000     -10.241334      -278.6809 
  20   2.0000     -10.240185      -278.6496 
  21   2.0000     -10.234460      -278.4938 
  22   2.0000     -10.234251      -278.4881 
  23   2.0000     -10.232929      -278.4522 
  24   2.0000     -10.226286      -278.2714 
  25   2.0000     -10.225776      -278.2575 
  26   2.0000     -10.224793      -278.2308 
  27   2.0000     -10.224006      -278.2093 
  28   2.0000     -10.220862      -278.1238 
  29   2.0000      -1.043144       -28.3854 
  30   2.0000      -0.901512       -24.5314 
  31   2.0000      -0.882121       -24.0037 
  32   2.0000      -0.859712       -23.3939 
  33   2.0000      -0.846181       -23.0258 
  34   2.0000      -0.822957       -22.3938 
  35   2.0000      -0.814402       -22.1610 
  36   2.0000      -0.796002       -21.6603 
  37   2.0000      -0.795062       -21.6347 
  38   2.0000      -0.777874       -21.1670 
  39   2.0000      -0.758296       -20.6343 
  40   2.0000      -0.740971       -20.1628 
  41   2.0000      -0.734366       -19.9831 
  42   2.0000      -0.715094       -19.4587 
  43   2.0000      -0.703360       -19.1394 
  44   2.0000      -0.702854       -19.1256 
  45   2.0000      -0.695591       -18.9280 
  46   2.0000      -0.670712       -18.2510 
  47   2.0000      -0.662815       -18.0361 
  48   2.0000      -0.630465       -17.1558 
  49   2.0000      -0.622049       -16.9268 
  50   2.0000      -0.612130       -16.6569 
  51   2.0000      -0.604646       -16.4532 
  52   2.0000      -0.596515       -16.2320 
  53   2.0000      -0.577391       -15.7116 
  54   2.0000      -0.563424       -15.3316 
  55   2.0000      -0.550511       -14.9802 
  56   2.0000      -0.540279       -14.7017 
  57   2.0000      -0.529378       -14.4051 
  58   2.0000      -0.515268       -14.0212 
  59   2.0000      -0.509574       -13.8662 
  60   2.0000      -0.500324       -13.6145 
  61   2.0000      -0.491982       -13.3875 
  62   2.0000      -0.484748       -13.1907 
  63   2.0000      -0.480945       -13.0872 
  64   2.0000      -0.472602       -12.8602 
  65   2.0000      -0.469426       -12.7737 
  66   2.0000      -0.464772       -12.6471 
  67   2.0000      -0.459212       -12.4958 
  68   2.0000      -0.458231       -12.4691 
  69   2.0000      -0.455663       -12.3992 
  70   2.0000      -0.450300       -12.2533 
  71   2.0000      -0.440618       -11.9898 
  72   2.0000      -0.434584       -11.8256 
  73   2.0000      -0.431957       -11.7541 
  74   2.0000      -0.425565       -11.5802 
  75   2.0000      -0.422826       -11.5057 
  76   2.0000      -0.414567       -11.2809 
  77   2.0000      -0.413339       -11.2475 
  78   2.0000      -0.412503       -11.2248 
  79   2.0000      -0.403918       -10.9912 
  80   2.0000      -0.401324       -10.9206 
  81   2.0000      -0.398535       -10.8447 
  82   2.0000      -0.397979       -10.8296 
  83   2.0000      -0.392175       -10.6716 
  84   2.0000      -0.383521       -10.4361 
  85   2.0000      -0.382167       -10.3993 
  86   2.0000      -0.375723       -10.2239 
  87   2.0000      -0.375225       -10.2104 
  88   2.0000      -0.372761       -10.1434 
  89   2.0000      -0.364423        -9.9165 
  90   2.0000      -0.360525        -9.8104 
  91   2.0000      -0.359340        -9.7781 
  92   2.0000      -0.352612        -9.5951 
  93   2.0000      -0.345533        -9.4024 
  94   2.0000      -0.341763        -9.2998 
  95   2.0000      -0.340179        -9.2567 
  96   2.0000      -0.334754        -9.1091 
  97   2.0000      -0.331981        -9.0336 
  98   2.0000      -0.330562        -8.9951 
  99   2.0000      -0.328868        -8.9489 
 100   2.0000      -0.328264        -8.9325 
 101   2.0000      -0.325420        -8.8551 
 102   2.0000      -0.319126        -8.6839 
 103   2.0000      -0.316901        -8.6233 
 104   2.0000      -0.310862        -8.4590 
 105   2.0000      -0.300404        -8.1744 
 106   2.0000      -0.276581        -7.5262 
 107   2.0000      -0.275039        -7.4842 
 108   2.0000      -0.258125        -7.0239 
 109   2.0000      -0.220766        -6.0073 
 110   0.0000      -0.031597        -0.8598 
 111   0.0000       0.019362         0.5269 
 112   0.0000       0.026103         0.7103 
 113   0.0000       0.080294         2.1849 
 114   0.0000       0.087904         2.3920 
 115   0.0000       0.101529         2.7628 
 116   0.0000       0.105319         2.8659 
 117   0.0000       0.107208         2.9173 
 118   0.0000       0.110439         3.0052 
 119   0.0000       0.113981         3.1016 
 120   0.0000       0.117713         3.2031 
 121   0.0000       0.120765         3.2862 
 122   0.0000       0.125596         3.4176 
 123   0.0000       0.129491         3.5236 
 124   0.0000       0.133875         3.6429 
 125   0.0000       0.136021         3.7013 
 126   0.0000       0.138466         3.7678 
 127   0.0000       0.140610         3.8262 
 128   0.0000       0.145927         3.9709 
 129   0.0000       0.150091         4.0842 
 130   0.0000       0.155190         4.2229 
 131   0.0000       0.155430         4.2295 
 132   0.0000       0.158854         4.3226 
 133   0.0000       0.165906         4.5145 
 134   0.0000       0.168956         4.5975 
 135   0.0000       0.171708         4.6724 
 136   0.0000       0.174165         4.7393 
 137   0.0000       0.175990         4.7889 
 138   0.0000       0.177281         4.8241 
 139   0.0000       0.177757         4.8370 
 140   0.0000       0.182547         4.9673 
 141   0.0000       0.186737         5.0814 
 142   0.0000       0.188715         5.1352 
 143   0.0000       0.189246         5.1496 
 144   0.0000       0.195282         5.3139 
 145   0.0000       0.199527         5.4294 
 146   0.0000       0.200261         5.4494 
 147   0.0000       0.201685         5.4881 
 148   0.0000       0.204041         5.5522 
 149   0.0000       0.207041         5.6339 
 150   0.0000       0.216527         5.8920 
 151   0.0000       0.218225         5.9382 
 152   0.0000       0.224135         6.0990 
 153   0.0000       0.225656         6.1404 
 154   0.0000       0.231621         6.3027 
 155   0.0000       0.232928         6.3383 
 156   0.0000       0.239279         6.5111 
 157   0.0000       0.245645         6.6843 
 158   0.0000       0.246349         6.7035 
 159   0.0000       0.248821         6.7708 
 160   0.0000       0.253468         6.8972 
 161   0.0000       0.258266         7.0278 
 162   0.0000       0.260545         7.0898 
 163   0.0000       0.264374         7.1940 
 164   0.0000       0.270666         7.3652 
 165   0.0000       0.272683         7.4201 
 166   0.0000       0.276610         7.5269 
 167   0.0000       0.278476         7.5777 
 168   0.0000       0.282216         7.6795 
 169   0.0000       0.289777         7.8852 
 170   0.0000       0.295326         8.0362 
 171   0.0000       0.299537         8.1508 
 172   0.0000       0.304432         8.2840 
 173   0.0000       0.310193         8.4408 
 174   0.0000       0.314221         8.5504 
 175   0.0000       0.315802         8.5934 
 176   0.0000       0.319485         8.6936 
 177   0.0000       0.336055         9.1445 
 178   0.0000       0.348596         9.4858 
 179   0.0000       0.356839         9.7101 
 180   0.0000       0.364706         9.9241 
 181   0.0000       0.374729        10.1969 
 182   0.0000       0.379666        10.3312 
 183   0.0000       0.402377        10.9492 
 184   0.0000       0.421006        11.4562 
 185   0.0000       0.460536        12.5318 
 186   0.0000       0.469044        12.7633 
 187   0.0000       0.487130        13.2555 
 188   0.0000       0.503686        13.7060 
 189   0.0000       0.511092        13.9075 
 190   0.0000       0.516408        14.0522 
 191   0.0000       0.520776        14.1710 
 192   0.0000       0.536488        14.5986 
 193   0.0000       0.558734        15.2039 
 194   0.0000       0.570339        15.5197 
 195   0.0000       0.572445        15.5770 
 196   0.0000       0.579897        15.7798 
 197   0.0000       0.588131        16.0038 
 198   0.0000       0.588621        16.0172 
 199   0.0000       0.595969        16.2171 
 200   0.0000       0.618096        16.8192 
 201   0.0000       0.619426        16.8554 
 202   0.0000       0.628261        17.0958 
 203   0.0000       0.629640        17.1334 
 204   0.0000       0.636328        17.3154 
 205   0.0000       0.645210        17.5571 
 206   0.0000       0.652160        17.7462 
 207   0.0000       0.657893        17.9022 
 208   0.0000       0.668453        18.1895 
 209   0.0000       0.670023        18.2322 
 210   0.0000       0.673318        18.3219 
 211   0.0000       0.683467        18.5981 
 212   0.0000       0.687854        18.7175 
 213   0.0000       0.690629        18.7930 
 214   0.0000       0.700036        19.0490 
 215   0.0000       0.707710        19.2578 
 216   0.0000       0.711909        19.3720 
 217   0.0000       0.714828        19.4515 
 218   0.0000       0.721135        19.6231 
 219   0.0000       0.724457        19.7135 
 220   0.0000       0.729242        19.8437 
 221   0.0000       0.730737        19.8844 
 222   0.0000       0.733820        19.9683 
 223   0.0000       0.739087        20.1116 
 224   0.0000       0.745271        20.2799 
 225   0.0000       0.747994        20.3540 
 226   0.0000       0.750895        20.4329 
 227   0.0000       0.759065        20.6552 
 228   0.0000       0.761615        20.7246 
 229   0.0000       0.764690        20.8083 
 230   0.0000       0.768915        20.9233 
 231   0.0000       0.772649        21.0249 
 232   0.0000       0.779682        21.2162 
 233   0.0000       0.780840        21.2477 
 234   0.0000       0.790354        21.5066 
 235   0.0000       0.795056        21.6346 
 236   0.0000       0.799011        21.7422 
 237   0.0000       0.805080        21.9073 
 238   0.0000       0.811613        22.0851 
 239   0.0000       0.819503        22.2998 
 240   0.0000       0.826829        22.4992 
 241   0.0000       0.830483        22.5986 
 242   0.0000       0.839412        22.8416 
 243   0.0000       0.842596        22.9282 
 244   0.0000       0.849459        23.1150 
 245   0.0000       0.855108        23.2687 
 246   0.0000       0.861864        23.4525 
 247   0.0000       0.866221        23.5711 
 248   0.0000       0.867900        23.6168 
 249   0.0000       0.870612        23.6906 
 250   0.0000       0.871702        23.7202 
 251   0.0000       0.875908        23.8347 
 252   0.0000       0.876014        23.8376 
 253   0.0000       0.880330        23.9550 
 254   0.0000       0.882182        24.0054 
 255   0.0000       0.882483        24.0136 
 256   0.0000       0.886646        24.1269 
 257   0.0000       0.889639        24.2083 
 258   0.0000       0.891590        24.2614 
 259   0.0000       0.897142        24.4125 
 260   0.0000       0.900606        24.5067 
 261   0.0000       0.902730        24.5645 
 262   0.0000       0.903656        24.5897 
 263   0.0000       0.909184        24.7401 
 264   0.0000       0.911846        24.8126 
 265   0.0000       0.920253        25.0413 
 266   0.0000       0.923991        25.1431 
 267   0.0000       0.926416        25.2091 
 268   0.0000       0.929693        25.2982 
 269   0.0000       0.933800        25.4100 
 270   0.0000       0.939990        25.5784 
 271   0.0000       0.942456        25.6455 
 272   0.0000       0.947737        25.7892 
 273   0.0000       0.951655        25.8958 
 274   0.0000       0.952595        25.9214 
 275   0.0000       0.963658        26.2225 
 276   0.0000       0.966417        26.2976 
 277   0.0000       0.970173        26.3997 
 278   0.0000       0.971667        26.4404 
 279   0.0000       0.976624        26.5753 
 280   0.0000       0.982476        26.7345 
 281   0.0000       0.990969        26.9656 
 282   0.0000       0.998890        27.1812 
 283   0.0000       1.005895        27.3718 
 284   0.0000       1.009964        27.4825 
 285   0.0000       1.021004        27.7829 
 286   0.0000       1.032620        28.0990 
 287   0.0000       1.036792        28.2125 
 288   0.0000       1.054107        28.6837 
 289   0.0000       1.065886        29.0042 
 290   0.0000       1.074000        29.2250 
 291   0.0000       1.076470        29.2922 
 292   0.0000       1.080470        29.4011 
 293   0.0000       1.093132        29.7456 
 294   0.0000       1.103449        30.0264 
 295   0.0000       1.114464        30.3261 
 296   0.0000       1.122258        30.5382 
 297   0.0000       1.132526        30.8176 
 298   0.0000       1.138901        30.9911 
 299   0.0000       1.147608        31.2280 
 300   0.0000       1.152583        31.3634 
 301   0.0000       1.166206        31.7341 
 302   0.0000       1.177302        32.0360 
 303   0.0000       1.200468        32.6664 
 304   0.0000       1.231700        33.5162 
 305   0.0000       1.235311        33.6145 
 306   0.0000       1.245160        33.8825 
 307   0.0000       1.264600        34.4115 
 308   0.0000       1.290454        35.1150 
 309   0.0000       1.305134        35.5145 
 310   0.0000       1.333036        36.2738 
 311   0.0000       1.337650        36.3993 
 312   0.0000       1.366475        37.1837 
 313   0.0000       1.382198        37.6115 
 314   0.0000       1.410962        38.3942 
 315   0.0000       1.512590        41.1597 
 316   0.0000       1.527248        41.5585 
 317   0.0000       1.568912        42.6923 
 318   0.0000       1.591519        43.3074 
 319   0.0000       1.675204        45.5846 
 320   0.0000       6.202118       168.7682 
 321   0.0000       6.232011       169.5817 
 322   0.0000       6.262112       170.4007 
 323   0.0000       6.265376       170.4895 
 324   0.0000       6.283654       170.9869 
 325   0.0000       6.291592       171.2029 
 326   0.0000       6.298871       171.4010 
 327   0.0000       6.302450       171.4984 
 328   0.0000       6.316640       171.8845 
 329   0.0000       6.336656       172.4292 
 330   0.0000       6.345939       172.6818 
 331   0.0000       6.347882       172.7346 
 332   0.0000       6.358393       173.0207 
 333   0.0000       6.363735       173.1660 
 334   0.0000       6.386461       173.7844 
 335   0.0000       6.395039       174.0179 
 336   0.0000       6.406527       174.3305 
 337   0.0000       6.414481       174.5469 
 338   0.0000       6.418898       174.6671 
 339   0.0000       6.424355       174.8156 
 340   0.0000       6.442465       175.3084 
 341   0.0000       6.445419       175.3888 
 342   0.0000       6.454543       175.6370 
 343   0.0000       6.463501       175.8808 
 344   0.0000       6.473642       176.1567 
 345   0.0000       6.474519       176.1806 
 346   0.0000       6.485129       176.4693 
 347   0.0000       6.489592       176.5908 
 348   0.0000       6.507167       177.0690 
 349   0.0000       6.512270       177.2079 
 350   0.0000       6.514420       177.2664 
 351   0.0000       6.526577       177.5972 
 352   0.0000       6.535148       177.8304 
 353   0.0000       6.541718       178.0092 
 354   0.0000       6.548155       178.1844 
 355   0.0000       6.553071       178.3181 
 356   0.0000       6.559239       178.4860 
 357   0.0000       6.570067       178.7806 
 358   0.0000       6.571074       178.8080 
 359   0.0000       6.577939       178.9948 
 360   0.0000       6.583892       179.1568 
 361   0.0000       6.586364       179.2241 
 362   0.0000       6.589276       179.3033 
 363   0.0000       6.590619       179.3399 
 364   0.0000       6.597832       179.5361 
 365   0.0000       6.601841       179.6452 
 366   0.0000       6.608647       179.8304 
 367   0.0000       6.611534       179.9090 
 368   0.0000       6.614768       179.9970 
 369   0.0000       6.617130       180.0613 
 370   0.0000       6.621474       180.1795 
 371   0.0000       6.628106       180.3599 
 372   0.0000       6.631345       180.4481 
 373   0.0000       6.634274       180.5278 
 374   0.0000       6.637599       180.6183 
[...]
     69 H        0.000      0.000      0.000      0.000      0.000      0.000
     70 H        0.000      0.000      0.000     -0.000      0.001      0.020
     71 H        0.000      0.000      0.000      0.000      0.001      0.008
     72 H        0.000      0.000      0.000      0.000      0.002      0.035
                 25 H       27 H       28 H       30 H       31 H       33 H  
      3 H        0.074     -0.003      0.002      0.000      0.000      0.088
      4 H        2.311     -0.108      0.064      0.000      0.000      2.562
      8 H        0.122      0.000      0.000      0.000      0.000      0.112
      9 H       -0.257      0.014      0.000      0.000      0.000     -0.304
     10 H        0.000      0.000      0.000      0.000      0.000      0.000
     11 H        0.000      0.000      0.000      0.000      0.000      0.000
     13 H       -0.038      0.000      0.000      0.000      0.000      0.000
     16 H       -0.260      0.014     -0.004     -0.031     -0.002     -0.301
     17 H       -0.239      0.013      0.000      0.000      0.000     -0.295
     19 H        0.913     -0.045      0.072      0.064      0.005      0.967
     21 H       -2.837      0.188      0.673     -0.229     -0.027     -2.388
     24 H      -13.467      4.366      2.324      0.651     -0.501     -0.136
     25 H        0.000     12.964      5.257     -0.642     -0.354     -2.155
     27 H       12.964      0.000    -13.607      4.043     12.993      0.063
     28 H        5.257    -13.607      0.000      2.588      4.169      0.285
     30 H       -0.642      4.043      2.588      0.000    -12.994      0.039
     31 H       -0.354     12.993      4.169    -12.994      0.000     -0.326
     33 H       -2.155      0.063      0.285      0.039     -0.326      0.000
     35 H       -0.026      0.001     -0.001      0.000     -0.000     -0.034
     37 H        0.277      0.004     -0.036      0.515     -0.036      6.457
     38 H        0.170      0.001     -0.028     -0.012      0.126     12.195
     40 H       -0.013      0.019      0.145     -0.003     -0.034     -0.248
     41 H        0.010      0.022     -0.025      0.014      0.080     -0.429
     42 H       -0.018      0.013     -0.011     -0.259     -0.376     -0.209
     45 H       -0.059     -0.122     -0.146     -0.143      1.835     -0.471
     46 H       -0.016     -0.218      0.006     -0.206     -0.475     -0.212
     47 H        0.014      0.047      0.065     -0.330      0.026      0.866
     48 H       -0.014      0.030      0.022      0.028      0.009      0.001
     52 H        0.001      0.001      0.002     -0.003      0.001      0.003
     53 H        0.000     -0.000      0.000      0.000     -0.002     -0.003
     57 H        0.000      0.000      0.000     -0.000      0.000      0.000
     58 H        0.000      0.000      0.000      0.000     -0.000      0.000
     61 H        0.000      0.000      0.000      0.000      0.000     -0.000
     62 H        0.000      0.000      0.000      0.000      0.000      0.000
     63 H        0.000      0.000      0.000      0.000      0.000     -0.000
     64 H        0.000      0.000      0.000      0.000      0.000      0.000
     65 H        0.000      0.000      0.000      0.000      0.000      0.000
     66 H        0.000      0.000      0.000      0.000      0.000      0.000
     67 H        0.000      0.000      0.000      0.000      0.000      0.000
     68 H        0.000      0.000      0.000      0.000      0.000      0.000
     69 H        0.000      0.000      0.000      0.000      0.000      0.000
     70 H        0.004     -0.010     -0.009     -0.438     -0.078      0.004
     71 H        0.000     -0.001     -0.003      0.074      0.012     -0.001
     72 H        0.000     -0.010     -0.011      0.083     -0.046      0.003
                 35 H       37 H       38 H       40 H       41 H       42 H  
      3 H       -0.269     -0.001     -0.001      0.000      0.000      0.000
      4 H       -0.646     -0.044     -0.016      0.000      0.000      0.000
      8 H       -0.028     -0.002     -0.002      0.000     -0.000      0.000
      9 H       -0.146      0.005      0.002      0.000      0.001      0.000
     10 H       -0.394     -0.000     -0.000      0.000      0.000      0.000
     11 H       -0.143     -0.002     -0.000      0.000      0.000      0.000
     13 H       12.437      0.000      0.000      0.000      0.000      0.000
     16 H       -0.003      0.004      0.004      0.000      0.001     -0.001
     17 H       -0.001      0.005      0.004     -0.000      0.001      0.000
     19 H        0.043     -0.018      0.083      0.013     -0.005      0.004
     21 H       -0.015      0.060     -0.572     -0.012      0.062     -0.023
     24 H       -0.001     -0.056     -0.081     -0.019      0.068     -0.024
     25 H       -0.026      0.277      0.170     -0.013      0.010     -0.018
     27 H        0.001      0.004      0.001      0.019      0.022      0.013
     28 H       -0.001     -0.036     -0.028      0.145     -0.025     -0.011
     30 H        0.000      0.515     -0.012     -0.003      0.014     -0.259
     31 H       -0.000     -0.036      0.126     -0.034      0.080     -0.376
     33 H       -0.034      6.457     12.195     -0.248     -0.429     -0.209
     35 H        0.000      0.000     -0.000      0.000      0.000      0.000
     37 H        0.000      0.000    -12.253      9.502      2.621     -0.262
     38 H       -0.000    -12.253      0.000      6.749     11.610     -0.467
     40 H        0.000      9.502      6.749      0.000    -13.887      9.560
     41 H        0.000      2.621     11.610    -13.887      0.000      8.677
     42 H        0.000     -0.262     -0.467      9.560      8.677      0.000
     45 H       -0.000      0.066     -0.066     -0.111     -0.060     -0.078
     46 H        0.000      0.061      0.034     -0.085      0.006      1.127
     47 H        0.000     -0.170      0.009      0.051      0.045     -0.407
     48 H        0.000      0.098     -0.009     -0.206     -0.433     10.340
     52 H        0.000     -0.000      0.004      0.074     -0.021     -0.285
     53 H        0.000      0.003      0.005     -0.118      0.017      0.093
     57 H        0.000      0.000      0.001      0.013     -0.002      0.028
     58 H        0.000      0.000      0.000     -0.004      0.000      0.002
     61 H        0.000      0.000      0.000     -0.004      0.001     -0.000
     62 H        0.000     -0.001     -0.000      0.011      0.004     -0.022
     63 H        0.000      0.000     -0.000     -0.011     -0.001      0.000
     64 H        0.000      0.000      0.000      0.001      0.000      0.000
     65 H        0.000      0.000      0.000     -0.001     -0.000      0.000
     66 H        0.000      0.000      0.000      0.007     -0.000      0.000
     67 H        0.000      0.000      0.000     -0.001     -0.000      0.000
     68 H        0.000      0.000      0.000      0.000     -0.000     -0.000
     69 H        0.000      0.000      0.000      0.000      0.000     -0.000
     70 H        0.000     -0.006      0.004      0.084      0.024     -0.199
     71 H        0.000     -0.020      0.036      0.027     -0.054     -0.350
     72 H        0.000      0.066      0.009     -0.022      0.006     -0.441
                 45 H       46 H       47 H       48 H       52 H       53 H  
      3 H        0.001     -0.000     -0.001      0.000      0.000      0.000
      4 H        0.026     -0.017     -0.018      0.000      0.000      0.000
      8 H        0.001     -0.001      0.000      0.000      0.000      0.000
      9 H       -0.003      0.002      0.000      0.000      0.000      0.000
     10 H        0.000     -0.000      0.000      0.000      0.000      0.000
     11 H        0.000      0.000      0.000      0.000      0.000      0.000
     13 H        0.000      0.000      0.000      0.000      0.000      0.000
     16 H       -0.003      0.001      0.002     -0.002      0.000      0.000
     17 H       -0.004      0.000      0.001     -0.002      0.000      0.000
     19 H        0.010     -0.010     -0.008      0.005      0.000      0.000
     21 H       -0.018      0.041      0.012     -0.015      0.001     -0.001
     24 H       -0.022     -0.022     -0.016      0.002      0.000      0.000
     25 H       -0.059     -0.016      0.014     -0.014      0.001      0.000
     27 H       -0.122     -0.218      0.047      0.030      0.001     -0.000
     28 H       -0.146      0.006      0.065      0.022      0.002      0.000
     30 H       -0.143     -0.206     -0.330      0.028     -0.003      0.000
     31 H        1.835     -0.475      0.026      0.009      0.001     -0.002
     33 H       -0.471     -0.212      0.866      0.001      0.003     -0.003
     35 H       -0.000      0.000      0.000      0.000      0.000      0.000
     37 H        0.066      0.061     -0.170      0.098     -0.000      0.003
     38 H       -0.066      0.034      0.009     -0.009      0.004      0.005
     40 H       -0.111     -0.085      0.051     -0.206      0.074     -0.118
     41 H       -0.060      0.006      0.045     -0.433     -0.021      0.017
     42 H       -0.078      1.127     -0.407     10.340     -0.285      0.093
     45 H        0.000    -13.571    -13.068     -0.172      0.072     -0.002
     46 H      -13.571      0.000    -12.898     -0.110      0.242     -0.001
     47 H      -13.068    -12.898      0.000     -0.060      0.075     -0.002
     48 H       -0.172     -0.110     -0.060      0.000      9.768     -0.613
     52 H        0.072      0.242      0.075      9.768      0.000     15.928
     53 H       -0.002     -0.001     -0.002     -0.613     15.928      0.000
     57 H       -0.000      0.000      0.000     -0.055     -0.674     10.137
     58 H       -0.000      0.000     -0.000     -0.004      0.136     -0.173
     61 H        0.000      0.000      0.000      0.029      0.051     -0.323
     62 H        0.001      0.000      0.000      0.037     -0.343     -0.056
     63 H       -0.000     -0.000     -0.000     -0.004      0.115     -0.164
     64 H        0.000      0.000      0.000      0.001     -0.011      0.061
     65 H        0.000      0.000      0.000     -0.002      0.004      0.017
     66 H        0.000      0.000      0.000      0.009     -0.082      0.056
     67 H        0.000      0.000      0.000     -0.003      0.047     -0.191
     68 H        0.000      0.000      0.000     -0.000      0.086     -0.040
     69 H        0.000      0.000      0.000      0.000     -0.022      0.010
     70 H       -0.018     -0.050     -0.197      4.473     -0.091     -0.398
     71 H        0.035     -0.032     -0.037     12.688     -0.271      0.101
     72 H       -0.012     -0.028     -0.016      2.323     -0.154      0.101
                 57 H       58 H       61 H       62 H       63 H       64 H  
      3 H        0.000      0.000      0.000      0.000      0.000      0.000
      4 H        0.000      0.000      0.000      0.000      0.000      0.000
      8 H        0.000      0.000      0.000      0.000      0.000      0.000
      9 H        0.000      0.000      0.000      0.000      0.000      0.000
     10 H        0.000      0.000      0.000      0.000      0.000      0.000
     11 H        0.000      0.000      0.000      0.000      0.000      0.000
     13 H        0.000      0.000      0.000      0.000      0.000      0.000
     16 H        0.000      0.000      0.000      0.000      0.000      0.000
     17 H        0.000      0.000      0.000      0.000      0.000      0.000
     19 H        0.000      0.000      0.000      0.000      0.000      0.000
     21 H        0.000      0.000      0.000      0.000     -0.000      0.000
     24 H        0.000      0.000      0.000      0.000      0.000      0.000
     25 H        0.000      0.000      0.000      0.000      0.000      0.000
     27 H        0.000      0.000      0.000      0.000      0.000      0.000
     28 H        0.000      0.000      0.000      0.000      0.000      0.000
     30 H       -0.000      0.000      0.000      0.000      0.000      0.000
     31 H        0.000     -0.000      0.000      0.000      0.000      0.000
     33 H        0.000      0.000     -0.000      0.000     -0.000      0.000
     35 H        0.000      0.000      0.000      0.000      0.000      0.000
     37 H        0.000      0.000      0.000     -0.001      0.000      0.000
     38 H        0.001      0.000      0.000     -0.000     -0.000      0.000
     40 H        0.013     -0.004     -0.004      0.011     -0.011      0.001
     41 H       -0.002      0.000      0.001      0.004     -0.001      0.000
     42 H        0.028      0.002     -0.000     -0.022      0.000      0.000
     45 H       -0.000     -0.000      0.000      0.001     -0.000      0.000
     46 H        0.000      0.000      0.000      0.000     -0.000      0.000
     47 H        0.000     -0.000      0.000      0.000     -0.000      0.000
     48 H       -0.055     -0.004      0.029      0.037     -0.004      0.001
     52 H       -0.674      0.136      0.051     -0.343      0.115     -0.011
     53 H       10.137     -0.173     -0.323     -0.056     -0.164      0.061
     57 H        0.000      2.660     13.071      2.664      4.331     -0.333
     58 H        2.660      0.000     -0.557     -0.457      0.317      2.815
     61 H       13.071     -0.557      0.000    -12.263    -12.960      0.015
     62 H        2.664     -0.457    -12.263      0.000    -13.084      0.015
     63 H        4.331      0.317    -12.960    -13.084      0.000      0.045
     64 H       -0.333      2.815      0.015      0.015      0.045      0.000
     65 H       -0.280     13.215      0.053     -0.292     -0.094    -12.027
     66 H       -0.102      4.305      0.067     -0.145     -0.038    -12.689
     67 H       -0.413      2.938     -0.009      0.070      0.020      2.837
     68 H        0.502      4.055     -0.050      0.032     -0.134     -0.050
     69 H       -0.537     13.158     -0.107     -0.023     -0.074     -0.257
     70 H        0.099     -0.015     -0.009      0.009     -0.015      0.001
     71 H        0.014      0.002      0.002     -0.009      0.002     -0.000
     72 H       -0.002     -0.002      0.001     -0.014      0.000     -0.000
                 65 H       66 H       67 H       68 H       69 H       70 H  
      3 H        0.000      0.000      0.000      0.000      0.000      0.000
      4 H        0.000      0.000      0.000      0.000      0.000      0.000
      8 H        0.000      0.000      0.000      0.000      0.000      0.000
      9 H        0.000      0.000      0.000      0.000      0.000      0.000
     10 H        0.000      0.000      0.000      0.000      0.000      0.000
     11 H        0.000      0.000      0.000      0.000      0.000      0.000
     13 H        0.000      0.000      0.000      0.000      0.000      0.000
     16 H        0.000      0.000      0.000      0.000      0.000      0.000
     17 H        0.000      0.000      0.000      0.000      0.000      0.000
     19 H        0.000      0.000      0.000      0.000      0.000     -0.000
     21 H        0.000      0.000      0.000      0.000      0.000      0.001
     24 H        0.000      0.000      0.000      0.000      0.000      0.020
     25 H        0.000      0.000      0.000      0.000      0.000      0.004
     27 H        0.000      0.000      0.000      0.000      0.000     -0.010
     28 H        0.000      0.000      0.000      0.000      0.000     -0.009
     30 H        0.000      0.000      0.000      0.000      0.000     -0.438
     31 H        0.000      0.000      0.000      0.000      0.000     -0.078
     33 H        0.000      0.000      0.000      0.000      0.000      0.004
     35 H        0.000      0.000      0.000      0.000      0.000      0.000
     37 H        0.000      0.000      0.000      0.000      0.000     -0.006
     38 H        0.000      0.000      0.000      0.000      0.000      0.004
     40 H       -0.001      0.007     -0.001      0.000      0.000      0.084
     41 H       -0.000     -0.000     -0.000     -0.000      0.000      0.024
     42 H        0.000      0.000      0.000     -0.000     -0.000     -0.199
     45 H        0.000      0.000      0.000      0.000      0.000     -0.018
     46 H        0.000      0.000      0.000      0.000      0.000     -0.050
     47 H        0.000      0.000      0.000      0.000      0.000     -0.197
     48 H       -0.002      0.009     -0.003     -0.000      0.000      4.473
     52 H        0.004     -0.082      0.047      0.086     -0.022     -0.091
     53 H        0.017      0.056     -0.191     -0.040      0.010     -0.398
     57 H       -0.280     -0.102     -0.413      0.502     -0.537      0.099
     58 H       13.215      4.305      2.938      4.055     13.158     -0.015
     61 H        0.053      0.067     -0.009     -0.050     -0.107     -0.009
     62 H       -0.292     -0.145      0.070      0.032     -0.023      0.009
     63 H       -0.094     -0.038      0.020     -0.134     -0.074     -0.015
     64 H      -12.027    -12.689      2.837     -0.050     -0.257      0.001
     65 H        0.000    -13.084     -0.293     -0.227     -0.352      0.000
     66 H      -13.084      0.000     -0.125     -0.222     -0.222      0.000
     67 H       -0.293     -0.125      0.000    -13.084    -12.053     -0.003
     68 H       -0.227     -0.222    -13.084      0.000    -13.039      0.007
     69 H       -0.352     -0.222    -12.053    -13.039      0.000      0.005
     70 H        0.000      0.000     -0.003      0.007      0.005      0.000
     71 H        0.001     -0.007      0.001     -0.001     -0.000    -12.416
     72 H        0.000      0.004      0.000      0.002      0.001    -13.248
                 71 H       72 H  
      3 H        0.000      0.000
      4 H        0.000      0.000
      8 H        0.000      0.000
      9 H        0.000      0.000
     10 H        0.000      0.000
     11 H        0.000      0.000
     13 H        0.000      0.000
     16 H        0.000      0.000
     17 H        0.000      0.000
     19 H        0.000      0.000
     21 H        0.001      0.002
     24 H        0.008      0.035
     25 H        0.000      0.000
     27 H       -0.001     -0.010
     28 H       -0.003     -0.011
     30 H        0.074      0.083
     31 H        0.012     -0.046
     33 H       -0.001      0.003
     35 H        0.000      0.000
     37 H       -0.020      0.066
     38 H        0.036      0.009
     40 H        0.027     -0.022
     41 H       -0.054      0.006
     42 H       -0.350     -0.441
     45 H        0.035     -0.012
     46 H       -0.032     -0.028
     47 H       -0.037     -0.016
     48 H       12.688      2.323
     52 H       -0.271     -0.154
     53 H        0.101      0.101
     57 H        0.014     -0.002
     58 H        0.002     -0.002
     61 H        0.002      0.001
     62 H       -0.009     -0.014
     63 H        0.002      0.000
     64 H       -0.000     -0.000
     65 H        0.001      0.000
     66 H       -0.007      0.004
     67 H        0.001      0.000
     68 H       -0.001      0.002
     69 H       -0.000      0.001
     70 H      -12.416    -13.248
     71 H        0.000    -12.601
     72 H      -12.601      0.000

Maximum memory used throughout the entire EPRNMR-calculation: 988.8 MB

Timings for individual modules:

Sum of individual times         ...      401.524 sec (=   6.692 min)
GTO integral calculation        ...        0.577 sec (=   0.010 min)   0.1 %
SCF iterations                  ...      104.700 sec (=   1.745 min)  26.1 %
EPR/NMR calculation             ...      296.247 sec (=   4.937 min)  73.8 %
                             ****ORCA TERMINATED NORMALLY****
TOTAL RUN TIME: 0 days 0 hours 6 minutes 41 seconds 913 msec
