
                                 *****************
                                 * O   R   C   A *
                                 *****************

                                            #,                                       
                                            ###                                      
                                            ####                                     
                                            #####                                    
                                            ######                                   
                                           ########,                                 
                                     ,,################,,,,,                         
                               ,,#################################,,                 
                          ,,##########################################,,             
                       ,#########################################, ''#####,          
                    ,#############################################,,   '####,        
                  ,##################################################,,,,####,       
                ,###########''''           ''''###############################       
              ,#####''   ,,,,##########,,,,          '''####'''          '####       
            ,##' ,,,,###########################,,,                        '##       
           ' ,,###''''                  '''############,,,                           
         ,,##''                                '''############,,,,        ,,,,,,###''
      ,#''                                            '''#######################'''  
     '                                                          ''''####''''         
             ,#######,   #######,   ,#######,      ##                                
            ,#'     '#,  ##    ##  ,#'     '#,    #''#        ,####,   ,####,        
            ##       ##  ##   ,#'  ##            #'  '#       #'       #'  '#        
            ##       ##  #######   ##           ,######,      #####,   #    #        
            '#,     ,#'  ##    ##  '#,     ,#' ,#      #,     #,   #   #,  ,#        
             '#######'   ##     ##  '#######'  #'      '#     '####' # '####'        



                #########################################################
                #                        -***-                          #
                #          Department of theory and spectroscopy        #
                #                                                       #
                #                      Frank Neese                      #
                #                                                       #
                #     Directorship, Architecture, Infrastructure        #
                #                    SHARK, DRIVERS                     #
                #        Core code/Algorithms in most modules           #
                #                                                       #
                #        Max Planck Institute fuer Kohlenforschung      #
                #                Kaiser Wilhelm Platz 1                 #
                #                 D-45470 Muelheim/Ruhr                 #
                #                      Germany                          #
                #                                                       #
                #                  All rights reserved                  #
                #                        -***-                          #
                #########################################################


                         Program Version 6.0.0  -   RELEASE  -


 With contributions from (in alphabetic order):
   Daniel Aravena         : Magnetic Suceptibility
   Michael Atanasov       : Ab Initio Ligand Field Theory (pilot matlab implementation)
   Alexander A. Auer      : GIAO ZORA, VPT2 properties, NMR spectrum
   Ute Becker             : All parallelization in ORCA, NUMFREQ, NUMCALC
   Giovanni Bistoni       : ED, misc. LED, open-shell LED, HFLD
   Martin Brehm           : Molecular dynamics
   Dmytro Bykov           : pre 5.0 version of the SCF Hessian
   Marcos Casanova-Páez   : Triplet and SCS-CIS(D). UHF-(DLPNO)-IP/EA/STEOM-CCSD. UHF-CVS-IP/STEOM-CCSD
   Vijay G. Chilkuri      : MRCI spin determinant printing, contributions to CSF-ICE
   Pauline Colinet        : FMM embedding
   Dipayan Datta          : RHF DLPNO-CCSD density
   Achintya Kumar Dutta   : EOM-CC, STEOM-CC
   Nicolas Foglia         : Exact transition moments, OPA infrastructure, MCD improvements
   Dmitry Ganyushin       : Spin-Orbit,Spin-Spin,Magnetic field MRCI
   Miquel Garcia          : C-PCM and meta-GGA Hessian, CCSD/C-PCM, Gaussian charge scheme
   Tiago L. C. Gouveia    : GS-ROHF, GS-ROCIS
   Yang Guo               : DLPNO-NEVPT2, F12-NEVPT2, CIM, IAO-localization
   Andreas Hansen         : Spin unrestricted coupled pair/coupled cluster methods
   Ingolf Harden          : AUTO-CI MPn and infrastructure 
   Benjamin Helmich-Paris : MC-RPA, TRAH-(SCF,CASSCF), AVAS, COSX integrals, SCF dyn. polar.
   Lee Huntington         : MR-EOM, pCC
   Robert Izsak           : Overlap fitted RIJCOSX, COSX-SCS-MP3, EOM
   Riya Kayal             : Wick's Theorem for AUTO-CI, AUTO-CI UHF-CCSDT
   Emily Kempfer          : AUTO-CI, RHF CISDT and CCSDT
   Christian Kollmar      : KDIIS, OOCD, Brueckner-CCSD(T), CCSD density, CASPT2, CASPT2-K, improved NEVPT2
   Axel Koslowski         : Symmetry handling
   Simone Kossmann        : Meta GGA functionals, TD-DFT gradient, OOMP2, (MP2 Hessian; deprecated post 5.0)
   Lucas Lang             : DCDCAS
   Marvin Lechner         : AUTO-CI (C++ implementation), FIC-MRCC
   Spencer Leger          : CASSCF response
   Dagmar Lenk            : GEPOL surface, SMD, ORCA-2-JSON
   Dimitrios Liakos       : Extrapolation schemes; Compound Job, initial MDCI parallelization
   Dimitrios Manganas     : Further ROCIS development; embedding schemes. LFT, Crystal Embedding
   Dimitrios Pantazis     : SARC Basis sets
   Anastasios Papadopoulos: AUTO-CI, single reference methods and gradients
   Taras Petrenko         : pre 6.0 DFT Hessian and TD-DFT gradient, (ASA, deprecated), ECA, 1-Electron XAS/XES, NRVS
   Peter Pinski           : DLPNO-MP2, DLPNO-MP2 Gradient
   Christoph Reimann      : Effective Core Potentials
   Marius Retegan         : Local ZFS, SOC
   Christoph Riplinger    : Optimizer, TS searches, QM/MM, DLPNO-CCSD(T), (RO)-DLPNO pert. Triples
   Michael Roemelt        : Original ROCIS implementation
   Masaaki Saitow         : Open-shell DLPNO-CCSD energy and density
   Barbara Sandhoefer     : DKH picture change effects
   Kantharuban Sivalingam : CASSCF convergence/infrastructure, NEVPT2 and variants, FIC-MRCI
   Bernardo de Souza      : ESD, SOC TD-DFT
   Georgi Stoychev        : AutoAux, RI-MP2 NMR, DLPNO-MP2 response, X2C
   Van Anh Tran           : RI-MP2 g-tensors
   Willem Van den Heuvel  : Paramagnetic NMR
   Zikuan Wang            : NOTCH, Electric field optimization 
   Frank Wennmohs         : Technical directorship and infrastructure
   Hang Xu                : AUTO-CI-Response properties 


 We gratefully acknowledge several colleagues who have allowed us to
 interface, adapt or use parts of their codes:
   Stefan Grimme, W. Hujo, H. Kruse, P. Pracht,  : VdW corrections, initial TS optimization,
                  C. Bannwarth, S. Ehlert,         DFT functionals, gCP, sTDA/sTD-DF
                  L. Wittmann, M. Mueller
   Ed Valeev, F. Pavosevic, A. Kumar             : LibInt (2-el integral package), F12 methods
   Garnet Chan, S. Sharma, J. Yang, R. Olivares  : DMRG
   Ulf Ekstrom                                   : XCFun DFT Library
   Mihaly Kallay                                 : mrcc  (arbitrary order and MRCC methods)
   Frank Weinhold                                : gennbo (NPA and NBO analysis)
   Simon Mueller                                 : openCOSMO-RS
   Christopher J. Cramer and Donald G. Truhlar   : smd solvation model
   Lars Goerigk                                  : TD-DFT with DH, B97 family of functionals
   V. Asgeirsson, H. Jonsson                     : NEB implementation
   FAccTs GmbH                                   : IRC, NEB, NEB-TS, DLPNO-Multilevel, CI-OPT
                                                   MM, QMMM, 2- and 3-layer-ONIOM, Crystal-QMMM,
                                                   LR-CPCM, SF, NACMEs, symmetry and pop. for TD-DFT,
                                                   nearIR, NL-DFT gradient (VV10), updates on ESD,
                                                   ML-optimized integration grids, MBIS, APM,
                                                   GOAT, DOCKER, SOLVATOR, interface openCOSMO-RS
   S Lehtola, MJT Oliveira, MAL Marques          : LibXC Library
   Liviu Ungur et al                             : ANISO software


 Your calculation uses the libint2 library for the computation of 2-el integrals
 For citations please refer to: http://libint.valeyev.net

 Your ORCA version has been built with support for libXC version: 6.2.2
 For citations please refer to: https://libxc.gitlab.io

 This ORCA versions uses:
   CBLAS   interface :  Fast vector & matrix operations
   LAPACKE interface :  Fast linear algebra routines
   SCALAPACK package :  Parallel linear algebra routines
   Shared memory     :  Shared parallel matrices
   BLAS/LAPACK       :  OpenBLAS 0.3.27  USE64BITINT DYNAMIC_ARCH NO_AFFINITY Zen SINGLE_THREADED
        Core in use  :  Zen
   Copyright (c) 2011-2014, The OpenBLAS Project


NOTE: MaxCore=8000 MB was set to SCF,MP2,MDCI,CIPSI,MRCI and CIS
      => If you want to overwrite this, your respective input block should be placed after the MaxCore statement
Your calculation utilizes the atom-pairwise dispersion correction
based on EEQ partial charges (D4)


================================================================================

----- Orbital basis set information -----
Your calculation utilizes the basis: pcJ-0
   F. Jensen, Theor. Chem. Acc. 126, 371 (2010).

----- AuxJ basis set information -----
Your calculation utilizes the auxiliary basis: def2/J
   F. Weigend, Phys. Chem. Chem. Phys. 8, 1057 (2006).

================================================================================
                                        WARNINGS
                       Please study these warnings very carefully!
================================================================================

WARNING: Old DensityContainer found on disk!
         Will remove this file - 
         If you want to keep old densities, please start your calculation with a different basename. 


================================================================================
                                       INPUT FILE
================================================================================
NAME = inpJ
|  1> ! pbe0
|  2> ! D4
|  3> ! pcJ-0
|  4> ! def2/J RIJCOSX
|  5> ! DEFGRID2
|  6> ! scfconv7
|  7> ! smallprint printgap noloewdin
|  8> ! NOSOSCF
|  9> %MaxCore 8000
| 10> %output
| 11>        print[P_BondOrder_M] 1
| 12>        print[P_Mayer] 1
| 13>        print[P_basis] 2
| 14> end
| 15> %pal
| 16>     nprocs 4
| 17> end
| 18> ! CPCM(chloroform)
| 19> *xyz 0 1
| 20> C   -4.9997742600   0.2050671900  -0.3849669300
| 21> C   -6.4514193800  -0.1967748800  -0.4969859300
| 22> C   -7.3239711800   0.6902087300   0.4003577800
| 23> H   -6.5842919500  -1.2503180700  -0.2261763200
| 24> H   -6.7952576800  -0.0668815100  -1.5338565400
| 25> C   -4.7522252700   1.6403830300  -0.6458320600
| 26> C   -5.6541473800   2.5805996300   0.1229700200
| 27> C   -7.1288511000   2.1627904200   0.0351820700
| 28> H   -5.5231331500   3.6075158500  -0.2345163400
| 29> H   -5.3462880100   2.5671951900   1.1796433300
| 30> H   -7.4938031700   2.3156261000  -0.9896153600
| 31> H   -7.7370625300   2.7880812400   0.6990015000
| 32> O   -7.0406021700   0.4442871000   1.7876975900
| 33> H   -8.3785925100   0.4177004600   0.2701114700
| 34> C   -4.0521878900  -0.6860070400  -0.0074208600
| 35> C   -3.8362454600   2.0777111800  -1.5168943000
| 36> H   -3.2096672100   1.3854233800  -2.0728473700
| 37> H   -3.7008545800   3.1411542700  -1.6996033600
| 38> C   -2.6582900400  -0.3955466500   0.2376174400
| 39> H   -4.3902223200  -1.7086355800   0.1560422700
| 40> C   -1.6896506000  -1.2925530300   0.5194624900
| 41> H   -2.3803777100   0.6553854500   0.2007219800
| 42> C   -1.8677344800  -2.7877080000   0.5879410100
| 43> C   -0.8816885400  -3.5166284000  -0.3451370000
| 44> H   -2.8908236100  -3.0960146300   0.3565066800
| 45> H   -1.6597686600  -3.1062776200   1.6217664800
| 46> C    0.5709621200  -3.0667532700  -0.1382127700
| 47> H   -1.1801552000  -3.3418227100  -1.3865663700
| 48> H   -0.9586701000  -4.5976545300  -0.1759960900
| 49> C    0.7199173300  -1.5435123800  -0.2538636200
| 50> H    1.2086255900  -3.5863640200  -0.8605087200
| 51> H    0.9052614200  -3.3737300300   0.8642863100
| 52> C   -0.2664447300  -0.8991318400   0.7728413500
| 53> H    0.0125243900  -1.3487942100   1.7433880400
| 54> C    0.1492020100   0.5678897900   0.8192367800
| 55> H   -6.0800216800   0.3753542500   1.8832929400
| 56> C    1.6881690300   0.5160055700   0.6562994000
| 57> H   -0.1644273000   1.0552975100   1.7481823900
| 58> H   -0.3029217300   1.1270355500  -0.0074303100
| 59> C    2.0591727100  -0.9460231400   0.2615937000
| 60> H    2.2041220000   0.8103964000   1.5757136400
| 61> H    2.0143459900   1.2136566300  -0.1244229100
| 62> H    2.3185280200  -1.4995314100   1.1787686800
| 63> C    3.3048891200  -1.0044379100  -0.6566898100
| 64> C    0.4193365700  -1.0638785600  -1.6803628700
| 65> H    0.6349953200   0.0024491000  -1.8015669800
| 66> H   -0.6328465900  -1.2147064300  -1.9410390400
| 67> H    1.0279035600  -1.6104286600  -2.4091112600
| 68> H    3.0627356200  -0.4249980400  -1.5629138900
| 69> C    3.6797832500  -2.4235936100  -1.0809424200
| 70> C    4.4394034300  -0.2849539000   0.0325903600
| 71> C    5.5548824600  -0.8298185900   0.5198137400
| 72> H    4.2997960000   0.7891953100   0.1687514700
| 73> H    5.7330157800  -1.8997780700   0.4024598800
| 74> C    6.6238248100  -0.0651784600   1.2499824600
| 75> C    7.9992200500  -0.3318228600   0.6236564000
| 76> C    6.6177906600  -0.3558579100   2.7765725700
| 77> H    6.4035719000   1.0074371800   1.1418170200
| 78> H    7.4719944900   0.1999877000   3.1934661300
| 79> C    6.8079226600  -1.8364797200   3.1155833200
| 80> C    5.3433472600   0.1788662300   3.4322976200
| 81> H    8.2365773200  -1.4013672300   0.6199392300
| 82> H    8.7889638600   0.1891130100   1.1773861600
| 83> H    8.0220981200   0.0143387600  -0.4150567700
| 84> H    7.7178354000  -2.2505152900   2.6693487200
| 85> H    5.9554973100  -2.4306228700   2.7654909100
| 86> H    6.8792494600  -1.9701176600   4.2006674400
| 87> H    5.2020919600   1.2444515300   3.2171030600
| 88> H    5.3822924500   0.0524473600   4.5200885000
| 89> H    4.4619742500  -0.3573560400   3.0604951700
| 90> H    2.9308684700  -2.8441638900  -1.7549614700
| 91> H    3.7660111300  -3.0898953900  -0.2144310700
| 92> H    4.6401302500  -2.4267277500  -1.6076523400
| 93> *
| 94> %eprnmr
| 95>  Nuclei = all C { ssfc }
| 96>  SpinSpinRThresh 8.0
| 97> end
| 98> 
| 99>                          ****END OF INPUT****
================================================================================

                       ****************************
                       * Single Point Calculation *
                       ****************************

---------------------------------
CARTESIAN COORDINATES (ANGSTROEM)
---------------------------------
  C     -4.999774    0.205067   -0.384967
  C     -6.451419   -0.196775   -0.496986
  C     -7.323971    0.690209    0.400358
  H     -6.584292   -1.250318   -0.226176
  H     -6.795258   -0.066882   -1.533857
  C     -4.752225    1.640383   -0.645832
  C     -5.654147    2.580600    0.122970
  C     -7.128851    2.162790    0.035182
  H     -5.523133    3.607516   -0.234516
  H     -5.346288    2.567195    1.179643
  H     -7.493803    2.315626   -0.989615
  H     -7.737063    2.788081    0.699002
  O     -7.040602    0.444287    1.787698
  H     -8.378593    0.417700    0.270111
  C     -4.052188   -0.686007   -0.007421
  C     -3.836245    2.077711   -1.516894
  H     -3.209667    1.385423   -2.072847
  H     -3.700855    3.141154   -1.699603
  C     -2.658290   -0.395547    0.237617
  H     -4.390222   -1.708636    0.156042
  C     -1.689651   -1.292553    0.519462
  H     -2.380378    0.655385    0.200722
  C     -1.867734   -2.787708    0.587941
  C     -0.881689   -3.516628   -0.345137
  H     -2.890824   -3.096015    0.356507
  H     -1.659769   -3.106278    1.621766
  C      0.570962   -3.066753   -0.138213
  H     -1.180155   -3.341823   -1.386566
  H     -0.958670   -4.597655   -0.175996
  C      0.719917   -1.543512   -0.253864
  H      1.208626   -3.586364   -0.860509
  H      0.905261   -3.373730    0.864286
  C     -0.266445   -0.899132    0.772841
  H      0.012524   -1.348794    1.743388
  C      0.149202    0.567890    0.819237
  H     -6.080022    0.375354    1.883293
  C      1.688169    0.516006    0.656299
  H     -0.164427    1.055298    1.748182
  H     -0.302922    1.127036   -0.007430
  C      2.059173   -0.946023    0.261594
  H      2.204122    0.810396    1.575714
  H      2.014346    1.213657   -0.124423
  H      2.318528   -1.499531    1.178769
  C      3.304889   -1.004438   -0.656690
  C      0.419337   -1.063879   -1.680363
  H      0.634995    0.002449   -1.801567
  H     -0.632847   -1.214706   -1.941039
  H      1.027904   -1.610429   -2.409111
  H      3.062736   -0.424998   -1.562914
  C      3.679783   -2.423594   -1.080942
  C      4.439403   -0.284954    0.032590
  C      5.554882   -0.829819    0.519814
  H      4.299796    0.789195    0.168751
  H      5.733016   -1.899778    0.402460
  C      6.623825   -0.065178    1.249982
  C      7.999220   -0.331823    0.623656
  C      6.617791   -0.355858    2.776573
  H      6.403572    1.007437    1.141817
  H      7.471994    0.199988    3.193466
  C      6.807923   -1.836480    3.115583
  C      5.343347    0.178866    3.432298
  H      8.236577   -1.401367    0.619939
  H      8.788964    0.189113    1.177386
  H      8.022098    0.014339   -0.415057
  H      7.717835   -2.250515    2.669349
  H      5.955497   -2.430623    2.765491
  H      6.879249   -1.970118    4.200667
  H      5.202092    1.244452    3.217103
  H      5.382292    0.052447    4.520088
  H      4.461974   -0.357356    3.060495
  H      2.930868   -2.844164   -1.754961
  H      3.766011   -3.089895   -0.214431
  H      4.640130   -2.426728   -1.607652

----------------------------
CARTESIAN COORDINATES (A.U.)
----------------------------
  NO LB      ZA    FRAG     MASS         X           Y           Z
   0 C     6.0000    0    12.011   -9.448204    0.387521   -0.727482
   1 C     6.0000    0    12.011  -12.191416   -0.371851   -0.939167
   2 C     6.0000    0    12.011  -13.840300    1.304305    0.756567
   3 H     1.0000    0     1.008  -12.442509   -2.362759   -0.427411
   4 H     1.0000    0     1.008  -12.841176   -0.126388   -2.898569
   5 C     6.0000    0    12.011   -8.980404    3.099875   -1.220446
   6 C     6.0000    0    12.011  -10.684790    4.876627    0.232380
   7 C     6.0000    0    12.011  -13.471576    4.087082    0.066484
   8 H     1.0000    0     1.008  -10.437209    6.817217   -0.443172
   9 H     1.0000    0     1.008  -10.103020    4.851296    2.229203
  10 H     1.0000    0     1.008  -14.161236    4.375899   -1.870102
  11 H     1.0000    0     1.008  -14.620929    5.268710    1.320921
  12 O     8.0000    0    15.999  -13.304810    0.839581    3.378259
  13 H     1.0000    0     1.008  -15.833245    0.789339    0.510437
  14 C     6.0000    0    12.011   -7.657525   -1.296365   -0.014023
  15 C     6.0000    0    12.011   -7.249453    3.926305   -2.866515
  16 H     1.0000    0     1.008   -6.065392    2.618071   -3.917114
  17 H     1.0000    0     1.008   -6.993602    5.935921   -3.211785
  18 C     6.0000    0    12.011   -5.023440   -0.747475    0.449032
  19 H     1.0000    0     1.008   -8.296318   -3.228853    0.294877
  20 C     6.0000    0    12.011   -3.192977   -2.442571    0.981642
  21 H     1.0000    0     1.008   -4.498262    1.238499    0.379310
  22 C     6.0000    0    12.011   -3.529507   -5.268005    1.111047
  23 C     6.0000    0    12.011   -1.666150   -6.645465   -0.652214
  24 H     1.0000    0     1.008   -5.462865   -5.850620    0.673700
  25 H     1.0000    0     1.008   -3.136508   -5.870014    3.064695
  26 C     6.0000    0    12.011    1.078962   -5.795324   -0.261184
  27 H     1.0000    0     1.008   -2.230170   -6.315130   -2.620231
  28 H     1.0000    0     1.008   -1.811624   -8.688308   -0.332584
  29 C     6.0000    0    12.011    1.360447   -2.916816   -0.479733
  30 H     1.0000    0     1.008    2.283971   -6.777246   -1.626126
  31 H     1.0000    0     1.008    1.710696   -6.375426    1.633264
  32 C     6.0000    0    12.011   -0.503508   -1.699113    1.460458
  33 H     1.0000    0     1.008    0.023668   -2.548852    3.294526
  34 C     6.0000    0    12.011    0.281951    1.073156    1.548133
  35 H     1.0000    0     1.008  -11.489576    0.709317    3.558908
  36 C     6.0000    0    12.011    3.190177    0.975109    1.240226
  37 H     1.0000    0     1.008   -0.310723    1.994223    3.303586
  38 H     1.0000    0     1.008   -0.572439    2.129789   -0.014041
  39 C     6.0000    0    12.011    3.891272   -1.787725    0.494340
  40 H     1.0000    0     1.008    4.165187    1.531427    2.977667
  41 H     1.0000    0     1.008    3.806562    2.293479   -0.235125
  42 H     1.0000    0     1.008    4.381383   -2.833704    2.227550
  43 C     6.0000    0    12.011    6.245335   -1.898113   -1.240964
  44 C     6.0000    0    12.011    0.792431   -2.010439   -3.175426
  45 H     1.0000    0     1.008    1.199967    0.004628   -3.404468
  46 H     1.0000    0     1.008   -1.195907   -2.295462   -3.668032
  47 H     1.0000    0     1.008    1.942456   -3.043269   -4.552561
  48 H     1.0000    0     1.008    5.787732   -0.803130   -2.953479
  49 C     6.0000    0    12.011    6.953783   -4.579928   -2.042685
  50 C     6.0000    0    12.011    8.389257   -0.538485    0.061587
  51 C     6.0000    0    12.011   10.497207   -1.568130    0.982306
  52 H     1.0000    0     1.008    8.125437    1.491363    0.318894
  53 H     1.0000    0     1.008   10.833830   -3.590060    0.760539
  54 C     6.0000    0    12.011   12.517215   -0.123169    2.362125
  55 C     6.0000    0    12.011   15.116335   -0.627054    1.178540
  56 C     6.0000    0    12.011   12.505812   -0.672474    5.246962
  57 H     1.0000    0     1.008   12.100997    1.903780    2.157721
  58 H     1.0000    0     1.008   14.120023    0.377922    6.034776
  59 C     6.0000    0    12.011   12.865109   -3.470444    5.887599
  60 C     6.0000    0    12.011   10.097463    0.338008    6.486103
  61 H     1.0000    0     1.008   15.564875   -2.648200    1.171515
  62 H     1.0000    0     1.008   16.608735    0.357372    2.224937
  63 H     1.0000    0     1.008   15.159568    0.027096   -0.784344
  64 H     1.0000    0     1.008   14.584595   -4.252858    5.044338
  65 H     1.0000    0     1.008   11.254259   -4.593212    5.226020
  66 H     1.0000    0     1.008   12.999897   -3.722983    7.938111
  67 H     1.0000    0     1.008    9.830529    2.351673    6.079444
  68 H     1.0000    0     1.008   10.171059    0.099111    8.541729
  69 H     1.0000    0     1.008    8.431909   -0.675305    5.783498
  70 H     1.0000    0     1.008    5.538539   -5.374691   -3.316397
  71 H     1.0000    0     1.008    7.116730   -5.839056   -0.405216
  72 H     1.0000    0     1.008    8.768575   -4.585851   -3.038023

--------------------------------
INTERNAL COORDINATES (ANGSTROEM)
--------------------------------
 C      0   0   0     0.000000000000     0.00000000     0.00000000
 C      1   0   0     1.510396921343     0.00000000     0.00000000
 C      2   1   0     1.534050945037   110.45378427     0.00000000
 H      2   1   3     1.095876917323   110.73076058   237.87034686
 H      2   1   3     1.100089871783   109.80902391   118.72873231
 C      1   2   3     1.479683303635   113.94058470   306.08551807
 C      6   1   2     1.512787951312   114.42731737    49.74122357
 C      3   2   1     1.529680351746   110.14630950    56.82220870
 H      7   6   1     1.095225159019   110.21539345   188.87351013
 H      7   6   1     1.100688672957   108.27364864    72.22502991
 H      8   3   2     1.098525616912   108.31630289    64.44097136
 H      8   3   2     1.096159654797   109.49957201   181.43198659
 O      3   2   1     1.437180292218   110.70637088   292.76431281
 H      3   2   1     1.097019146678   109.49522127   177.26156436
 C      1   2   3     1.354427645521   121.20132294   122.80895070
 C      6   1   2     1.337544148454   123.13008694   231.63099921
 H     16   6   1     1.086713631756   121.31432598   359.06834020
 H     16   6   1     1.087485400666   120.95801762   178.44998038
 C     15   1   2     1.444770647148   126.15686576   185.28515295
 H     15   1   2     1.089383587887   116.25185706     3.12512028
 C     19  15   1     1.349933125267   126.44861719   185.14517527
 H     19  15   1     1.087683233734   115.78581113     6.00589996
 C     21  19  15     1.507279522959   125.72143233     2.20610608
 C     23  21  19     1.540858889734   111.47755220   124.99931575
 H     23  21  19     1.093309743453   112.37513735     1.36504473
 H     23  21  19     1.101604052051   107.89012780   243.54388452
 C     24  23  21     1.534730989311   112.66818793    51.23998041
 H     24  23  21     1.097367080373   108.98259625   289.11073347
 H     24  23  21     1.096882993650   109.14335320   173.16014565
 C     27  24  23     1.534869891118   111.87647342   306.16743791
 H     27  24  23     1.094678707144   108.85993519   182.62210233
 H     27  24  23     1.100452251832   109.18340293    66.18317001
 C     21  19  15     1.498164219249   122.85135456   180.57877773
 H     33  21  19     1.105432446773   106.34406067   126.72379411
 C     33  21  19     1.525472782873   121.09924204     4.25744177
 H     13   3   2     0.967783594880   107.65247164    42.68991149
 C     35  33  21     1.548437938935   103.61404150   196.96944894
 H     35  33  21     1.094929027812   112.07689831    74.96370195
 H     35  33  21     1.095645168331   110.81775041   315.32703361
 C     30  27  24     1.554443506055   116.10960083   166.09950754
 H     37  35  33     1.094621383290   111.78188076   248.87492662
 H     37  35  33     1.096647498554   110.43889964   130.29513294
 H     40  30  27     1.102200764707   106.59720541   320.49336883
 C     40  30  27     1.548698248283   118.80917576    80.72814593
 C     30  27  24     1.534697854570   111.17317493   294.12380452
 H     45  30  27     1.094647802361   111.63996375   186.60691929
 H     45  30  27     1.094436162671   111.50704687    66.60084260
 H     45  30  27     1.095511300286   110.70735240   306.49707273
 H     44  40  30     1.102556558041   106.91003816    61.50629657
 C     44  40  30     1.527919757920   113.39287266   302.24025119
 C     44  40  30     1.509929505969   108.40460490   176.36584146
 C     51  44  40     1.333625741652   126.91011232   111.81756290
 H     51  44  40     1.091708114713   115.44780080   294.08072627
 H     52  51  44     1.091016359636   119.86394757     2.43935072
 C     52  51  44     1.503482170063   124.35523894   182.75180020
 C     55  52  51     1.534632084801   110.52589938   232.22006493
 C     55  52  51     1.554029702923   112.28331393   106.58730889
 H     55  52  51     1.100325141922   107.80111513   350.01880514
 H     57  55  52     1.101103430978   105.93181307   176.46120489
 C     57  55  52     1.530790452769   113.45241433    58.22852843
 C     57  55  52     1.529742209295   111.03471960   293.36205589
 H     56  55  52     1.095571745881   111.41863376   302.79009664
 H     56  55  52     1.096214446719   110.91292723   182.40125526
 H     56  55  52     1.095114753247   110.54293868    62.26917407
 H     60  57  55     1.094756578366   112.25737683    55.27502578
 H     60  57  55     1.096448701743   110.90664966   294.20010453
 H     60  57  55     1.095606753759   110.20615239   175.27607339
 H     61  57  55     1.096236192619   111.28350851   305.45169065
 H     61  57  55     1.095804479425   110.82902813   185.05526251
 H     61  57  55     1.096626539633   110.69105614    65.26899074
 H     50  44  40     1.091812432556   111.15515693    68.44606823
 H     50  44  40     1.096464878142   111.36366641   308.06917893
 H     50  44  40     1.095307958096   110.56753715   187.96655227

---------------------------
INTERNAL COORDINATES (A.U.)
---------------------------
 C      0   0   0     0.000000000000     0.00000000     0.00000000
 C      1   0   0     2.854236534856     0.00000000     0.00000000
 C      2   1   0     2.898936161603   110.45378427     0.00000000
 H      2   1   3     2.070907250227   110.73076058   237.87034686
 H      2   1   3     2.078868580370   109.80902391   118.72873231
 C      1   2   3     2.796196208805   113.94058470   306.08551807
 C      6   1   2     2.858754926675   114.42731737    49.74122357
 C      3   2   1     2.890676937239   110.14630950    56.82220870
 H      7   6   1     2.069675605526   110.21539345   188.87351013
 H      7   6   1     2.080000150597   108.27364864    72.22502991
 H      8   3   2     2.075912567061   108.31630289    64.44097136
 H      8   3   2     2.071441546620   109.49957201   181.43198659
 O      3   2   1     2.715877157362   110.70637088   292.76431281
 H      3   2   1     2.073065750889   109.49522127   177.26156436
 C      1   2   3     2.559497318247   121.20132294   122.80895070
 C      6   1   2     2.527592132607   123.13008694   231.63099921
 H     16   6   1     2.053591150018   121.31432598   359.06834020
 H     16   6   1     2.055049581897   120.95801762   178.44998038
 C     15   1   2     2.730220849438   126.15686576   185.28515295
 H     15   1   2     2.058636635895   116.25185706     3.12512028
 C     19  15   1     2.551003905863   126.44861719   185.14517527
 H     19  15   1     2.055423432214   115.78581113     6.00589996
 C     21  19  15     2.848345505661   125.72143233     2.20610608
 C     23  21  19     2.911801312615   111.47755220   124.99931575
 H     23  21  19     2.066055994673   112.37513735     1.36504473
 H     23  21  19     2.081729966395   107.89012780   243.54388452
 C     24  23  21     2.900221259040   112.66818793    51.23998041
 H     24  23  21     2.073723250286   108.98259625   289.11073347
 H     24  23  21     2.072808458954   109.14335320   173.16014565
 C     27  24  23     2.900483745414   111.87647342   306.16743791
 H     27  24  23     2.068642961137   108.85993519   182.62210233
 H     27  24  23     2.079553379419   109.18340293    66.18317001
 C     21  19  15     2.831120078021   122.85135456   180.57877773
 H     33  21  19     2.088964583951   106.34406067   126.72379411
 C     33  21  19     2.882725784380   121.09924204     4.25744177
 H     13   3   2     1.828845951226   107.65247164    42.68991149
 C     35  33  21     2.926123639961   103.61404150   196.96944894
 H     35  33  21     2.069115998645   112.07689831    74.96370195
 H     35  33  21     2.070469308099   110.81775041   315.32703361
 C     30  27  24     2.937472517096   116.10960083   166.09950754
 H     37  35  33     2.068534634751   111.78188076   248.87492662
 H     37  35  33     2.072363437718   110.43889964   130.29513294
 H     40  30  27     2.082857589896   106.59720541   320.49336883
 C     40  30  27     2.926615553339   118.80917576    80.72814593
 C     30  27  24     2.900158643453   111.17317493   294.12380452
 H     45  30  27     2.068584559561   111.63996375   186.60691929
 H     45  30  27     2.068184618508   111.50704687    66.60084260
 H     45  30  27     2.070216334157   110.70735240   306.49707273
 H     44  40  30     2.083529941857   106.91003816    61.50629657
 C     44  40  30     2.887349897076   113.39287266   302.24025119
 C     44  40  30     2.853353247808   108.40460490   176.36584146
 C     51  44  40     2.520187416870   126.91011232   111.81756290
 H     51  44  40     2.063029354988   115.44780080   294.08072627
 H     52  51  44     2.061722127339   119.86394757     2.43935072
 C     52  51  44     2.841169548652   124.35523894   182.75180020
 C     55  52  51     2.900034356603   110.52589938   232.22006493
 C     55  52  51     2.936690542504   112.28331393   106.58730889
 H     55  52  51     2.079313176501   107.80111513   350.01880514
 H     57  55  52     2.080783929670   105.93181307   176.46120489
 C     57  55  52     2.892774724154   113.45241433    58.22852843
 C     57  55  52     2.890793831068   111.03471960   293.36205589
 H     56  55  52     2.070330559778   111.41863376   302.79009664
 H     56  55  52     2.071545088347   110.91292723   182.40125526
 H     56  55  52     2.069466968854   110.54293868    62.26917407
 H     60  57  55     2.068790116421   112.25737683    55.27502578
 H     60  57  55     2.071987766188   110.90664966   294.20010453
 H     60  57  55     2.070396715079   110.20615239   175.27607339
 H     61  57  55     2.071586182142   111.28350851   305.45169065
 H     61  57  55     2.070770362437   110.82902813   185.05526251
 H     61  57  55     2.072323831095   110.69105614    65.26899074
 H     50  44  40     2.063226487142   111.15515693    68.44606823
 H     50  44  40     2.072018335152   111.36366641   308.06917893
 H     50  44  40     2.069832073106   110.56753715   187.96655227

---------------------
BASIS SET INFORMATION
---------------------
There are 3 groups of distinct atoms

 Group   1 Type C   : 7s4p contracted to 4s3p pattern {4111/211}
 Group   2 Type H   : 5s contracted to 3s pattern {311}
 Group   3 Type O   : 7s4p contracted to 4s3p pattern {4111/211}

Atom   0C    basis set group =>   1
Atom   1C    basis set group =>   1
Atom   2C    basis set group =>   1
Atom   3H    basis set group =>   2
Atom   4H    basis set group =>   2
Atom   5C    basis set group =>   1
Atom   6C    basis set group =>   1
Atom   7C    basis set group =>   1
Atom   8H    basis set group =>   2
Atom   9H    basis set group =>   2
Atom  10H    basis set group =>   2
Atom  11H    basis set group =>   2
Atom  12O    basis set group =>   3
Atom  13H    basis set group =>   2
Atom  14C    basis set group =>   1
Atom  15C    basis set group =>   1
Atom  16H    basis set group =>   2
Atom  17H    basis set group =>   2
Atom  18C    basis set group =>   1
Atom  19H    basis set group =>   2
Atom  20C    basis set group =>   1
Atom  21H    basis set group =>   2
Atom  22C    basis set group =>   1
Atom  23C    basis set group =>   1
Atom  24H    basis set group =>   2
Atom  25H    basis set group =>   2
Atom  26C    basis set group =>   1
Atom  27H    basis set group =>   2
Atom  28H    basis set group =>   2
Atom  29C    basis set group =>   1
Atom  30H    basis set group =>   2
Atom  31H    basis set group =>   2
Atom  32C    basis set group =>   1
Atom  33H    basis set group =>   2
Atom  34C    basis set group =>   1
Atom  35H    basis set group =>   2
Atom  36C    basis set group =>   1
Atom  37H    basis set group =>   2
Atom  38H    basis set group =>   2
Atom  39C    basis set group =>   1
Atom  40H    basis set group =>   2
Atom  41H    basis set group =>   2
Atom  42H    basis set group =>   2
Atom  43C    basis set group =>   1
Atom  44C    basis set group =>   1
Atom  45H    basis set group =>   2
Atom  46H    basis set group =>   2
Atom  47H    basis set group =>   2
Atom  48H    basis set group =>   2
Atom  49C    basis set group =>   1
Atom  50C    basis set group =>   1
Atom  51C    basis set group =>   1
Atom  52H    basis set group =>   2
Atom  53H    basis set group =>   2
Atom  54C    basis set group =>   1
Atom  55C    basis set group =>   1
Atom  56C    basis set group =>   1
Atom  57H    basis set group =>   2
Atom  58H    basis set group =>   2
Atom  59C    basis set group =>   1
Atom  60C    basis set group =>   1
Atom  61H    basis set group =>   2
Atom  62H    basis set group =>   2
Atom  63H    basis set group =>   2
Atom  64H    basis set group =>   2
Atom  65H    basis set group =>   2
Atom  66H    basis set group =>   2
Atom  67H    basis set group =>   2
Atom  68H    basis set group =>   2
Atom  69H    basis set group =>   2
Atom  70H    basis set group =>   2
Atom  71H    basis set group =>   2
Atom  72H    basis set group =>   2

-------------------------
BASIS SET IN INPUT FORMAT
-------------------------

 # Basis set for element : H 
 NewGTO H 
 S 3 
   1    1357.7500000000      0.0012928364
   2      54.3100000000      0.0588280685
   3       4.3448000000      0.9761499708
 S 1 
   1       0.6604910000      1.0000000000
 S 1 
   1       0.1366870000      1.0000000000
  end;

 # Basis set for element : C 
 NewGTO C 
 S 4 
   1  139534.0000000000      0.0001655246
   2    5581.3600000000      0.0074486101
   3     446.5090000000      0.1285821065
   4      67.4620000000      0.9218029311
 S 1 
   1      15.0674000000      1.0000000000
 S 1 
   1       3.9387600000      1.0000000000
 S 1 
   1       0.2999150000      1.0000000000
 P 2 
   1      28.3900000000      0.0816325586
   2       4.3676900000      0.9660360576
 P 1 
   1       0.8698170000      1.0000000000
 P 1 
   1       0.1889340000      1.0000000000
  end;

 # Basis set for element : O 
 NewGTO O 
 S 4 
   1  253789.0000000000      0.0001641076
   2   10151.6000000000      0.0074010921
   3     812.1250000000      0.1277711901
   4     122.6930000000      0.9223372164
 S 1 
   1      27.5608000000      1.0000000000
 S 1 
   1       7.3172600000      1.0000000000
 S 1 
   1       0.5792400000      1.0000000000
 P 2 
   1      53.4157000000      0.0793786106
   2       8.2177900000      0.9670506337
 P 1 
   1       1.6754400000      1.0000000000
 P 1 
   1       0.3506720000      1.0000000000
  end;

---------------------------------
AUXILIARY/J BASIS SET INFORMATION
---------------------------------
There are 3 groups of distinct atoms

 Group   1 Type C   : 12s5p4d2f1g contracted to 6s4p3d1f1g pattern {711111/2111/211/2/1}
 Group   2 Type H   : 5s2p1d contracted to 3s1p1d pattern {311/2/1}
 Group   3 Type O   : 12s5p4d2f1g contracted to 6s4p3d1f1g pattern {711111/2111/211/2/1}

Atom   0C    basis set group =>   1
Atom   1C    basis set group =>   1
Atom   2C    basis set group =>   1
Atom   3H    basis set group =>   2
Atom   4H    basis set group =>   2
Atom   5C    basis set group =>   1
Atom   6C    basis set group =>   1
Atom   7C    basis set group =>   1
Atom   8H    basis set group =>   2
Atom   9H    basis set group =>   2
Atom  10H    basis set group =>   2
Atom  11H    basis set group =>   2
Atom  12O    basis set group =>   3
Atom  13H    basis set group =>   2
Atom  14C    basis set group =>   1
Atom  15C    basis set group =>   1
Atom  16H    basis set group =>   2
Atom  17H    basis set group =>   2
Atom  18C    basis set group =>   1
Atom  19H    basis set group =>   2
Atom  20C    basis set group =>   1
Atom  21H    basis set group =>   2
Atom  22C    basis set group =>   1
Atom  23C    basis set group =>   1
Atom  24H    basis set group =>   2
Atom  25H    basis set group =>   2
Atom  26C    basis set group =>   1
Atom  27H    basis set group =>   2
Atom  28H    basis set group =>   2
Atom  29C    basis set group =>   1
Atom  30H    basis set group =>   2
Atom  31H    basis set group =>   2
Atom  32C    basis set group =>   1
Atom  33H    basis set group =>   2
Atom  34C    basis set group =>   1
Atom  35H    basis set group =>   2
Atom  36C    basis set group =>   1
Atom  37H    basis set group =>   2
Atom  38H    basis set group =>   2
Atom  39C    basis set group =>   1
Atom  40H    basis set group =>   2
Atom  41H    basis set group =>   2
Atom  42H    basis set group =>   2
Atom  43C    basis set group =>   1
Atom  44C    basis set group =>   1
Atom  45H    basis set group =>   2
Atom  46H    basis set group =>   2
Atom  47H    basis set group =>   2
Atom  48H    basis set group =>   2
Atom  49C    basis set group =>   1
Atom  50C    basis set group =>   1
Atom  51C    basis set group =>   1
Atom  52H    basis set group =>   2
Atom  53H    basis set group =>   2
Atom  54C    basis set group =>   1
Atom  55C    basis set group =>   1
Atom  56C    basis set group =>   1
Atom  57H    basis set group =>   2
Atom  58H    basis set group =>   2
Atom  59C    basis set group =>   1
Atom  60C    basis set group =>   1
Atom  61H    basis set group =>   2
Atom  62H    basis set group =>   2
Atom  63H    basis set group =>   2
Atom  64H    basis set group =>   2
Atom  65H    basis set group =>   2
Atom  66H    basis set group =>   2
Atom  67H    basis set group =>   2
Atom  68H    basis set group =>   2
Atom  69H    basis set group =>   2
Atom  70H    basis set group =>   2
Atom  71H    basis set group =>   2
Atom  72H    basis set group =>   2

-------------------------------------
AUXILIARY/J BASIS SET IN INPUT FORMAT
-------------------------------------

 # Auxiliary/J basis set for element : H 
 NewAuxJGTO H 
 S 3 
   1      15.6752927000      0.1007184237
   2       3.6063578000      0.3404257499
   3       1.2080016000      0.6491996172
 S 1 
   1       0.4726794000      1.0000000000
 S 1 
   1       0.2018100000      1.0000000000
 P 2 
   1       2.0281365000      0.5596620919
   2       0.5358730000      0.5596620919
 D 1 
   1       2.2165124000      1.0000000000
  end;

 # Auxiliary/J basis set for element : C 
 NewAuxJGTO C 
 S 7 
   1    1861.0916331000      0.0134602335
   2     642.9939764000      0.0299160374
   3     235.1105725000      0.1008649584
   4      90.7028894000      0.2370970548
   5      36.7794552000      0.3924037254
   6      15.6046273000      0.3195862154
   7       6.8907294000      0.0530104441
 S 1 
   1       3.1478850000     -1.0000000000
 S 1 
   1       1.4777287000      1.0000000000
 S 1 
   1       0.7076466000      1.0000000000
 S 1 
   1       0.3430122000      1.0000000000
 S 1 
   1       0.1669453000      1.0000000000
 P 2 
   1      13.5472892000     -0.6769313712
   2       5.4669419000     -0.3779500978
 P 1 
   1       2.1751721000      1.0000000000
 P 1 
   1       0.8582194000      1.0000000000
 P 1 
   1       0.3376720000      1.0000000000
 D 2 
   1       5.9287253000     -0.3533329857
   2       1.9809209000     -0.7456525731
 D 1 
   1       0.8055417000     -1.0000000000
 D 1 
   1       0.3531244000     -1.0000000000
 F 2 
   1       1.6755626000      0.6311076882
   2       0.5997536000      0.4968166032
 G 1 
   1       1.0024600000     -1.0000000000
  end;

 # Auxiliary/J basis set for element : O 
 NewAuxJGTO O 
 S 7 
   1    2876.8216605000      0.0168151159
   2    1004.7443032000      0.0340137548
   3     369.7579954000      0.1194951309
   4     142.9442404000      0.2664627624
   5      57.8366425000      0.4202764046
   6      24.3864983000      0.2765077335
   7      10.6622662000      0.0057008815
 S 1 
   1       4.8070437000     -1.0000000000
 S 1 
   1       2.2210770000      1.0000000000
 S 1 
   1       1.0447795000      1.0000000000
 S 1 
   1       0.4968425000      1.0000000000
 S 1 
   1       0.2371384000      1.0000000000
 P 2 
   1      64.2613382000     -0.2731534179
   2      16.3006076000     -0.8168011598
 P 1 
   1       4.3550542000      1.0000000000
 P 1 
   1       1.2019554000      1.0000000000
 P 1 
   1       0.3354196000      1.0000000000
 D 2 
   1       9.2146611000     -0.4661230638
   2       2.8435251000     -0.6600908911
 D 1 
   1       0.9955759000     -1.0000000000
 D 1 
   1       0.3649441000     -1.0000000000
 F 2 
   1       2.6420115000      0.5931563945
   2       0.7345613000      0.5931563945
 G 1 
   1       1.3931000000     -1.0000000000
  end;


Checking for AutoStart:
The File: inpJ.gbw exists
Trying to determine its content:
     ... Fine, the file contains calculation information
     ... Fine, the calculation information was read
     ... Fine, the file contains a basis set
     ... Fine, the basis set was read
     ... Fine, the file contains a geometry
     ... Fine, the geometry was read
     ... Fine, the file contains a set of orbitals
     ... Fine, the orbitals can be read
     => possible old guess file was deleted
     => GBW file was renamed to GES file
     => GES file is set as startup file
     => Guess is set to MORead
     ... now leaving AutoStart



           ************************************************************
           *        Program running with 4 parallel MPI-processes     *
           *              working on a common directory               *
           ************************************************************
------------------------------------------------------------------------------
                             ORCA STARTUP CALCULATIONS
                           -- RI-GTO INTEGRALS CHOSEN --
------------------------------------------------------------------------------
------------------------------------------------------------------------------
                   ___                                                        
                  /   \      - P O W E R E D   B Y -                         
                 /     \                                                     
                 |  |  |   _    _      __       _____    __    __             
                 |  |  |  | |  | |    /  \     |  _  \  |  |  /  |          
                  \  \/   | |  | |   /    \    | | | |  |  | /  /          
                 / \  \   | |__| |  /  /\  \   | |_| |  |  |/  /          
                |  |  |   |  __  | /  /__\  \  |    /   |      \           
                |  |  |   | |  | | |   __   |  |    \   |  |\   \          
                \     /   | |  | | |  |  |  |  | |\  \  |  | \   \       
                 \___/    |_|  |_| |__|  |__|  |_| \__\ |__|  \__/        
                                                                              
                      - O R C A' S   B I G   F R I E N D -                    
                                      &                                       
                       - I N T E G R A L  F E E D E R -                       
                                                                              
 v1 FN, 2020, v2 2021, v3 2022-2024                                           
------------------------------------------------------------------------------


----------------------
SHARK INTEGRAL PACKAGE
----------------------

Number of atoms                             ...     73
Number of basis functions                   ...    509
Number of shells                            ...    335
Maximum angular momentum                    ...      1
Integral batch strategy                     ... SHARK/LIBINT Hybrid
RI-J (if used) integral strategy            ... SPLIT-RIJ (Revised 2003 algorithm where possible)
Printlevel                                  ...      1
Contraction scheme used                     ... SEGMENTED contraction
Prescreening option                         ... SCHWARTZ
   Thresh                                   ... 3.000e-11
   Tcut                                     ... 1.000e-12
   Tpresel                                  ... 1.000e-12 
Coulomb Range Separation                    ... NOT USED
Exchange Range Separation                   ... NOT USED
Multipole approximations                    ... NOT USED
Finite Nucleus Model                        ... NOT USED
CABS basis                                  ... NOT available
Auxiliary Coulomb fitting basis             ... AVAILABLE
   # of basis functions in Aux-J            ...   1905
   # of shells in Aux-J                     ...    655
   Maximum angular momentum in Aux-J        ...      4
Auxiliary J/K fitting basis                 ... NOT available
Auxiliary Correlation fitting basis         ... NOT available
Auxiliary 'external' fitting basis          ... NOT available

Checking pre-screening integrals            ... done (  0.0 sec) Dimension = 335
Check shell pair data                       ... done (  0.0 sec)
Shell pair information
Shell pair cut-off parameter TPreSel        ...   1.0e-12
Total number of shell pairs                 ...     56280
Shell pairs after pre-screening             ...     22085
Total number of primitive shell pairs       ...    145865
Primitive shell pairs kept                  ...     37962
          la=0 lb=0:  11110 shell pairs
          la=1 lb=0:   9090 shell pairs
          la=1 lb=1:   1885 shell pairs

Calculating one electron integrals          ... done (  0.0 sec)
Calculating RI/J V-Matrix + Cholesky decomp.... done (  0.2 sec)
Calculating Nuclear repulsion               ... done (  0.0 sec) ENN=   2797.111549800635 Eh

Diagonalization of the overlap matrix:
Smallest eigenvalue                        ... 7.566e-03
Time for diagonalization                   ...    0.027 sec
Threshold for overlap eigenvalues          ... 1.000e-07
Number of eigenvalues below threshold      ... 0
Time for construction of square roots      ...    0.015 sec
Total time needed                          ...    0.044 sec

-------------------
DFT GRID GENERATION
-------------------

General Integration Accuracy     IntAcc      ... 4.388
Radial Grid Type                 RadialGrid  ... OptM3 with GC (2021)
Angular Grid (max. ang.)         AngularGrid ... 4 (Lebedev-302)
Angular grid pruning method      GridPruning ... 4 (adaptive)
Weight generation scheme         WeightScheme... mBecke (2022)
Basis function cutoff            BFCut       ... 1.0000e-11
Integration weight cutoff        WCut        ... 1.0000e-14
Partially contracted basis set               ... off
Rotationally invariant grid construction     ... off
Angular grids for H and He will be reduced by one unit

Total number of grid points                  ...   309706
Total number of batches                      ...     4875
Average number of points per batch           ...       63
Average number of grid points per atom       ...     4243

--------------------
COSX GRID GENERATION
--------------------

GRIDX 1
-------
General Integration Accuracy     IntAcc      ... 3.816
Radial Grid Type                 RadialGrid  ... OptM3 with GC (2021)
Angular Grid (max. ang.)         AngularGrid ... 1 (Lebedev-50)
Angular grid pruning method      GridPruning ... 4 (adaptive)
Weight generation scheme         WeightScheme... mBecke (2022)
Basis function cutoff            BFCut       ... 1.0000e-11
Integration weight cutoff        WCut        ... 1.0000e-14
Partially contracted basis set               ... on
Rotationally invariant grid construction     ... off
Angular grids for H and He will be reduced by one unit

Total number of grid points                  ...    39380
Total number of batches                      ...      350
Average number of points per batch           ...      112
Average number of grid points per atom       ...      539
UseSFitting                                  ... on

GRIDX 2
-------
General Integration Accuracy     IntAcc      ... 4.020
Radial Grid Type                 RadialGrid  ... OptM3 with GC (2021)
Angular Grid (max. ang.)         AngularGrid ... 2 (Lebedev-110)
Angular grid pruning method      GridPruning ... 4 (adaptive)
Weight generation scheme         WeightScheme... mBecke (2022)
Basis function cutoff            BFCut       ... 1.0000e-11
Integration weight cutoff        WCut        ... 1.0000e-14
Partially contracted basis set               ... on
Rotationally invariant grid construction     ... off
Angular grids for H and He will be reduced by one unit

Total number of grid points                  ...    81287
Total number of batches                      ...      677
Average number of points per batch           ...      120
Average number of grid points per atom       ...     1114
UseSFitting                                  ... on

GRIDX 3
-------
General Integration Accuracy     IntAcc      ... 4.338
Radial Grid Type                 RadialGrid  ... OptM3 with GC (2021)
Angular Grid (max. ang.)         AngularGrid ... 3 (Lebedev-194)
Angular grid pruning method      GridPruning ... 4 (adaptive)
Weight generation scheme         WeightScheme... mBecke (2022)
Basis function cutoff            BFCut       ... 1.0000e-11
Integration weight cutoff        WCut        ... 1.0000e-14
Partially contracted basis set               ... on
Rotationally invariant grid construction     ... off
Angular grids for H and He will be reduced by one unit

Total number of grid points                  ...   175995
Total number of batches                      ...     1419
Average number of points per batch           ...      124
Average number of grid points per atom       ...     2411
UseSFitting                                  ... on
Initializing property integral containers    ... done (  0.0 sec)

SHARK setup successfully completed in   3.7 seconds

Maximum memory used throughout the entire STARTUP-calculation: 85.8 MB


           ************************************************************
           *        Program running with 4 parallel MPI-processes     *
           *              working on a common directory               *
           ************************************************************
-------------------------------------------------------------------------------
                                 ORCA GUESS
                   Start orbitals & Density for SCF / CASSCF
-------------------------------------------------------------------------------

------------
SCF SETTINGS
------------
Hamiltonian:
 Density Functional     Method          .... DFT(GTOs)
 Exchange Functional    Exchange        .... PBE
   PBE kappa parameter   XKappa         ....  0.804000
   PBE mue parameter    XMuePBE         ....  0.219520
 Correlation Functional Correlation     .... PBE
   PBE beta parameter  CBetaPBE         ....  0.066725
 LDA part of GGA corr.  LDAOpt          .... PW91-LDA
 Gradients option       PostSCFGGA      .... off
 Hybrid DFT is turned on
   Fraction HF Exchange ScalHFX         ....  0.250000
   Scaling of DF-GGA-X  ScalDFX         ....  0.750000
   Scaling of DF-GGA-C  ScalDFC         ....  1.000000
   Scaling of DF-LDA-C  ScalLDAC        ....  1.000000
   Perturbative correction              ....  0.000000
   NL short-range parameter             ....  6.900000
 RI-approximation to the Coulomb term is turned on
   Number of AuxJ basis functions       .... 1905
   RIJ-COSX (HFX calculated with COS-X)).... on


General Settings:
 Integral files         IntName         .... inpJ
 Hartree-Fock type      HFTyp           .... RHF
 Total Charge           Charge          ....    0
 Multiplicity           Mult            ....    1
 Number of Electrons    NEL             ....  220
 Basis Dimension        Dim             ....  509
 Nuclear Repulsion      ENuc            ....   2797.1115498006 Eh

Convergence Acceleration:
 AO-DIIS                CNVDIIS         .... on
   Start iteration      DIISMaxIt       ....    12
   Startup error        DIISStart       ....  0.200000
   # of expansion vecs  DIISMaxEq       ....     5
   Bias factor          DIISBfac        ....   1.050
   Max. coefficient     DIISMaxC        ....  10.000
 MO-DIIS                CNVKDIIS        .... off
 Trust-Rad. Augm. Hess. CNVTRAH         .... auto
   Auto Start mean grad. ratio tolernc. ....  1.125000
   Auto Start start iteration           ....     1
   Auto Start num. interpolation iter.  ....    10
   Max. Number of Micro iterations      ....    24
   Max. Number of Macro iterations      .... Maxiter - #DIIS iter
   Number of Davidson start vectors     ....     2
   Converg. threshold    (grad. norm)   ....   1.000e-04
   Grad. Scal. Fac. for Micro threshold ....   0.100
   Minimum threshold for Micro iter.    ....   1.000e-02
   NR start threshold (gradient norm)   ....   1.000e-04
   Initial trust radius                 ....   0.400
   Minimum AH scaling param. (alpha)    ....   1.000
   Maximum AH scaling param. (alpha)    .... 1000.000
   Quad. conv. algorithm                .... NR
   White noise on init. David. guess    .... on
   Maximum white noise                  ....   0.010
   Pseudo random numbers                .... off
   Inactive MOs                         .... canonical
   Orbital update algorithm             .... Taylor
   Preconditioner                       .... Diag
   Full preconditioner red. dimension   ....   250
 SOSCF                  CNVSOSCF        .... off
 Level Shifting         CNVShift        .... on
   Level shift para.    LevelShift      ....    0.2500
   Turn off err/grad.   ShiftErr        ....    0.0010
 Zerner damping         CNVZerner       .... off
 Static damping         CNVDamp         .... on
   Fraction old density DampFac         ....    0.7000
   Max. Damping (<1)    DampMax         ....    0.9800
   Min. Damping (>=0)   DampMin         ....    0.0000
   Turn off err/grad.   DampErr         ....    0.1000

SCF Procedure:
 Maximum # iterations   MaxIter         ....   125
 SCF integral mode      SCFMode         .... Direct
   Integral package                     .... SHARK and LIBINT hybrid scheme
 Reset frequency        DirectResetFreq ....    20
 Integral Threshold     Thresh          ....  3.000e-11 Eh
 Primitive CutOff       TCut            ....  1.000e-12 Eh

Convergence Tolerance:
 Convergence Check Mode ConvCheckMode   .... Total+1el-Energy
 Convergence forced     ConvForced      .... 0
 Energy Change          TolE            ....  1.000e-07 Eh
 1-El. energy change                    ....  1.000e-04 Eh
 DIIS Error             TolErr          ....  1.000e-07

---------------------
INITIAL GUESS: MOREAD
---------------------
Guess MOs are being read from file: inpJ.ges
Input Geometry matches current geometry (good)
Input basis set matches current basis set (good)
Occupation numbers will be reassigned to an Aufbau configuration
MOs were renormalized
MOs were reorthogonalized (Cholesky)
                      ------------------
                      INITIAL GUESS DONE (   0.2 sec)
                      ------------------
             **** ENERGY FILE WAS UPDATED (inpJ.en.tmp) ****
Finished Guess after   0.4 sec
Maximum memory used throughout the entire GUESS-calculation: 36.9 MB


           ************************************************************
           *        Program running with 4 parallel MPI-processes     *
           *              working on a common directory               *
           ************************************************************

-------------------------------------------------------------------------------------------
                                      ORCA LEAN-SCF
                              memory conserving SCF solver
-------------------------------------------------------------------------------------------

--------------------
CPCM SOLVATION MODEL
--------------------
CPCM parameters:
  Epsilon                                         ...       4.8030
  Refrac                                          ...       1.4459
  Rsolv                                           ...       1.3000
  Surface type                                    ... GAUSSIAN VDW
  Discretization scheme                           ... Constant charge density
    Threshold for H atoms                         ...       5.0000 (charges/Ang^2)
    Threshold for non-H atoms                     ...       5.0000 (charges/Ang^2)
  Epsilon function type                           ...         CPCM
Solvent:                                          ... CHLOROFORM
Radii:
  Scheme                                          ... Element-dependent radii
  Radius for C  used is    3.8550 Bohr (=   2.0400 Ang.)
  Radius for H  used is    2.4944 Bohr (=   1.3200 Ang.)
  Radius for O  used is    3.4469 Bohr (=   1.8240 Ang.)
Calculating surface                               ...        done! (  0.0s)
Cavity surface points                             ...         5364
Cavity Volume                                     ...    3615.6029
Cavity Surface-area                               ...    1792.4462
Calculating surface distance matrix               ...        done! (  0.2s)
Performing Cholesky decomposition & store         ...        done! (  0.9s)
Overall time for CPCM initialization              ...                 1.1s

----------------------------------------D-I-I-S--------------------------------------------
Iteration    Energy (Eh)           Delta-E    RMSDP     MaxDP     DIISErr   Damp  Time(sec)
-------------------------------------------------------------------------------------------
               ***  Starting incremental Fock matrix formation  ***
    1    -1165.5120613812237025     0.00e+00  2.81e-08  3.41e-06  3.70e-06  0.700   6.2

  HOMO= 109 E= -6.018 eV LUMO=  5.930 eV gap=  11.948 eV
    2    -1165.5120613664075790     1.48e-08  1.97e-08  1.95e-06  1.75e-06  0.700   1.9
                 **** Energy Check signals convergence ****

  HOMO= 109 E= -6.018 eV LUMO=  5.930 eV gap=  11.948 eV

               *****************************************************
               *                     SUCCESS                       *
               *           SCF CONVERGED AFTER   2 CYCLES          *
               *****************************************************

Recomputing exchange energy using gridx3       ... done (    8.371 sec)
Old exchange energy                            :    -42.067915934 Eh
New exchange energy                            :    -42.067920226 Eh
Exchange energy change after final integration :     -0.000004292 Eh
Total energy after final integration           :  -1165.512065658 Eh
             **** ENERGY FILE WAS UPDATED (inpJ.en.tmp) ****

----------------
TOTAL SCF ENERGY
----------------

Total Energy       :      -1165.51206565844450 Eh          -31715.19568 eV

Components:
Nuclear Repulsion  :       2797.11154980063520 Eh           76113.27479 eV
Electronic Energy  :      -3962.61018382987959 Eh         -107828.10498 eV
One Electron Energy:      -7135.89905111477401 Eh         -194177.68498 eV
Two Electron Energy:       3173.28886728489442 Eh           86349.58001 eV
CPCM Dielectric    :         -0.01342733716333 Eh              -0.36538 eV

Virial components:
Potential Energy   :      -2322.41061842475710 Eh          -63196.00575 eV
Kinetic Energy     :       1156.89855276631260 Eh           31480.81007 eV
Virial Ratio       :          2.00744534848932

DFT components:
N(Alpha)           :      110.000354009782 electrons
N(Beta)            :      110.000354009782 electrons
N(Total)           :      220.000708019564 electrons
E(X)               :     -125.746157074836 Eh       
E(C)               :       -7.328173161403 Eh       
E(XC)              :     -133.074330236239 Eh       

CPCM Solvation Model Properties:
Surface-charge          :         -0.03309224330490
Corrected charge        :         -0.00000000000000
Outlying charge corr.   :          0.00003859174351 Eh               0.00105 eV
Free-energy (cav+disp)  :  This term is not implemented in the current solvation scheme

---------------
SCF CONVERGENCE
---------------

  Last Energy change         ...   -1.4816e-08  Tolerance :   1.0000e-07
  Last MAX-Density change    ...    1.9453e-06  Tolerance :   1.0000e-05
  Last RMS-Density change    ...    1.9723e-08  Tolerance :   1.0000e-06
  Last DIIS Error            ...    1.7455e-06  Tolerance :   1.0000e-07


----------------
ORBITAL ENERGIES
----------------

  NO   OCC          E(Eh)            E(eV) 
   0   2.0000     -19.212589      -522.8011 
   1   2.0000     -10.300591      -280.2933 
   2   2.0000     -10.270701      -279.4800 
   3   2.0000     -10.268553      -279.4215 
   4   2.0000     -10.264186      -279.3027 
   5   2.0000     -10.257812      -279.1292 
   6   2.0000     -10.257735      -279.1272 
   7   2.0000     -10.252564      -278.9864 
   8   2.0000     -10.248823      -278.8846 
   9   2.0000     -10.248354      -278.8719 
  10   2.0000     -10.248253      -278.8691 
  11   2.0000     -10.247727      -278.8548 
  12   2.0000     -10.247589      -278.8511 
  13   2.0000     -10.246971      -278.8342 
  14   2.0000     -10.245006      -278.7808 
  15   2.0000     -10.244089      -278.7558 
  16   2.0000     -10.243164      -278.7306 
  17   2.0000     -10.241932      -278.6971 
  18   2.0000     -10.241673      -278.6901 
  19   2.0000     -10.241337      -278.6810 
  20   2.0000     -10.240397      -278.6554 
  21   2.0000     -10.236029      -278.5365 
  22   2.0000     -10.235649      -278.5262 
  23   2.0000     -10.234491      -278.4946 
  24   2.0000     -10.226305      -278.2719 
  25   2.0000     -10.224754      -278.2297 
  26   2.0000     -10.223740      -278.2021 
  27   2.0000     -10.222386      -278.1653 
  28   2.0000     -10.221650      -278.1453 
  29   2.0000      -1.043360       -28.3913 
  30   2.0000      -0.902381       -24.5550 
  31   2.0000      -0.882431       -24.0122 
  32   2.0000      -0.860086       -23.4041 
  33   2.0000      -0.846476       -23.0338 
  34   2.0000      -0.822730       -22.3876 
  35   2.0000      -0.815025       -22.1780 
  36   2.0000      -0.796177       -21.6651 
  37   2.0000      -0.795301       -21.6412 
  38   2.0000      -0.775589       -21.1048 
  39   2.0000      -0.759242       -20.6600 
  40   2.0000      -0.742645       -20.2084 
  41   2.0000      -0.734773       -19.9942 
  42   2.0000      -0.716061       -19.4850 
  43   2.0000      -0.703245       -19.1363 
  44   2.0000      -0.701878       -19.0991 
  45   2.0000      -0.696653       -18.9569 
  46   2.0000      -0.671291       -18.2667 
  47   2.0000      -0.659079       -17.9344 
  48   2.0000      -0.634647       -17.2696 
  49   2.0000      -0.622723       -16.9452 
  50   2.0000      -0.614211       -16.7135 
  51   2.0000      -0.607875       -16.5411 
  52   2.0000      -0.598053       -16.2739 
  53   2.0000      -0.579763       -15.7762 
  54   2.0000      -0.558388       -15.1945 
  55   2.0000      -0.546467       -14.8701 
  56   2.0000      -0.541044       -14.7226 
  57   2.0000      -0.529794       -14.4164 
  58   2.0000      -0.515468       -14.0266 
  59   2.0000      -0.509758       -13.8712 
  60   2.0000      -0.499501       -13.5921 
  61   2.0000      -0.488365       -13.2891 
  62   2.0000      -0.484253       -13.1772 
  63   2.0000      -0.481368       -13.0987 
  64   2.0000      -0.474621       -12.9151 
  65   2.0000      -0.466417       -12.6919 
  66   2.0000      -0.462945       -12.5974 
  67   2.0000      -0.461628       -12.5615 
  68   2.0000      -0.459705       -12.5092 
  69   2.0000      -0.458329       -12.4718 
  70   2.0000      -0.450851       -12.2683 
  71   2.0000      -0.442990       -12.0544 
  72   2.0000      -0.435709       -11.8562 
  73   2.0000      -0.432771       -11.7763 
  74   2.0000      -0.431536       -11.7427 
  75   2.0000      -0.426730       -11.6119 
  76   2.0000      -0.419982       -11.4283 
  77   2.0000      -0.413744       -11.2585 
  78   2.0000      -0.413263       -11.2455 
  79   2.0000      -0.402893       -10.9633 
  80   2.0000      -0.399524       -10.8716 
  81   2.0000      -0.398216       -10.8360 
  82   2.0000      -0.394838       -10.7441 
  83   2.0000      -0.389149       -10.5893 
  84   2.0000      -0.381543       -10.3823 
  85   2.0000      -0.379640       -10.3305 
  86   2.0000      -0.377091       -10.2612 
  87   2.0000      -0.374464       -10.1897 
  88   2.0000      -0.368369       -10.0238 
  89   2.0000      -0.363819        -9.9000 
  90   2.0000      -0.361843        -9.8463 
  91   2.0000      -0.358550        -9.7566 
  92   2.0000      -0.353282        -9.6133 
  93   2.0000      -0.346217        -9.4210 
  94   2.0000      -0.342025        -9.3070 
  95   2.0000      -0.339529        -9.2391 
  96   2.0000      -0.338275        -9.2049 
  97   2.0000      -0.334762        -9.1093 
  98   2.0000      -0.331950        -9.0328 
  99   2.0000      -0.329890        -8.9768 
 100   2.0000      -0.325971        -8.8701 
 101   2.0000      -0.322892        -8.7863 
 102   2.0000      -0.320413        -8.7189 
 103   2.0000      -0.319508        -8.6943 
 104   2.0000      -0.311656        -8.4806 
 105   2.0000      -0.301866        -8.2142 
 106   2.0000      -0.276887        -7.5345 
 107   2.0000      -0.275344        -7.4925 
 108   2.0000      -0.256280        -6.9737 
 109   2.0000      -0.221150        -6.0178 
 110   0.0000      -0.032076        -0.8728 
 111   0.0000       0.019070         0.5189 
 112   0.0000       0.027471         0.7475 
 113   0.0000       0.080085         2.1792 
 114   0.0000       0.088684         2.4132 
 115   0.0000       0.095197         2.5905 
 116   0.0000       0.101892         2.7726 
 117   0.0000       0.104894         2.8543 
 118   0.0000       0.108608         2.9554 
 119   0.0000       0.115046         3.1306 
 120   0.0000       0.117281         3.1914 
*Only the first 10 virtual orbitals were printed.

                    ********************************
                    * MULLIKEN POPULATION ANALYSIS *
                    ********************************

-----------------------
MULLIKEN ATOMIC CHARGES
-----------------------
   0 C :    0.078462
   1 C :   -0.500357
   2 C :   -0.074268
   3 H :    0.222960
   4 H :    0.219776
   5 C :    0.138799
   6 C :   -0.480083
   7 C :   -0.439968
   8 H :    0.225448
   9 H :    0.207370
  10 H :    0.208912
  11 H :    0.227898
  12 O :   -0.488141
  13 H :    0.247407
  14 C :   -0.280234
  15 C :   -0.514086
  16 H :    0.200955
  17 H :    0.196978
  18 C :   -0.260142
  19 H :    0.220091
  20 C :    0.153919
  21 H :    0.219792
  22 C :   -0.479481
  23 C :   -0.427711
  24 H :    0.211883
  25 H :    0.207316
  26 C :   -0.397140
  27 H :    0.208710
  28 H :    0.217570
  29 C :    0.000880
  30 H :    0.222774
  31 H :    0.194723
  32 C :   -0.229679
  33 H :    0.228535
  34 C :   -0.430491
  35 H :    0.341192
  36 C :   -0.427945
  37 H :    0.208897
  38 H :    0.198840
  39 C :   -0.186580
  40 H :    0.212489
  41 H :    0.205665
  42 H :    0.214442
  43 C :   -0.240682
  44 C :   -0.627949
  45 H :    0.205801
  46 H :    0.209668
  47 H :    0.201591
  48 H :    0.218883
  49 C :   -0.638253
  50 C :   -0.182421
  51 C :   -0.182513
  52 H :    0.216250
  53 H :    0.216546
  54 C :   -0.238909
  55 C :   -0.617807
  56 C :   -0.196492
  57 H :    0.224163
  58 H :    0.217742
  59 C :   -0.618863
  60 C :   -0.608226
  61 H :    0.198390
  62 H :    0.201715
  63 H :    0.203990
  64 H :    0.206161
  65 H :    0.196196
  66 H :    0.202637
  67 H :    0.197457
  68 H :    0.201298
  69 H :    0.199864
  70 H :    0.214524
  71 H :    0.191671
  72 H :    0.201193
Sum of atomic charges:   -0.0000000

--------------------------------
MULLIKEN REDUCED ORBITAL CHARGES
--------------------------------
  0 C s       :     3.354349  s :     3.354349
      pz      :     1.008613  p :     2.567189
      px      :     0.804495
      py      :     0.754082

  1 C s       :     3.377992  s :     3.377992
      pz      :     1.122401  p :     3.122365
      px      :     0.877622
      py      :     1.122343

  2 C s       :     3.312650  s :     3.312650
      pz      :     0.709574  p :     2.761618
      px      :     1.142289
      py      :     0.909756

  3 H s       :     0.777040  s :     0.777040

  4 H s       :     0.780224  s :     0.780224

  5 C s       :     3.341459  s :     3.341459
      pz      :     0.881556  p :     2.519742
      px      :     0.872528
      py      :     0.765658

  6 C s       :     3.367282  s :     3.367282
      pz      :     1.123146  p :     3.112800
      px      :     0.893468
      py      :     1.096186

  7 C s       :     3.338596  s :     3.338596
      pz      :     1.187201  p :     3.101372
      px      :     0.964051
      py      :     0.950121

  8 H s       :     0.774552  s :     0.774552

  9 H s       :     0.792630  s :     0.792630

 10 H s       :     0.791088  s :     0.791088

 11 H s       :     0.772102  s :     0.772102

 12 O s       :     3.684935  s :     3.684935
      pz      :     1.459364  p :     4.803206
      px      :     1.444164
      py      :     1.899679

 13 H s       :     0.752593  s :     0.752593

 14 C s       :     3.394191  s :     3.394191
      pz      :     0.986224  p :     2.886043
      px      :     0.822470
      py      :     1.077349

 15 C s       :     3.385142  s :     3.385142
      pz      :     0.991671  p :     3.128944
      px      :     0.993261
      py      :     1.144013

 16 H s       :     0.799045  s :     0.799045

 17 H s       :     0.803022  s :     0.803022

 18 C s       :     3.397215  s :     3.397215
      pz      :     1.022288  p :     2.862927
      px      :     0.761916
      py      :     1.078723

 19 H s       :     0.779909  s :     0.779909

 20 C s       :     3.350918  s :     3.350918
      pz      :     0.947406  p :     2.495164
      px      :     0.755760
      py      :     0.791998

 21 H s       :     0.780208  s :     0.780208

 22 C s       :     3.372606  s :     3.372606
      pz      :     1.103500  p :     3.106875
      px      :     1.116979
      py      :     0.886396

 23 C s       :     3.327499  s :     3.327499
      pz      :     1.089644  p :     3.100212
      px      :     0.892978
      py      :     1.117589

 24 H s       :     0.788117  s :     0.788117

 25 H s       :     0.792684  s :     0.792684

 26 C s       :     3.350096  s :     3.350096
      pz      :     1.177137  p :     3.047044
      px      :     0.960884
      py      :     0.909024

 27 H s       :     0.791290  s :     0.791290

 28 H s       :     0.782430  s :     0.782430

 29 C s       :     3.318122  s :     3.318122
      pz      :     0.868176  p :     2.680997
      px      :     0.906537
      py      :     0.906285

 30 H s       :     0.777226  s :     0.777226

 31 H s       :     0.805277  s :     0.805277

 32 C s       :     3.362626  s :     3.362626
      pz      :     1.072930  p :     2.867053
      px      :     0.865438
      py      :     0.928685

 33 H s       :     0.771465  s :     0.771465

 34 C s       :     3.344655  s :     3.344655
      pz      :     1.190406  p :     3.085836
      px      :     0.930113
      py      :     0.965317

 35 H s       :     0.658808  s :     0.658808

 36 C s       :     3.336003  s :     3.336003
      pz      :     1.166395  p :     3.091941
      px      :     0.948070
      py      :     0.977476

 37 H s       :     0.791103  s :     0.791103

 38 H s       :     0.801160  s :     0.801160

 39 C s       :     3.338793  s :     3.338793
      pz      :     1.056551  p :     2.847787
      px      :     0.859862
      py      :     0.931374

 40 H s       :     0.787511  s :     0.787511

 41 H s       :     0.794335  s :     0.794335

 42 H s       :     0.785558  s :     0.785558

 43 C s       :     3.349571  s :     3.349571
      pz      :     1.048792  p :     2.891111
      px      :     0.875060
      py      :     0.967259

 44 C s       :     3.365664  s :     3.365664
      pz      :     0.960665  p :     3.262285
      px      :     1.161254
      py      :     1.140366

 45 H s       :     0.794199  s :     0.794199

 46 H s       :     0.790332  s :     0.790332

 47 H s       :     0.798409  s :     0.798409

 48 H s       :     0.781117  s :     0.781117

 49 C s       :     3.351769  s :     3.351769
      pz      :     1.147897  p :     3.286484
      px      :     1.161711
      py      :     0.976877

 50 C s       :     3.343061  s :     3.343061
      pz      :     0.949803  p :     2.839360
      px      :     0.810699
      py      :     1.078858

 51 C s       :     3.346013  s :     3.346013
      pz      :     0.950952  p :     2.836500
      px      :     0.820834
      py      :     1.064714

 52 H s       :     0.783750  s :     0.783750

 53 H s       :     0.783454  s :     0.783454

 54 C s       :     3.336357  s :     3.336357
      pz      :     0.884294  p :     2.902553
      px      :     0.876496
      py      :     1.141762

 55 C s       :     3.343455  s :     3.343455
      pz      :     1.133626  p :     3.274352
      px      :     0.985181
      py      :     1.155545

 56 C s       :     3.311264  s :     3.311264
      pz      :     0.914007  p :     2.885228
      px      :     1.032021
      py      :     0.939200

 57 H s       :     0.775837  s :     0.775837

 58 H s       :     0.782258  s :     0.782258

 59 C s       :     3.344477  s :     3.344477
      pz      :     1.152537  p :     3.274386
      px      :     1.160981
      py      :     0.960868

 60 C s       :     3.340681  s :     3.340681
      pz      :     1.120611  p :     3.267545
      px      :     1.011023
      py      :     1.135911

 61 H s       :     0.801610  s :     0.801610

 62 H s       :     0.798285  s :     0.798285

 63 H s       :     0.796010  s :     0.796010

 64 H s       :     0.793839  s :     0.793839

 65 H s       :     0.803804  s :     0.803804

 66 H s       :     0.797363  s :     0.797363

 67 H s       :     0.802543  s :     0.802543

 68 H s       :     0.798702  s :     0.798702

 69 H s       :     0.800136  s :     0.800136

 70 H s       :     0.785476  s :     0.785476

 71 H s       :     0.808329  s :     0.808329

 72 H s       :     0.798807  s :     0.798807


------------------------
MULLIKEN OVERLAP CHARGES
------------------------
B(  0-C ,  1-C ) :   0.5245 B(  0-C ,  2-C ) :  -0.1801 B(  0-C ,  3-H ) :  -0.0795 
B(  0-C ,  4-H ) :  -0.0864 B(  0-C ,  5-C ) :   0.4159 B(  0-C ,  6-C ) :  -0.1415 
B(  0-C , 14-C ) :   0.9502 B(  0-C , 15-C ) :  -0.2023 B(  0-C , 18-C ) :  -0.1864 
B(  0-C , 19-H ) :  -0.0751 B(  1-C ,  2-C ) :   0.5263 B(  1-C ,  3-H ) :   0.8091 
B(  1-C ,  4-H ) :   0.7737 B(  1-C ,  5-C ) :  -0.1407 B(  1-C ,  7-C ) :  -0.1581 
B(  1-C , 12-O ) :  -0.1100 B(  1-C , 13-H ) :  -0.0574 B(  1-C , 14-C ) :  -0.1137 
B(  2-C ,  3-H ) :  -0.0591 B(  2-C ,  4-H ) :  -0.0537 B(  2-C ,  6-C ) :  -0.1580 
B(  2-C ,  7-C ) :   0.5148 B(  2-C , 10-H ) :  -0.0623 B(  2-C , 11-H ) :  -0.0697 
B(  2-C , 12-O ) :   0.6969 B(  2-C , 13-H ) :   0.8217 B(  2-C , 35-H ) :  -0.1151 
B(  5-C ,  6-C ) :   0.5299 B(  5-C ,  7-C ) :  -0.1574 B(  5-C ,  8-H ) :  -0.0730 
B(  5-C ,  9-H ) :  -0.0939 B(  5-C , 14-C ) :  -0.1993 B(  5-C , 15-C ) :   1.0620 
B(  5-C , 16-H ) :  -0.0998 B(  5-C , 17-H ) :  -0.0951 B(  6-C ,  7-C ) :   0.5526 
B(  6-C ,  8-H ) :   0.8228 B(  6-C ,  9-H ) :   0.7937 B(  6-C , 10-H ) :  -0.0741 
B(  6-C , 11-H ) :  -0.0562 B(  6-C , 15-C ) :  -0.1298 B(  7-C ,  9-H ) :  -0.0775 
B(  7-C , 10-H ) :   0.7763 B(  7-C , 11-H ) :   0.8043 B(  7-C , 12-O ) :  -0.1080 
B(  7-C , 13-H ) :  -0.0824 B( 12-O , 35-H ) :   0.6663 B( 14-C , 18-C ) :   0.6121 
B( 14-C , 19-H ) :   0.8212 B( 14-C , 20-C ) :  -0.1941 B( 14-C , 21-H ) :  -0.0737 
B( 15-C , 16-H ) :   0.8137 B( 15-C , 17-H ) :   0.8065 B( 18-C , 19-H ) :  -0.0603 
B( 18-C , 20-C ) :   0.9187 B( 18-C , 21-H ) :   0.8333 B( 18-C , 22-C ) :  -0.1508 
B( 18-C , 32-C ) :  -0.1497 B( 20-C , 21-H ) :  -0.0832 B( 20-C , 22-C ) :   0.5333 
B( 20-C , 23-C ) :  -0.1728 B( 20-C , 24-H ) :  -0.0673 B( 20-C , 25-H ) :  -0.0919 
B( 20-C , 29-C ) :  -0.1239 B( 20-C , 32-C ) :   0.5189 B( 20-C , 33-H ) :  -0.0914 
[...]
        0.0000         2.8893        0.0000
        0.0000         0.0000        2.8893

 Diagonalized JT*J matrix:
 
 J[55,60](FC)             2.889            2.889            2.889  iso=      2.889
                ---------------  ---------------  ---------------  ---------------
 J[55,60](Total)          2.889            2.889            2.889  iso=      2.889



-----------------------------------------------------------
 NUCLEUS A = C   56 NUCLEUS B = C   59 
 ( 13C  gnA =  1.405  13C  gnB =  1.405) r(AB) =     1.5308
-----------------------------------------------------------

Fermi-contact contribution to J (Hz):
       26.3181         0.0000        0.0000
        0.0000        26.3181        0.0000
        0.0000         0.0000       26.3181

Total spin-spin coupling tensor J (Hz):
       26.3181         0.0000        0.0000
        0.0000        26.3181        0.0000
        0.0000         0.0000       26.3181

 Diagonalized JT*J matrix:
 
 J[56,59](FC)            26.318           26.318           26.318  iso=     26.318
                ---------------  ---------------  ---------------  ---------------
 J[56,59](Total)         26.318           26.318           26.318  iso=     26.318



-----------------------------------------------------------
 NUCLEUS A = C   56 NUCLEUS B = C   60 
 ( 13C  gnA =  1.405  13C  gnB =  1.405) r(AB) =     1.5297
-----------------------------------------------------------

Fermi-contact contribution to J (Hz):
       27.6116         0.0000        0.0000
        0.0000        27.6116        0.0000
        0.0000         0.0000       27.6116

Total spin-spin coupling tensor J (Hz):
       27.6116         0.0000        0.0000
        0.0000        27.6116        0.0000
        0.0000         0.0000       27.6116

 Diagonalized JT*J matrix:
 
 J[56,60](FC)            27.612           27.612           27.612  iso=     27.612
                ---------------  ---------------  ---------------  ---------------
 J[56,60](Total)         27.612           27.612           27.612  iso=     27.612



-----------------------------------------------------------
 NUCLEUS A = C   59 NUCLEUS B = C   60 
 ( 13C  gnA =  1.405  13C  gnB =  1.405) r(AB) =     2.5114
-----------------------------------------------------------

Fermi-contact contribution to J (Hz):
       -0.9259         0.0000        0.0000
        0.0000        -0.9259        0.0000
        0.0000         0.0000       -0.9259

Total spin-spin coupling tensor J (Hz):
       -0.9259         0.0000        0.0000
        0.0000        -0.9259        0.0000
        0.0000         0.0000       -0.9259

 Diagonalized JT*J matrix:
 
 J[59,60](FC)            -0.926           -0.926           -0.926  iso=     -0.926
                ---------------  ---------------  ---------------  ---------------
 J[59,60](Total)         -0.926           -0.926           -0.926  iso=     -0.926



-----------------------------------------------------------------------------
                SUMMARY OF ISOTROPIC COUPLING CONSTANTS J (Hz)                
-----------------------------------------------------------------------------
                  0 C        1 C        2 C        5 C        6 C        7 C  
      0 C        0.000     33.140     -3.761     41.305     -0.884      2.282
      1 C       33.140      0.000     23.406     -1.200      1.438     -0.653
      2 C       -3.761     23.406      0.000      2.298     -2.768     25.836
      5 C       41.305     -1.200      2.298      0.000     30.326     -2.772
      6 C       -0.884      1.438     -2.768     30.326      0.000     24.808
      7 C        2.282     -0.653     25.836     -2.772     24.808      0.000
     14 C       69.377     -0.364      2.839     -3.021      2.180     -0.620
     15 C       -3.414      2.417     -0.865     64.535     -1.071      2.601
     18 C       -2.404      4.173     -1.099      3.182     -0.813      0.192
     20 C        6.815     -1.102      1.089     -1.391      0.605     -0.104
     22 C       -0.920      0.327     -0.330      0.424     -0.182      0.037
     23 C        0.821     -0.286      0.281     -0.342      0.153      0.000
     26 C       -0.093      0.039      0.000      0.048      0.000      0.000
     29 C        1.151     -0.362      0.000     -0.445      0.205      0.000
     32 C       -1.122      0.546     -0.376      0.474     -0.215      0.044
     34 C        0.021     -0.015      0.014     -0.015      0.006     -0.001
     36 C       -0.016      0.000      0.000      0.016     -0.008      0.000
     39 C       -0.073      0.000      0.000      0.031      0.000      0.000
     43 C        0.000      0.000      0.000      0.000      0.000      0.000
     44 C        0.009     -0.003      0.000     -0.002     -0.004      0.000
     49 C        0.000      0.000      0.000      0.000      0.000      0.000
     50 C        0.000      0.000      0.000      0.000      0.000      0.000
     51 C        0.000      0.000      0.000      0.000      0.000      0.000
     54 C        0.000      0.000      0.000      0.000      0.000      0.000
     55 C        0.000      0.000      0.000      0.000      0.000      0.000
     56 C        0.000      0.000      0.000      0.000      0.000      0.000
     59 C        0.000      0.000      0.000      0.000      0.000      0.000
     60 C        0.000      0.000      0.000      0.000      0.000      0.000
                 14 C       15 C       18 C       20 C       22 C       23 C  
      0 C       69.377     -3.414     -2.404      6.815     -0.920      0.821
      1 C       -0.364      2.417      4.173     -1.102      0.327     -0.286
      2 C        2.839     -0.865     -1.099      1.089     -0.330      0.281
      5 C       -3.021     64.535      3.182     -1.391      0.424     -0.342
      6 C        2.180     -1.071     -0.813      0.605     -0.182      0.153
      7 C       -0.620      2.601      0.192     -0.104      0.037      0.000
     14 C        0.000      3.105     54.150     -2.624      3.797     -0.917
     15 C        3.105      0.000     -1.144      1.012     -0.273      0.253
     18 C       54.150     -1.144      0.000     69.978     -2.150      2.359
     20 C       -2.624      1.012     69.978      0.000     32.150     -2.967
     22 C        3.797     -0.273     -2.150     32.150      0.000     24.241
     23 C       -0.917      0.253      2.359     -2.967     24.241      0.000
     26 C        0.136     -0.034     -0.352      1.027     -1.925     25.444
     29 C       -1.119      0.323      2.263     -2.413      1.053     -2.218
     32 C        4.387     -0.317     -1.296     36.875     -0.206      1.545
     34 C        0.068      0.003      2.471     -1.342      1.612     -0.267
     36 C        0.015     -0.014     -0.151      3.479      0.074      0.156
     39 C        0.260     -0.024     -0.052      2.936     -0.337      2.544
     43 C        0.009      0.016      0.277      0.209     -0.004     -0.111
     44 C        0.006      0.027     -0.056      0.693     -0.133      0.597
     49 C       -0.002      0.000     -0.009     -0.031      0.144      0.054
     50 C        0.000      0.000      0.003      0.210     -0.006      0.117
     51 C        0.000      0.000      0.000      0.070     -0.004      0.002
     54 C        0.000      0.000      0.000      0.000      0.000      0.000
     55 C        0.000      0.000      0.000      0.000      0.000      0.000
     56 C        0.000      0.000      0.000      0.000      0.000      0.000
     59 C        0.000      0.000      0.000      0.000      0.000      0.000
     60 C        0.000      0.000      0.000     -0.002      0.000      0.000
                 26 C       29 C       32 C       34 C       36 C       39 C  
      0 C       -0.093      1.151     -1.122      0.021     -0.016     -0.073
      1 C        0.039     -0.362      0.546     -0.015      0.000      0.000
      2 C        0.000      0.000     -0.376      0.014      0.000      0.000
      5 C        0.048     -0.445      0.474     -0.015      0.016      0.031
      6 C        0.000      0.205     -0.215      0.006     -0.008      0.000
      7 C        0.000      0.000      0.044     -0.001      0.000      0.000
     14 C        0.136     -1.119      4.387      0.068      0.015      0.260
     15 C       -0.034      0.323     -0.317      0.003     -0.014     -0.024
     18 C       -0.352      2.263     -1.296      2.471     -0.151     -0.052
     20 C        1.027     -2.413     36.875     -1.342      3.479      2.936
     22 C       -1.925      1.053     -0.206      1.612      0.074     -0.337
     23 C       25.444     -2.218      1.545     -0.267      0.156      2.544
     26 C        0.000     27.893     -0.927      2.280      3.016     -0.557
     29 C       27.893      0.000     23.101      0.928      0.717     28.014
     32 C       -0.927     23.101      0.000     28.018      1.224      3.441
     34 C        2.280      0.928     28.018      0.000     26.082      0.023
     36 C        3.016      0.717      1.224     26.082      0.000     26.393
     39 C       -0.557     28.014      3.441      0.023     26.393      0.000
     43 C       -0.019     -0.671      2.841      1.550     -0.034     27.658
     44 C       -0.592     27.241     -0.993      0.811      0.302     -1.254
     49 C        0.444      0.102     -0.007      0.059      3.254     -1.022
     50 C       -0.070      3.003      0.004      0.104      1.427     -2.850
     51 C       -0.018      0.177      0.158     -0.037      0.084      2.916
     54 C       -0.002      0.100     -0.034      0.016      0.004     -0.823
     55 C       -0.002      0.020      0.000     -0.004      0.003      0.737
     56 C       -0.008      0.113      0.061     -0.009      0.035      1.201
     59 C        0.000     -0.004      0.000     -0.000     -0.001     -0.003
     60 C        0.001     -0.007     -0.003      0.004      0.011     -0.062
                 43 C       44 C       49 C       50 C       51 C       54 C  
      0 C        0.000      0.009      0.000      0.000      0.000      0.000
      1 C        0.000     -0.003      0.000      0.000      0.000      0.000
      2 C        0.000      0.000      0.000      0.000      0.000      0.000
      5 C        0.000     -0.002      0.000      0.000      0.000      0.000
      6 C        0.000     -0.004      0.000      0.000      0.000      0.000
      7 C        0.000      0.000      0.000      0.000      0.000      0.000
     14 C        0.009      0.006     -0.002      0.000      0.000      0.000
     15 C        0.016      0.027      0.000      0.000      0.000      0.000
     18 C        0.277     -0.056     -0.009      0.003      0.000      0.000
     20 C        0.209      0.693     -0.031      0.210      0.070      0.000
     22 C       -0.004     -0.133      0.144     -0.006     -0.004      0.000
     23 C       -0.111      0.597      0.054      0.117      0.002      0.000
     26 C       -0.019     -0.592      0.444     -0.070     -0.018     -0.002
     29 C       -0.671     27.241      0.102      3.003      0.177      0.100
     32 C        2.841     -0.993     -0.007      0.004      0.158     -0.034
     34 C        1.550      0.811      0.059      0.104     -0.037      0.016
     36 C       -0.034      0.302      3.254      1.427      0.084      0.004
     39 C       27.658     -1.254     -1.022     -2.850      2.916     -0.823
     43 C        0.000      1.440     27.214     35.623     -1.459      3.705
     44 C        1.440      0.000     -0.057     -0.100      0.079      0.008
     49 C       27.214     -0.057      0.000     -1.964      3.242     -0.075
     50 C       35.623     -0.100     -1.964      0.000     68.839     -0.269
     51 C       -1.459      0.079      3.242     68.839      0.000     36.066
     54 C        3.705      0.008     -0.075     -0.269     36.066      0.000
     55 C       -0.512      0.004      0.037      3.614     -1.888     27.133
     56 C       -0.613     -0.007      0.049      2.974     -2.915     25.150
     59 C       -0.008      0.000      0.018     -0.034      1.690     -1.514
     60 C       -0.005      0.003      0.001     -0.127      0.553     -0.373
                 55 C       56 C       59 C       60 C  
      0 C        0.000      0.000      0.000      0.000
      1 C        0.000      0.000      0.000      0.000
      2 C        0.000      0.000      0.000      0.000
      5 C        0.000      0.000      0.000      0.000
      6 C        0.000      0.000      0.000      0.000
      7 C        0.000      0.000      0.000      0.000
     14 C        0.000      0.000      0.000      0.000
     15 C        0.000      0.000      0.000      0.000
     18 C        0.000      0.000      0.000      0.000
     20 C        0.000      0.000      0.000     -0.002
     22 C        0.000      0.000      0.000      0.000
     23 C        0.000      0.000      0.000      0.000
     26 C       -0.002     -0.008      0.000      0.001
     29 C        0.020      0.113     -0.004     -0.007
     32 C        0.000      0.061      0.000     -0.003
     34 C       -0.004     -0.009     -0.000      0.004
     36 C        0.003      0.035     -0.001      0.011
     39 C        0.737      1.201     -0.003     -0.062
     43 C       -0.512     -0.613     -0.008     -0.005
     44 C        0.004     -0.007      0.000      0.003
     49 C        0.037      0.049      0.018      0.001
     50 C        3.614      2.974     -0.034     -0.127
     51 C       -1.888     -2.915      1.690      0.553
     54 C       27.133     25.150     -1.514     -0.373
     55 C        0.000     -0.776      0.844      2.889
     56 C       -0.776      0.000     26.318     27.612
     59 C        0.844     26.318      0.000     -0.926
     60 C        2.889     27.612     -0.926      0.000

NMR spin-spin coupling calculation done in   0.2 sec 

Maximum memory used throughout the entire PROP-calculation: 34.4 MB

--------------------------------
SUGGESTED CITATIONS FOR THIS RUN
--------------------------------

Below you find a list of papers that are relevant to this ORCA run
We neither can nor want to force you to cite these papers, but we appreciate if you do
You receive ORCA, which is the product of decades of hard work by many enthusiastic individuals, for free
The only thing we kindly ask in return is that you cite our papers,
We deeply appreciate it, if you show your appreciation for ORCA by not just citing the generic ORCA reference.

Please note that relegating all ORCA citations to the supporting information does *not* help us.
SI sections are not indexed - citations you put there will not count into any citation statistics
But we need these citations in order to attract the funding resources that allow us to do what we are doing

Therefore, if you are a happy ORCA user, please consider citing a few of the papers listed below in the main body of your paper

In addition to the list printed below, the program has created the file inpJ.bibtex that contains the list in bibtex format
You can import this file easily into all common literature databanks and citation aid programs


List of essential papers. We consider these as the minimum necessary citations

  1. Neese,F.
     Software update: the ORCA program system, version 5.0
     WIRES Comput. Molec. Sci., 2022 12(1)e1606
     doi.org/10.1002/wcms.1606

List of papers to cite with high priority. The work reported in these papers was absolutely
necessary for this run to complete.
Our perspective: the developers of density functionals and basis sets usually get cited in chemistry papers
Good! But without the algorithms to do something with them, the functionals or basis sets would not do anything.
Hence, in our opinion, the algorithm design and method developments papers are equally worthy of getting cited

  1. Neese,F.
     An improvement of the resolution of the identity approximation for the formation of the Coulomb matrix
     J. Comp. Chem., 2003 24(14)1740-1747
     doi.org/10.1002/jcc.10318
  2. Neese,F.; Wennmohs,F.; Hansen,A.; Becker,U.
     Efficient, approximate and parallel Hartree-Fock and hybrid DFT calculations. A 'chain-of-spheres' algorithm for the Hartree-Fock exchange
     Chem. Phys., 2009 356(1-3)98-109
     doi.org/10.1016/j.chemphys.2008.10.036
  3. Stoychev,G.L.; Auer,A.A.; Izsak,R.; Neese,F.
     Self-Consistent Field Calculation of Nuclear Magnetic Resonance Chemical Shielding Constants Using Gauge-Including Atomic Orbitals and Approximate Two-Electron Integrals
     J. Chem. Theory Comput., 2018 14(2)619-637
     doi.org/10.1021/acs.jctc.7b01006
  4. Garcia-Rates,M.; Neese,F.
     Effect of the Solute Cavity on the Solvation Energy and its Derivatives within the Framework of the Gaussian Charge Scheme
     J. Comput. Chem., 2020 41 922-939
     doi.org/10.1002/jcc.26139
  5. Helmich-Paris,B.; de Souza,B.; Neese,F.; Izsák,R.
     An improved chain of spheres for exchange algorithm
     J. Chem. Phys., 2021 155 104109
     doi.org/doi: 10.1063/5.0058766.
  6. Neese,F.
     The SHARK Integral Generation and Digestion System
     J. Comp. Chem., 2022  1-16
     doi.org/10.1002/jcc.26942
  7. Grimme,S.; Bannwarth,C.; Dohm,S.; Hansen,A.; Pisarek,J.; Pracht,P.; Seibert,J.; Neese,F.
     Fully Automated Quantum-Chemistry-Based Computation of Spin-Spin-Coupled Nuclear Magnetic Resonance Spectra
     Angew. Chem., Int. Ed., 2017 56 14763-14769
     doi.org/10.1002/anie.201708266
  8. Caldeweyher,E.; Bannwarth,C.; Grimme,S.
     Extension of the D3 dispersion coefficient model
     J. Chem. Phys., 2017 147 034112-XXXX
     doi.org/10.1063/1.4993215
  9. Caldeweyher,E.; Ehlert,S.; Hansen,A.; Neugebauer,H.; Spicher,S.; Bannwarth,C.; Grimme,S.
     A generally applicable atomic-charge dependent London dispersion correction
     J. Chem. Phys., 2019 150 154122-XXXX
     doi.org/10.1063/1.5090222
 10. Caldeweyher,E.; Mewes,J.; Ehlert,S.; Grimme,S.
     Extension and evaluation of the D4 London-dispersion model for periodic systems
     Phys. Chem. Chem. Phys., 2020 22(16)8499-8512
     doi.org/10.1039/D0CP00502A

List of suggested additional citations. These are papers that are important in the 'surrounding' of 
of this run, or papers that preceded the highly important papers. If you like your results we are grateful for a citation.

  1. Izsak,R.; Neese,F.
     An overlap fitted chain of spheres exchange method
     J. Chem. Phys., 2011 135 144105
     doi.org/10.1063/1.3646921
  2. Izsak,R.; Hansen,A.; Neese,F.
     The resolution of identity and chain of spheres approximations for the LPNO-CCSD singles Fock term
     Molec. Phys., 2012 110 2413-2417
     doi.org/10.1080/00268976.2012.687466
  3. Neese,F.
     The ORCA program system
     WIRES Comput. Molec. Sci., 2012 2(1)73-78
     doi.org/10.1002/wcms.81
  4. Izsak,R.; Neese,F.; Klopper,W.
     Robust fitting techniques in the chain of spheres approximation to the Fock exchange: The role of the complementary space
     J. Chem. Phys., 2013 139 
     doi.org/10.1063/1.4819264
  5. Neese,F.
     Software update: the ORCA program system, version 4.0
     WIRES Comput. Molec. Sci., 2018 8(1)1-6
     doi.org/10.1002/wcms.1327
  6. Neese,F.; Wennmohs,F.; Becker,U.; Riplinger,C.
     The ORCA quantum chemistry program package
     J. Chem. Phys., 2020 152 Art. No. L224108
     doi.org/10.1063/5.0004608

Timings for individual modules:

Sum of individual times          ...      135.570 sec (=   2.260 min)
Startup calculation              ...        3.868 sec (=   0.064 min)   2.9 %
SCF iterations                   ...       19.006 sec (=   0.317 min)  14.0 %
Property integrals               ...        0.714 sec (=   0.012 min)   0.5 %
SCF Response                     ...      111.482 sec (=   1.858 min)  82.2 %
Property calculations            ...        0.500 sec (=   0.008 min)   0.4 %
                             ****ORCA TERMINATED NORMALLY****
TOTAL RUN TIME: 0 days 0 hours 2 minutes 15 seconds 817 msec
