
                                 *****************
                                 * O   R   C   A *
                                 *****************

                                            #,                                       
                                            ###                                      
                                            ####                                     
                                            #####                                    
                                            ######                                   
                                           ########,                                 
                                     ,,################,,,,,                         
                               ,,#################################,,                 
                          ,,##########################################,,             
                       ,#########################################, ''#####,          
                    ,#############################################,,   '####,        
                  ,##################################################,,,,####,       
                ,###########''''           ''''###############################       
              ,#####''   ,,,,##########,,,,          '''####'''          '####       
            ,##' ,,,,###########################,,,                        '##       
           ' ,,###''''                  '''############,,,                           
         ,,##''                                '''############,,,,        ,,,,,,###''
      ,#''                                            '''#######################'''  
     '                                                          ''''####''''         
             ,#######,   #######,   ,#######,      ##                                
            ,#'     '#,  ##    ##  ,#'     '#,    #''#        ,####,   ,####,        
            ##       ##  ##   ,#'  ##            #'  '#       #'       #'  '#        
            ##       ##  #######   ##           ,######,      #####,   #    #        
            '#,     ,#'  ##    ##  '#,     ,#' ,#      #,     #,   #   #,  ,#        
             '#######'   ##     ##  '#######'  #'      '#     '####' # '####'        



                #########################################################
                #                        -***-                          #
                #          Department of theory and spectroscopy        #
                #                                                       #
                #                      Frank Neese                      #
                #                                                       #
                #     Directorship, Architecture, Infrastructure        #
                #                    SHARK, DRIVERS                     #
                #        Core code/Algorithms in most modules           #
                #                                                       #
                #        Max Planck Institute fuer Kohlenforschung      #
                #                Kaiser Wilhelm Platz 1                 #
                #                 D-45470 Muelheim/Ruhr                 #
                #                      Germany                          #
                #                                                       #
                #                  All rights reserved                  #
                #                        -***-                          #
                #########################################################


                         Program Version 6.0.0  -   RELEASE  -


 With contributions from (in alphabetic order):
   Daniel Aravena         : Magnetic Suceptibility
   Michael Atanasov       : Ab Initio Ligand Field Theory (pilot matlab implementation)
   Alexander A. Auer      : GIAO ZORA, VPT2 properties, NMR spectrum
   Ute Becker             : All parallelization in ORCA, NUMFREQ, NUMCALC
   Giovanni Bistoni       : ED, misc. LED, open-shell LED, HFLD
   Martin Brehm           : Molecular dynamics
   Dmytro Bykov           : pre 5.0 version of the SCF Hessian
   Marcos Casanova-Páez   : Triplet and SCS-CIS(D). UHF-(DLPNO)-IP/EA/STEOM-CCSD. UHF-CVS-IP/STEOM-CCSD
   Vijay G. Chilkuri      : MRCI spin determinant printing, contributions to CSF-ICE
   Pauline Colinet        : FMM embedding
   Dipayan Datta          : RHF DLPNO-CCSD density
   Achintya Kumar Dutta   : EOM-CC, STEOM-CC
   Nicolas Foglia         : Exact transition moments, OPA infrastructure, MCD improvements
   Dmitry Ganyushin       : Spin-Orbit,Spin-Spin,Magnetic field MRCI
   Miquel Garcia          : C-PCM and meta-GGA Hessian, CCSD/C-PCM, Gaussian charge scheme
   Tiago L. C. Gouveia    : GS-ROHF, GS-ROCIS
   Yang Guo               : DLPNO-NEVPT2, F12-NEVPT2, CIM, IAO-localization
   Andreas Hansen         : Spin unrestricted coupled pair/coupled cluster methods
   Ingolf Harden          : AUTO-CI MPn and infrastructure 
   Benjamin Helmich-Paris : MC-RPA, TRAH-(SCF,CASSCF), AVAS, COSX integrals, SCF dyn. polar.
   Lee Huntington         : MR-EOM, pCC
   Robert Izsak           : Overlap fitted RIJCOSX, COSX-SCS-MP3, EOM
   Riya Kayal             : Wick's Theorem for AUTO-CI, AUTO-CI UHF-CCSDT
   Emily Kempfer          : AUTO-CI, RHF CISDT and CCSDT
   Christian Kollmar      : KDIIS, OOCD, Brueckner-CCSD(T), CCSD density, CASPT2, CASPT2-K, improved NEVPT2
   Axel Koslowski         : Symmetry handling
   Simone Kossmann        : Meta GGA functionals, TD-DFT gradient, OOMP2, (MP2 Hessian; deprecated post 5.0)
   Lucas Lang             : DCDCAS
   Marvin Lechner         : AUTO-CI (C++ implementation), FIC-MRCC
   Spencer Leger          : CASSCF response
   Dagmar Lenk            : GEPOL surface, SMD, ORCA-2-JSON
   Dimitrios Liakos       : Extrapolation schemes; Compound Job, initial MDCI parallelization
   Dimitrios Manganas     : Further ROCIS development; embedding schemes. LFT, Crystal Embedding
   Dimitrios Pantazis     : SARC Basis sets
   Anastasios Papadopoulos: AUTO-CI, single reference methods and gradients
   Taras Petrenko         : pre 6.0 DFT Hessian and TD-DFT gradient, (ASA, deprecated), ECA, 1-Electron XAS/XES, NRVS
   Peter Pinski           : DLPNO-MP2, DLPNO-MP2 Gradient
   Christoph Reimann      : Effective Core Potentials
   Marius Retegan         : Local ZFS, SOC
   Christoph Riplinger    : Optimizer, TS searches, QM/MM, DLPNO-CCSD(T), (RO)-DLPNO pert. Triples
   Michael Roemelt        : Original ROCIS implementation
   Masaaki Saitow         : Open-shell DLPNO-CCSD energy and density
   Barbara Sandhoefer     : DKH picture change effects
   Kantharuban Sivalingam : CASSCF convergence/infrastructure, NEVPT2 and variants, FIC-MRCI
   Bernardo de Souza      : ESD, SOC TD-DFT
   Georgi Stoychev        : AutoAux, RI-MP2 NMR, DLPNO-MP2 response, X2C
   Van Anh Tran           : RI-MP2 g-tensors
   Willem Van den Heuvel  : Paramagnetic NMR
   Zikuan Wang            : NOTCH, Electric field optimization 
   Frank Wennmohs         : Technical directorship and infrastructure
   Hang Xu                : AUTO-CI-Response properties 


 We gratefully acknowledge several colleagues who have allowed us to
 interface, adapt or use parts of their codes:
   Stefan Grimme, W. Hujo, H. Kruse, P. Pracht,  : VdW corrections, initial TS optimization,
                  C. Bannwarth, S. Ehlert,         DFT functionals, gCP, sTDA/sTD-DF
                  L. Wittmann, M. Mueller
   Ed Valeev, F. Pavosevic, A. Kumar             : LibInt (2-el integral package), F12 methods
   Garnet Chan, S. Sharma, J. Yang, R. Olivares  : DMRG
   Ulf Ekstrom                                   : XCFun DFT Library
   Mihaly Kallay                                 : mrcc  (arbitrary order and MRCC methods)
   Frank Weinhold                                : gennbo (NPA and NBO analysis)
   Simon Mueller                                 : openCOSMO-RS
   Christopher J. Cramer and Donald G. Truhlar   : smd solvation model
   Lars Goerigk                                  : TD-DFT with DH, B97 family of functionals
   V. Asgeirsson, H. Jonsson                     : NEB implementation
   FAccTs GmbH                                   : IRC, NEB, NEB-TS, DLPNO-Multilevel, CI-OPT
                                                   MM, QMMM, 2- and 3-layer-ONIOM, Crystal-QMMM,
                                                   LR-CPCM, SF, NACMEs, symmetry and pop. for TD-DFT,
                                                   nearIR, NL-DFT gradient (VV10), updates on ESD,
                                                   ML-optimized integration grids, MBIS, APM,
                                                   GOAT, DOCKER, SOLVATOR, interface openCOSMO-RS
   S Lehtola, MJT Oliveira, MAL Marques          : LibXC Library
   Liviu Ungur et al                             : ANISO software


 Your calculation uses the libint2 library for the computation of 2-el integrals
 For citations please refer to: http://libint.valeyev.net

 Your ORCA version has been built with support for libXC version: 6.2.2
 For citations please refer to: https://libxc.gitlab.io

 This ORCA versions uses:
   CBLAS   interface :  Fast vector & matrix operations
   LAPACKE interface :  Fast linear algebra routines
   SCALAPACK package :  Parallel linear algebra routines
   Shared memory     :  Shared parallel matrices
   BLAS/LAPACK       :  OpenBLAS 0.3.27  USE64BITINT DYNAMIC_ARCH NO_AFFINITY Zen SINGLE_THREADED
        Core in use  :  Zen
   Copyright (c) 2011-2014, The OpenBLAS Project


NOTE: MaxCore=8000 MB was set to SCF,MP2,MDCI,CIPSI,MRCI and CIS
      => If you want to overwrite this, your respective input block should be placed after the MaxCore statement
Your calculation utilizes the atom-pairwise dispersion correction
based on EEQ partial charges (D4)


================================================================================

----- Orbital basis set information -----
Your calculation utilizes the basis: def2-SVP
   F. Weigend and R. Ahlrichs, Phys. Chem. Chem. Phys. 7, 3297 (2005).

----- AuxJ basis set information -----
Your calculation utilizes the auxiliary basis: def2/J
   F. Weigend, Phys. Chem. Chem. Phys. 8, 1057 (2006).

================================================================================
                                        WARNINGS
                       Please study these warnings very carefully!
================================================================================

WARNING: Old DensityContainer found on disk!
         Will remove this file - 
         If you want to keep old densities, please start your calculation with a different basename. 


================================================================================
                                       INPUT FILE
================================================================================
NAME = inpS
|  1> ! wb97x-d4
|  2> ! def2-svp
|  3> ! def2/J RIJCOSX
|  4> ! DEFGRID2
|  5> ! scfconv7
|  6> ! smallprint printgap noloewdin
|  7> ! NOSOSCF
|  8> %MaxCore 8000
|  9> %output
| 10>        print[P_BondOrder_M] 1
| 11>        print[P_Mayer] 1
| 12>        print[P_basis] 2
| 13> end
| 14> %pal
| 15>     nprocs 4
| 16> end
| 17> ! CPCM(chloroform)
| 18> *xyz 0 1
| 19> C   -4.9997742600   0.2050671900  -0.3849669300
| 20> C   -6.4514193800  -0.1967748800  -0.4969859300
| 21> C   -7.3239711800   0.6902087300   0.4003577800
| 22> H   -6.5842919500  -1.2503180700  -0.2261763200
| 23> H   -6.7952576800  -0.0668815100  -1.5338565400
| 24> C   -4.7522252700   1.6403830300  -0.6458320600
| 25> C   -5.6541473800   2.5805996300   0.1229700200
| 26> C   -7.1288511000   2.1627904200   0.0351820700
| 27> H   -5.5231331500   3.6075158500  -0.2345163400
| 28> H   -5.3462880100   2.5671951900   1.1796433300
| 29> H   -7.4938031700   2.3156261000  -0.9896153600
| 30> H   -7.7370625300   2.7880812400   0.6990015000
| 31> O   -7.0406021700   0.4442871000   1.7876975900
| 32> H   -8.3785925100   0.4177004600   0.2701114700
| 33> C   -4.0521878900  -0.6860070400  -0.0074208600
| 34> C   -3.8362454600   2.0777111800  -1.5168943000
| 35> H   -3.2096672100   1.3854233800  -2.0728473700
| 36> H   -3.7008545800   3.1411542700  -1.6996033600
| 37> C   -2.6582900400  -0.3955466500   0.2376174400
| 38> H   -4.3902223200  -1.7086355800   0.1560422700
| 39> C   -1.6896506000  -1.2925530300   0.5194624900
| 40> H   -2.3803777100   0.6553854500   0.2007219800
| 41> C   -1.8677344800  -2.7877080000   0.5879410100
| 42> C   -0.8816885400  -3.5166284000  -0.3451370000
| 43> H   -2.8908236100  -3.0960146300   0.3565066800
| 44> H   -1.6597686600  -3.1062776200   1.6217664800
| 45> C    0.5709621200  -3.0667532700  -0.1382127700
| 46> H   -1.1801552000  -3.3418227100  -1.3865663700
| 47> H   -0.9586701000  -4.5976545300  -0.1759960900
| 48> C    0.7199173300  -1.5435123800  -0.2538636200
| 49> H    1.2086255900  -3.5863640200  -0.8605087200
| 50> H    0.9052614200  -3.3737300300   0.8642863100
| 51> C   -0.2664447300  -0.8991318400   0.7728413500
| 52> H    0.0125243900  -1.3487942100   1.7433880400
| 53> C    0.1492020100   0.5678897900   0.8192367800
| 54> H   -6.0800216800   0.3753542500   1.8832929400
| 55> C    1.6881690300   0.5160055700   0.6562994000
| 56> H   -0.1644273000   1.0552975100   1.7481823900
| 57> H   -0.3029217300   1.1270355500  -0.0074303100
| 58> C    2.0591727100  -0.9460231400   0.2615937000
| 59> H    2.2041220000   0.8103964000   1.5757136400
| 60> H    2.0143459900   1.2136566300  -0.1244229100
| 61> H    2.3185280200  -1.4995314100   1.1787686800
| 62> C    3.3048891200  -1.0044379100  -0.6566898100
| 63> C    0.4193365700  -1.0638785600  -1.6803628700
| 64> H    0.6349953200   0.0024491000  -1.8015669800
| 65> H   -0.6328465900  -1.2147064300  -1.9410390400
| 66> H    1.0279035600  -1.6104286600  -2.4091112600
| 67> H    3.0627356200  -0.4249980400  -1.5629138900
| 68> C    3.6797832500  -2.4235936100  -1.0809424200
| 69> C    4.4394034300  -0.2849539000   0.0325903600
| 70> C    5.5548824600  -0.8298185900   0.5198137400
| 71> H    4.2997960000   0.7891953100   0.1687514700
| 72> H    5.7330157800  -1.8997780700   0.4024598800
| 73> C    6.6238248100  -0.0651784600   1.2499824600
| 74> C    7.9992200500  -0.3318228600   0.6236564000
| 75> C    6.6177906600  -0.3558579100   2.7765725700
| 76> H    6.4035719000   1.0074371800   1.1418170200
| 77> H    7.4719944900   0.1999877000   3.1934661300
| 78> C    6.8079226600  -1.8364797200   3.1155833200
| 79> C    5.3433472600   0.1788662300   3.4322976200
| 80> H    8.2365773200  -1.4013672300   0.6199392300
| 81> H    8.7889638600   0.1891130100   1.1773861600
| 82> H    8.0220981200   0.0143387600  -0.4150567700
| 83> H    7.7178354000  -2.2505152900   2.6693487200
| 84> H    5.9554973100  -2.4306228700   2.7654909100
| 85> H    6.8792494600  -1.9701176600   4.2006674400
| 86> H    5.2020919600   1.2444515300   3.2171030600
| 87> H    5.3822924500   0.0524473600   4.5200885000
| 88> H    4.4619742500  -0.3573560400   3.0604951700
| 89> H    2.9308684700  -2.8441638900  -1.7549614700
| 90> H    3.7660111300  -3.0898953900  -0.2144310700
| 91> H    4.6401302500  -2.4267277500  -1.6076523400
| 92> *
| 93> %eprnmr
| 94>  Nuclei = all C { shift }
| 95>  origin giao
| 96>  giao_2el giao_2el_same_as_scf
| 97>  giao_1el giao_1el_analytic
| 98> end
| 99> 
|100>                          ****END OF INPUT****
================================================================================

                       ****************************
                       * Single Point Calculation *
                       ****************************

---------------------------------
CARTESIAN COORDINATES (ANGSTROEM)
---------------------------------
  C     -4.999774    0.205067   -0.384967
  C     -6.451419   -0.196775   -0.496986
  C     -7.323971    0.690209    0.400358
  H     -6.584292   -1.250318   -0.226176
  H     -6.795258   -0.066882   -1.533857
  C     -4.752225    1.640383   -0.645832
  C     -5.654147    2.580600    0.122970
  C     -7.128851    2.162790    0.035182
  H     -5.523133    3.607516   -0.234516
  H     -5.346288    2.567195    1.179643
  H     -7.493803    2.315626   -0.989615
  H     -7.737063    2.788081    0.699002
  O     -7.040602    0.444287    1.787698
  H     -8.378593    0.417700    0.270111
  C     -4.052188   -0.686007   -0.007421
  C     -3.836245    2.077711   -1.516894
  H     -3.209667    1.385423   -2.072847
  H     -3.700855    3.141154   -1.699603
  C     -2.658290   -0.395547    0.237617
  H     -4.390222   -1.708636    0.156042
  C     -1.689651   -1.292553    0.519462
  H     -2.380378    0.655385    0.200722
  C     -1.867734   -2.787708    0.587941
  C     -0.881689   -3.516628   -0.345137
  H     -2.890824   -3.096015    0.356507
  H     -1.659769   -3.106278    1.621766
  C      0.570962   -3.066753   -0.138213
  H     -1.180155   -3.341823   -1.386566
  H     -0.958670   -4.597655   -0.175996
  C      0.719917   -1.543512   -0.253864
  H      1.208626   -3.586364   -0.860509
  H      0.905261   -3.373730    0.864286
  C     -0.266445   -0.899132    0.772841
  H      0.012524   -1.348794    1.743388
  C      0.149202    0.567890    0.819237
  H     -6.080022    0.375354    1.883293
  C      1.688169    0.516006    0.656299
  H     -0.164427    1.055298    1.748182
  H     -0.302922    1.127036   -0.007430
  C      2.059173   -0.946023    0.261594
  H      2.204122    0.810396    1.575714
  H      2.014346    1.213657   -0.124423
  H      2.318528   -1.499531    1.178769
  C      3.304889   -1.004438   -0.656690
  C      0.419337   -1.063879   -1.680363
  H      0.634995    0.002449   -1.801567
  H     -0.632847   -1.214706   -1.941039
  H      1.027904   -1.610429   -2.409111
  H      3.062736   -0.424998   -1.562914
  C      3.679783   -2.423594   -1.080942
  C      4.439403   -0.284954    0.032590
  C      5.554882   -0.829819    0.519814
  H      4.299796    0.789195    0.168751
  H      5.733016   -1.899778    0.402460
  C      6.623825   -0.065178    1.249982
  C      7.999220   -0.331823    0.623656
  C      6.617791   -0.355858    2.776573
  H      6.403572    1.007437    1.141817
  H      7.471994    0.199988    3.193466
  C      6.807923   -1.836480    3.115583
  C      5.343347    0.178866    3.432298
  H      8.236577   -1.401367    0.619939
  H      8.788964    0.189113    1.177386
  H      8.022098    0.014339   -0.415057
  H      7.717835   -2.250515    2.669349
  H      5.955497   -2.430623    2.765491
  H      6.879249   -1.970118    4.200667
  H      5.202092    1.244452    3.217103
  H      5.382292    0.052447    4.520088
  H      4.461974   -0.357356    3.060495
  H      2.930868   -2.844164   -1.754961
  H      3.766011   -3.089895   -0.214431
  H      4.640130   -2.426728   -1.607652

----------------------------
CARTESIAN COORDINATES (A.U.)
----------------------------
  NO LB      ZA    FRAG     MASS         X           Y           Z
   0 C     6.0000    0    12.011   -9.448204    0.387521   -0.727482
   1 C     6.0000    0    12.011  -12.191416   -0.371851   -0.939167
   2 C     6.0000    0    12.011  -13.840300    1.304305    0.756567
   3 H     1.0000    0     1.008  -12.442509   -2.362759   -0.427411
   4 H     1.0000    0     1.008  -12.841176   -0.126388   -2.898569
   5 C     6.0000    0    12.011   -8.980404    3.099875   -1.220446
   6 C     6.0000    0    12.011  -10.684790    4.876627    0.232380
   7 C     6.0000    0    12.011  -13.471576    4.087082    0.066484
   8 H     1.0000    0     1.008  -10.437209    6.817217   -0.443172
   9 H     1.0000    0     1.008  -10.103020    4.851296    2.229203
  10 H     1.0000    0     1.008  -14.161236    4.375899   -1.870102
  11 H     1.0000    0     1.008  -14.620929    5.268710    1.320921
  12 O     8.0000    0    15.999  -13.304810    0.839581    3.378259
  13 H     1.0000    0     1.008  -15.833245    0.789339    0.510437
  14 C     6.0000    0    12.011   -7.657525   -1.296365   -0.014023
  15 C     6.0000    0    12.011   -7.249453    3.926305   -2.866515
  16 H     1.0000    0     1.008   -6.065392    2.618071   -3.917114
  17 H     1.0000    0     1.008   -6.993602    5.935921   -3.211785
  18 C     6.0000    0    12.011   -5.023440   -0.747475    0.449032
  19 H     1.0000    0     1.008   -8.296318   -3.228853    0.294877
  20 C     6.0000    0    12.011   -3.192977   -2.442571    0.981642
  21 H     1.0000    0     1.008   -4.498262    1.238499    0.379310
  22 C     6.0000    0    12.011   -3.529507   -5.268005    1.111047
  23 C     6.0000    0    12.011   -1.666150   -6.645465   -0.652214
  24 H     1.0000    0     1.008   -5.462865   -5.850620    0.673700
  25 H     1.0000    0     1.008   -3.136508   -5.870014    3.064695
  26 C     6.0000    0    12.011    1.078962   -5.795324   -0.261184
  27 H     1.0000    0     1.008   -2.230170   -6.315130   -2.620231
  28 H     1.0000    0     1.008   -1.811624   -8.688308   -0.332584
  29 C     6.0000    0    12.011    1.360447   -2.916816   -0.479733
  30 H     1.0000    0     1.008    2.283971   -6.777246   -1.626126
  31 H     1.0000    0     1.008    1.710696   -6.375426    1.633264
  32 C     6.0000    0    12.011   -0.503508   -1.699113    1.460458
  33 H     1.0000    0     1.008    0.023668   -2.548852    3.294526
  34 C     6.0000    0    12.011    0.281951    1.073156    1.548133
  35 H     1.0000    0     1.008  -11.489576    0.709317    3.558908
  36 C     6.0000    0    12.011    3.190177    0.975109    1.240226
  37 H     1.0000    0     1.008   -0.310723    1.994223    3.303586
  38 H     1.0000    0     1.008   -0.572439    2.129789   -0.014041
  39 C     6.0000    0    12.011    3.891272   -1.787725    0.494340
  40 H     1.0000    0     1.008    4.165187    1.531427    2.977667
  41 H     1.0000    0     1.008    3.806562    2.293479   -0.235125
  42 H     1.0000    0     1.008    4.381383   -2.833704    2.227550
  43 C     6.0000    0    12.011    6.245335   -1.898113   -1.240964
  44 C     6.0000    0    12.011    0.792431   -2.010439   -3.175426
  45 H     1.0000    0     1.008    1.199967    0.004628   -3.404468
  46 H     1.0000    0     1.008   -1.195907   -2.295462   -3.668032
  47 H     1.0000    0     1.008    1.942456   -3.043269   -4.552561
  48 H     1.0000    0     1.008    5.787732   -0.803130   -2.953479
  49 C     6.0000    0    12.011    6.953783   -4.579928   -2.042685
  50 C     6.0000    0    12.011    8.389257   -0.538485    0.061587
  51 C     6.0000    0    12.011   10.497207   -1.568130    0.982306
  52 H     1.0000    0     1.008    8.125437    1.491363    0.318894
  53 H     1.0000    0     1.008   10.833830   -3.590060    0.760539
  54 C     6.0000    0    12.011   12.517215   -0.123169    2.362125
  55 C     6.0000    0    12.011   15.116335   -0.627054    1.178540
  56 C     6.0000    0    12.011   12.505812   -0.672474    5.246962
  57 H     1.0000    0     1.008   12.100997    1.903780    2.157721
  58 H     1.0000    0     1.008   14.120023    0.377922    6.034776
  59 C     6.0000    0    12.011   12.865109   -3.470444    5.887599
  60 C     6.0000    0    12.011   10.097463    0.338008    6.486103
  61 H     1.0000    0     1.008   15.564875   -2.648200    1.171515
  62 H     1.0000    0     1.008   16.608735    0.357372    2.224937
  63 H     1.0000    0     1.008   15.159568    0.027096   -0.784344
  64 H     1.0000    0     1.008   14.584595   -4.252858    5.044338
  65 H     1.0000    0     1.008   11.254259   -4.593212    5.226020
  66 H     1.0000    0     1.008   12.999897   -3.722983    7.938111
  67 H     1.0000    0     1.008    9.830529    2.351673    6.079444
  68 H     1.0000    0     1.008   10.171059    0.099111    8.541729
  69 H     1.0000    0     1.008    8.431909   -0.675305    5.783498
  70 H     1.0000    0     1.008    5.538539   -5.374691   -3.316397
  71 H     1.0000    0     1.008    7.116730   -5.839056   -0.405216
  72 H     1.0000    0     1.008    8.768575   -4.585851   -3.038023

--------------------------------
INTERNAL COORDINATES (ANGSTROEM)
--------------------------------
 C      0   0   0     0.000000000000     0.00000000     0.00000000
 C      1   0   0     1.510396921343     0.00000000     0.00000000
 C      2   1   0     1.534050945037   110.45378427     0.00000000
 H      2   1   3     1.095876917323   110.73076058   237.87034686
 H      2   1   3     1.100089871783   109.80902391   118.72873231
 C      1   2   3     1.479683303635   113.94058470   306.08551807
 C      6   1   2     1.512787951312   114.42731737    49.74122357
 C      3   2   1     1.529680351746   110.14630950    56.82220870
 H      7   6   1     1.095225159019   110.21539345   188.87351013
 H      7   6   1     1.100688672957   108.27364864    72.22502991
 H      8   3   2     1.098525616912   108.31630289    64.44097136
 H      8   3   2     1.096159654797   109.49957201   181.43198659
 O      3   2   1     1.437180292218   110.70637088   292.76431281
 H      3   2   1     1.097019146678   109.49522127   177.26156436
 C      1   2   3     1.354427645521   121.20132294   122.80895070
 C      6   1   2     1.337544148454   123.13008694   231.63099921
 H     16   6   1     1.086713631756   121.31432598   359.06834020
 H     16   6   1     1.087485400666   120.95801762   178.44998038
 C     15   1   2     1.444770647148   126.15686576   185.28515295
 H     15   1   2     1.089383587887   116.25185706     3.12512028
 C     19  15   1     1.349933125267   126.44861719   185.14517527
 H     19  15   1     1.087683233734   115.78581113     6.00589996
 C     21  19  15     1.507279522959   125.72143233     2.20610608
 C     23  21  19     1.540858889734   111.47755220   124.99931575
 H     23  21  19     1.093309743453   112.37513735     1.36504473
 H     23  21  19     1.101604052051   107.89012780   243.54388452
 C     24  23  21     1.534730989311   112.66818793    51.23998041
 H     24  23  21     1.097367080373   108.98259625   289.11073347
 H     24  23  21     1.096882993650   109.14335320   173.16014565
 C     27  24  23     1.534869891118   111.87647342   306.16743791
 H     27  24  23     1.094678707144   108.85993519   182.62210233
 H     27  24  23     1.100452251832   109.18340293    66.18317001
 C     21  19  15     1.498164219249   122.85135456   180.57877773
 H     33  21  19     1.105432446773   106.34406067   126.72379411
 C     33  21  19     1.525472782873   121.09924204     4.25744177
 H     13   3   2     0.967783594880   107.65247164    42.68991149
 C     35  33  21     1.548437938935   103.61404150   196.96944894
 H     35  33  21     1.094929027812   112.07689831    74.96370195
 H     35  33  21     1.095645168331   110.81775041   315.32703361
 C     30  27  24     1.554443506055   116.10960083   166.09950754
 H     37  35  33     1.094621383290   111.78188076   248.87492662
 H     37  35  33     1.096647498554   110.43889964   130.29513294
 H     40  30  27     1.102200764707   106.59720541   320.49336883
 C     40  30  27     1.548698248283   118.80917576    80.72814593
 C     30  27  24     1.534697854570   111.17317493   294.12380452
 H     45  30  27     1.094647802361   111.63996375   186.60691929
 H     45  30  27     1.094436162671   111.50704687    66.60084260
 H     45  30  27     1.095511300286   110.70735240   306.49707273
 H     44  40  30     1.102556558041   106.91003816    61.50629657
 C     44  40  30     1.527919757920   113.39287266   302.24025119
 C     44  40  30     1.509929505969   108.40460490   176.36584146
 C     51  44  40     1.333625741652   126.91011232   111.81756290
 H     51  44  40     1.091708114713   115.44780080   294.08072627
 H     52  51  44     1.091016359636   119.86394757     2.43935072
 C     52  51  44     1.503482170063   124.35523894   182.75180020
 C     55  52  51     1.534632084801   110.52589938   232.22006493
 C     55  52  51     1.554029702923   112.28331393   106.58730889
 H     55  52  51     1.100325141922   107.80111513   350.01880514
 H     57  55  52     1.101103430978   105.93181307   176.46120489
 C     57  55  52     1.530790452769   113.45241433    58.22852843
 C     57  55  52     1.529742209295   111.03471960   293.36205589
 H     56  55  52     1.095571745881   111.41863376   302.79009664
 H     56  55  52     1.096214446719   110.91292723   182.40125526
 H     56  55  52     1.095114753247   110.54293868    62.26917407
 H     60  57  55     1.094756578366   112.25737683    55.27502578
 H     60  57  55     1.096448701743   110.90664966   294.20010453
 H     60  57  55     1.095606753759   110.20615239   175.27607339
 H     61  57  55     1.096236192619   111.28350851   305.45169065
 H     61  57  55     1.095804479425   110.82902813   185.05526251
 H     61  57  55     1.096626539633   110.69105614    65.26899074
 H     50  44  40     1.091812432556   111.15515693    68.44606823
 H     50  44  40     1.096464878142   111.36366641   308.06917893
 H     50  44  40     1.095307958096   110.56753715   187.96655227

---------------------------
INTERNAL COORDINATES (A.U.)
---------------------------
 C      0   0   0     0.000000000000     0.00000000     0.00000000
 C      1   0   0     2.854236534856     0.00000000     0.00000000
 C      2   1   0     2.898936161603   110.45378427     0.00000000
 H      2   1   3     2.070907250227   110.73076058   237.87034686
 H      2   1   3     2.078868580370   109.80902391   118.72873231
 C      1   2   3     2.796196208805   113.94058470   306.08551807
 C      6   1   2     2.858754926675   114.42731737    49.74122357
 C      3   2   1     2.890676937239   110.14630950    56.82220870
 H      7   6   1     2.069675605526   110.21539345   188.87351013
 H      7   6   1     2.080000150597   108.27364864    72.22502991
 H      8   3   2     2.075912567061   108.31630289    64.44097136
 H      8   3   2     2.071441546620   109.49957201   181.43198659
 O      3   2   1     2.715877157362   110.70637088   292.76431281
 H      3   2   1     2.073065750889   109.49522127   177.26156436
 C      1   2   3     2.559497318247   121.20132294   122.80895070
 C      6   1   2     2.527592132607   123.13008694   231.63099921
 H     16   6   1     2.053591150018   121.31432598   359.06834020
 H     16   6   1     2.055049581897   120.95801762   178.44998038
 C     15   1   2     2.730220849438   126.15686576   185.28515295
 H     15   1   2     2.058636635895   116.25185706     3.12512028
 C     19  15   1     2.551003905863   126.44861719   185.14517527
 H     19  15   1     2.055423432214   115.78581113     6.00589996
 C     21  19  15     2.848345505661   125.72143233     2.20610608
 C     23  21  19     2.911801312615   111.47755220   124.99931575
 H     23  21  19     2.066055994673   112.37513735     1.36504473
 H     23  21  19     2.081729966395   107.89012780   243.54388452
 C     24  23  21     2.900221259040   112.66818793    51.23998041
 H     24  23  21     2.073723250286   108.98259625   289.11073347
 H     24  23  21     2.072808458954   109.14335320   173.16014565
 C     27  24  23     2.900483745414   111.87647342   306.16743791
 H     27  24  23     2.068642961137   108.85993519   182.62210233
 H     27  24  23     2.079553379419   109.18340293    66.18317001
 C     21  19  15     2.831120078021   122.85135456   180.57877773
 H     33  21  19     2.088964583951   106.34406067   126.72379411
 C     33  21  19     2.882725784380   121.09924204     4.25744177
 H     13   3   2     1.828845951226   107.65247164    42.68991149
 C     35  33  21     2.926123639961   103.61404150   196.96944894
 H     35  33  21     2.069115998645   112.07689831    74.96370195
 H     35  33  21     2.070469308099   110.81775041   315.32703361
 C     30  27  24     2.937472517096   116.10960083   166.09950754
 H     37  35  33     2.068534634751   111.78188076   248.87492662
 H     37  35  33     2.072363437718   110.43889964   130.29513294
 H     40  30  27     2.082857589896   106.59720541   320.49336883
 C     40  30  27     2.926615553339   118.80917576    80.72814593
 C     30  27  24     2.900158643453   111.17317493   294.12380452
 H     45  30  27     2.068584559561   111.63996375   186.60691929
 H     45  30  27     2.068184618508   111.50704687    66.60084260
 H     45  30  27     2.070216334157   110.70735240   306.49707273
 H     44  40  30     2.083529941857   106.91003816    61.50629657
 C     44  40  30     2.887349897076   113.39287266   302.24025119
 C     44  40  30     2.853353247808   108.40460490   176.36584146
 C     51  44  40     2.520187416870   126.91011232   111.81756290
 H     51  44  40     2.063029354988   115.44780080   294.08072627
 H     52  51  44     2.061722127339   119.86394757     2.43935072
 C     52  51  44     2.841169548652   124.35523894   182.75180020
 C     55  52  51     2.900034356603   110.52589938   232.22006493
 C     55  52  51     2.936690542504   112.28331393   106.58730889
 H     55  52  51     2.079313176501   107.80111513   350.01880514
 H     57  55  52     2.080783929670   105.93181307   176.46120489
 C     57  55  52     2.892774724154   113.45241433    58.22852843
 C     57  55  52     2.890793831068   111.03471960   293.36205589
 H     56  55  52     2.070330559778   111.41863376   302.79009664
 H     56  55  52     2.071545088347   110.91292723   182.40125526
 H     56  55  52     2.069466968854   110.54293868    62.26917407
 H     60  57  55     2.068790116421   112.25737683    55.27502578
 H     60  57  55     2.071987766188   110.90664966   294.20010453
 H     60  57  55     2.070396715079   110.20615239   175.27607339
 H     61  57  55     2.071586182142   111.28350851   305.45169065
 H     61  57  55     2.070770362437   110.82902813   185.05526251
 H     61  57  55     2.072323831095   110.69105614    65.26899074
 H     50  44  40     2.063226487142   111.15515693    68.44606823
 H     50  44  40     2.072018335152   111.36366641   308.06917893
 H     50  44  40     2.069832073106   110.56753715   187.96655227

---------------------
BASIS SET INFORMATION
---------------------
There are 3 groups of distinct atoms

 Group   1 Type C   : 7s4p1d contracted to 3s2p1d pattern {511/31/1}
 Group   2 Type H   : 4s1p contracted to 2s1p pattern {31/1}
 Group   3 Type O   : 7s4p1d contracted to 3s2p1d pattern {511/31/1}

Atom   0C    basis set group =>   1
Atom   1C    basis set group =>   1
Atom   2C    basis set group =>   1
Atom   3H    basis set group =>   2
Atom   4H    basis set group =>   2
Atom   5C    basis set group =>   1
Atom   6C    basis set group =>   1
Atom   7C    basis set group =>   1
Atom   8H    basis set group =>   2
Atom   9H    basis set group =>   2
Atom  10H    basis set group =>   2
Atom  11H    basis set group =>   2
Atom  12O    basis set group =>   3
Atom  13H    basis set group =>   2
Atom  14C    basis set group =>   1
Atom  15C    basis set group =>   1
Atom  16H    basis set group =>   2
Atom  17H    basis set group =>   2
Atom  18C    basis set group =>   1
Atom  19H    basis set group =>   2
Atom  20C    basis set group =>   1
Atom  21H    basis set group =>   2
Atom  22C    basis set group =>   1
Atom  23C    basis set group =>   1
Atom  24H    basis set group =>   2
Atom  25H    basis set group =>   2
Atom  26C    basis set group =>   1
Atom  27H    basis set group =>   2
Atom  28H    basis set group =>   2
Atom  29C    basis set group =>   1
Atom  30H    basis set group =>   2
Atom  31H    basis set group =>   2
Atom  32C    basis set group =>   1
Atom  33H    basis set group =>   2
Atom  34C    basis set group =>   1
Atom  35H    basis set group =>   2
Atom  36C    basis set group =>   1
Atom  37H    basis set group =>   2
Atom  38H    basis set group =>   2
Atom  39C    basis set group =>   1
Atom  40H    basis set group =>   2
Atom  41H    basis set group =>   2
Atom  42H    basis set group =>   2
Atom  43C    basis set group =>   1
Atom  44C    basis set group =>   1
Atom  45H    basis set group =>   2
Atom  46H    basis set group =>   2
Atom  47H    basis set group =>   2
Atom  48H    basis set group =>   2
Atom  49C    basis set group =>   1
Atom  50C    basis set group =>   1
Atom  51C    basis set group =>   1
Atom  52H    basis set group =>   2
Atom  53H    basis set group =>   2
Atom  54C    basis set group =>   1
Atom  55C    basis set group =>   1
Atom  56C    basis set group =>   1
Atom  57H    basis set group =>   2
Atom  58H    basis set group =>   2
Atom  59C    basis set group =>   1
Atom  60C    basis set group =>   1
Atom  61H    basis set group =>   2
Atom  62H    basis set group =>   2
Atom  63H    basis set group =>   2
Atom  64H    basis set group =>   2
Atom  65H    basis set group =>   2
Atom  66H    basis set group =>   2
Atom  67H    basis set group =>   2
Atom  68H    basis set group =>   2
Atom  69H    basis set group =>   2
Atom  70H    basis set group =>   2
Atom  71H    basis set group =>   2
Atom  72H    basis set group =>   2

-------------------------
BASIS SET IN INPUT FORMAT
-------------------------

 # Basis set for element : H 
 NewGTO H 
 S 3 
   1      13.0107010000      0.0334854848
   2       1.9622572000      0.2347218709
   3       0.4445379600      0.8137702853
 S 1 
   1       0.1219496200      1.0000000000
 P 1 
   1       0.8000000000      1.0000000000
  end;

 # Basis set for element : C 
 NewGTO C 
 S 5 
   1    1238.4016938000      0.0055173650
   2     186.2900499200      0.0410888285
   3      42.2511763460      0.1822538213
   4      11.6765579320      0.4682845944
   5       3.5930506482      0.4457581734
 S 1 
   1       0.4024514736      1.0000000000
 S 1 
   1       0.1309018267      1.0000000000
 P 3 
   1       9.4680970621      0.0568883320
   2       2.0103545142      0.3129405934
   3       0.5477100471      0.7606501651
 P 1 
   1       0.1526861379      1.0000000000
 D 1 
   1       0.8000000000      1.0000000000
  end;

 # Basis set for element : O 
 NewGTO O 
 S 5 
   1    2266.1767785000     -0.0053893504
   2     340.8701019100     -0.0402347214
   3      77.3631351670     -0.1800818421
   4      21.4796449400     -0.4682885766
   5       6.6589433124     -0.4469261716
 S 1 
   1       0.8097597567      1.0000000000
 S 1 
   1       0.2553077223      1.0000000000
 P 3 
   1      17.7215043170      0.0626302488
   2       3.8635505440      0.3333113849
   3       1.0480920883      0.7414863830
 P 1 
   1       0.2764154441      1.0000000000
 D 1 
   1       1.2000000000      1.0000000000
  end;

---------------------------------
AUXILIARY/J BASIS SET INFORMATION
---------------------------------
There are 3 groups of distinct atoms

 Group   1 Type C   : 12s5p4d2f1g contracted to 6s4p3d1f1g pattern {711111/2111/211/2/1}
 Group   2 Type H   : 5s2p1d contracted to 3s1p1d pattern {311/2/1}
 Group   3 Type O   : 12s5p4d2f1g contracted to 6s4p3d1f1g pattern {711111/2111/211/2/1}

Atom   0C    basis set group =>   1
Atom   1C    basis set group =>   1
Atom   2C    basis set group =>   1
Atom   3H    basis set group =>   2
Atom   4H    basis set group =>   2
Atom   5C    basis set group =>   1
Atom   6C    basis set group =>   1
Atom   7C    basis set group =>   1
Atom   8H    basis set group =>   2
Atom   9H    basis set group =>   2
Atom  10H    basis set group =>   2
Atom  11H    basis set group =>   2
Atom  12O    basis set group =>   3
Atom  13H    basis set group =>   2
Atom  14C    basis set group =>   1
Atom  15C    basis set group =>   1
Atom  16H    basis set group =>   2
Atom  17H    basis set group =>   2
Atom  18C    basis set group =>   1
Atom  19H    basis set group =>   2
Atom  20C    basis set group =>   1
Atom  21H    basis set group =>   2
Atom  22C    basis set group =>   1
Atom  23C    basis set group =>   1
Atom  24H    basis set group =>   2
Atom  25H    basis set group =>   2
Atom  26C    basis set group =>   1
Atom  27H    basis set group =>   2
Atom  28H    basis set group =>   2
Atom  29C    basis set group =>   1
Atom  30H    basis set group =>   2
Atom  31H    basis set group =>   2
Atom  32C    basis set group =>   1
Atom  33H    basis set group =>   2
Atom  34C    basis set group =>   1
Atom  35H    basis set group =>   2
Atom  36C    basis set group =>   1
Atom  37H    basis set group =>   2
Atom  38H    basis set group =>   2
Atom  39C    basis set group =>   1
Atom  40H    basis set group =>   2
Atom  41H    basis set group =>   2
Atom  42H    basis set group =>   2
Atom  43C    basis set group =>   1
Atom  44C    basis set group =>   1
Atom  45H    basis set group =>   2
Atom  46H    basis set group =>   2
Atom  47H    basis set group =>   2
Atom  48H    basis set group =>   2
Atom  49C    basis set group =>   1
Atom  50C    basis set group =>   1
Atom  51C    basis set group =>   1
Atom  52H    basis set group =>   2
Atom  53H    basis set group =>   2
Atom  54C    basis set group =>   1
Atom  55C    basis set group =>   1
Atom  56C    basis set group =>   1
Atom  57H    basis set group =>   2
Atom  58H    basis set group =>   2
Atom  59C    basis set group =>   1
Atom  60C    basis set group =>   1
Atom  61H    basis set group =>   2
Atom  62H    basis set group =>   2
Atom  63H    basis set group =>   2
Atom  64H    basis set group =>   2
Atom  65H    basis set group =>   2
Atom  66H    basis set group =>   2
Atom  67H    basis set group =>   2
Atom  68H    basis set group =>   2
Atom  69H    basis set group =>   2
Atom  70H    basis set group =>   2
Atom  71H    basis set group =>   2
Atom  72H    basis set group =>   2

-------------------------------------
AUXILIARY/J BASIS SET IN INPUT FORMAT
-------------------------------------

 # Auxiliary/J basis set for element : H 
 NewAuxJGTO H 
 S 3 
   1      15.6752927000      0.1007184237
   2       3.6063578000      0.3404257499
   3       1.2080016000      0.6491996172
 S 1 
   1       0.4726794000      1.0000000000
 S 1 
   1       0.2018100000      1.0000000000
 P 2 
   1       2.0281365000      0.5596620919
   2       0.5358730000      0.5596620919
 D 1 
   1       2.2165124000      1.0000000000
  end;

 # Auxiliary/J basis set for element : C 
 NewAuxJGTO C 
 S 7 
   1    1861.0916331000      0.0134602335
   2     642.9939764000      0.0299160374
   3     235.1105725000      0.1008649584
   4      90.7028894000      0.2370970548
   5      36.7794552000      0.3924037254
   6      15.6046273000      0.3195862154
   7       6.8907294000      0.0530104441
 S 1 
   1       3.1478850000     -1.0000000000
 S 1 
   1       1.4777287000      1.0000000000
 S 1 
   1       0.7076466000      1.0000000000
 S 1 
   1       0.3430122000      1.0000000000
 S 1 
   1       0.1669453000      1.0000000000
 P 2 
   1      13.5472892000     -0.6769313712
   2       5.4669419000     -0.3779500978
 P 1 
   1       2.1751721000      1.0000000000
 P 1 
   1       0.8582194000      1.0000000000
 P 1 
   1       0.3376720000      1.0000000000
 D 2 
   1       5.9287253000     -0.3533329857
   2       1.9809209000     -0.7456525731
 D 1 
   1       0.8055417000     -1.0000000000
 D 1 
   1       0.3531244000     -1.0000000000
 F 2 
   1       1.6755626000      0.6311076882
   2       0.5997536000      0.4968166032
 G 1 
   1       1.0024600000     -1.0000000000
  end;

 # Auxiliary/J basis set for element : O 
 NewAuxJGTO O 
 S 7 
   1    2876.8216605000      0.0168151159
   2    1004.7443032000      0.0340137548
   3     369.7579954000      0.1194951309
   4     142.9442404000      0.2664627624
   5      57.8366425000      0.4202764046
   6      24.3864983000      0.2765077335
   7      10.6622662000      0.0057008815
 S 1 
   1       4.8070437000     -1.0000000000
 S 1 
   1       2.2210770000      1.0000000000
 S 1 
   1       1.0447795000      1.0000000000
 S 1 
   1       0.4968425000      1.0000000000
 S 1 
   1       0.2371384000      1.0000000000
 P 2 
   1      64.2613382000     -0.2731534179
   2      16.3006076000     -0.8168011598
 P 1 
   1       4.3550542000      1.0000000000
 P 1 
   1       1.2019554000      1.0000000000
 P 1 
   1       0.3354196000      1.0000000000
 D 2 
   1       9.2146611000     -0.4661230638
   2       2.8435251000     -0.6600908911
 D 1 
   1       0.9955759000     -1.0000000000
 D 1 
   1       0.3649441000     -1.0000000000
 F 2 
   1       2.6420115000      0.5931563945
   2       0.7345613000      0.5931563945
 G 1 
   1       1.3931000000     -1.0000000000
  end;


Checking for AutoStart:
The File: inpS.gbw exists
Trying to determine its content:
     ... Fine, the file contains calculation information
     ... Fine, the calculation information was read
     ... Fine, the file contains a basis set
     ... Fine, the basis set was read
     ... Fine, the file contains a geometry
     ... Fine, the geometry was read
     ... Fine, the file contains a set of orbitals
     ... Fine, the orbitals can be read
     => possible old guess file was deleted
     => GBW file was renamed to GES file
     => GES file is set as startup file
     => Guess is set to MORead
     ... now leaving AutoStart



           ************************************************************
           *        Program running with 4 parallel MPI-processes     *
           *              working on a common directory               *
           ************************************************************
------------------------------------------------------------------------------
                             ORCA STARTUP CALCULATIONS
                           -- RI-GTO INTEGRALS CHOSEN --
------------------------------------------------------------------------------
------------------------------------------------------------------------------
                   ___                                                        
                  /   \      - P O W E R E D   B Y -                         
                 /     \                                                     
                 |  |  |   _    _      __       _____    __    __             
                 |  |  |  | |  | |    /  \     |  _  \  |  |  /  |          
                  \  \/   | |  | |   /    \    | | | |  |  | /  /          
                 / \  \   | |__| |  /  /\  \   | |_| |  |  |/  /          
                |  |  |   |  __  | /  /__\  \  |    /   |      \           
                |  |  |   | |  | | |   __   |  |    \   |  |\   \          
                \     /   | |  | | |  |  |  |  | |\  \  |  | \   \       
                 \___/    |_|  |_| |__|  |__|  |_| \__\ |__|  \__/        
                                                                              
                      - O R C A' S   B I G   F R I E N D -                    
                                      &                                       
                       - I N T E G R A L  F E E D E R -                       
                                                                              
 v1 FN, 2020, v2 2021, v3 2022-2024                                           
------------------------------------------------------------------------------


----------------------
SHARK INTEGRAL PACKAGE
----------------------

Number of atoms                             ...     73
Number of basis functions                   ...    626
Number of shells                            ...    306
Maximum angular momentum                    ...      2
Integral batch strategy                     ... SHARK/LIBINT Hybrid
RI-J (if used) integral strategy            ... SPLIT-RIJ (Revised 2003 algorithm where possible)
Printlevel                                  ...      1
Contraction scheme used                     ... SEGMENTED contraction
Prescreening option                         ... SCHWARTZ
   Thresh                                   ... 3.000e-11
   Tcut                                     ... 1.000e-12
   Tpresel                                  ... 1.000e-12 
Coulomb Range Separation                    ... NOT USED
Exchange Range Separation                   ... Long Range
   Mu parameter                             ... 3.000e-01
   Scaling (regular/separated)              ... 1.670e-01 8.330e-01
Multipole approximations                    ... NOT USED
Finite Nucleus Model                        ... NOT USED
CABS basis                                  ... NOT available
Auxiliary Coulomb fitting basis             ... AVAILABLE
   # of basis functions in Aux-J            ...   1905
   # of shells in Aux-J                     ...    655
   Maximum angular momentum in Aux-J        ...      4
Auxiliary J/K fitting basis                 ... NOT available
Auxiliary Correlation fitting basis         ... NOT available
Auxiliary 'external' fitting basis          ... NOT available

Checking pre-screening integrals            ... done (  0.0 sec) Dimension = 306
Check shell pair data                       ... done (  0.0 sec)
Shell pair information
Shell pair cut-off parameter TPreSel        ...   1.0e-12
Total number of shell pairs                 ...     46971
Shell pairs after pre-screening             ...     27941
Total number of primitive shell pairs       ...    162105
Primitive shell pairs kept                  ...     61503
          la=0 lb=0:   9776 shell pairs
          la=1 lb=0:  10718 shell pairs
          la=1 lb=1:   2965 shell pairs
          la=2 lb=0:   2802 shell pairs
          la=2 lb=1:   1485 shell pairs
          la=2 lb=2:    195 shell pairs

Calculating one electron integrals          ... done (  0.1 sec)
Calculating RI/J V-Matrix + Cholesky decomp.... done (  0.2 sec)
Calculating Nuclear repulsion               ... done (  0.0 sec) ENN=   2797.111549800635 Eh

Diagonalization of the overlap matrix:
Smallest eigenvalue                        ... 4.453e-04
Time for diagonalization                   ...    0.045 sec
Threshold for overlap eigenvalues          ... 1.000e-07
Number of eigenvalues below threshold      ... 0
Time for construction of square roots      ...    0.023 sec
Total time needed                          ...    0.071 sec

-------------------
DFT GRID GENERATION
-------------------

General Integration Accuracy     IntAcc      ... 4.388
Radial Grid Type                 RadialGrid  ... OptM3 with GC (2021)
Angular Grid (max. ang.)         AngularGrid ... 4 (Lebedev-302)
Angular grid pruning method      GridPruning ... 4 (adaptive)
Weight generation scheme         WeightScheme... mBecke (2022)
Basis function cutoff            BFCut       ... 1.0000e-11
Integration weight cutoff        WCut        ... 1.0000e-14
Partially contracted basis set               ... off
Rotationally invariant grid construction     ... off
Angular grids for H and He will be reduced by one unit

Total number of grid points                  ...   309706
Total number of batches                      ...     4875
Average number of points per batch           ...       63
Average number of grid points per atom       ...     4243

--------------------
COSX GRID GENERATION
--------------------

GRIDX 1
-------
General Integration Accuracy     IntAcc      ... 3.816
Radial Grid Type                 RadialGrid  ... OptM3 with GC (2021)
Angular Grid (max. ang.)         AngularGrid ... 1 (Lebedev-50)
Angular grid pruning method      GridPruning ... 4 (adaptive)
Weight generation scheme         WeightScheme... mBecke (2022)
Basis function cutoff            BFCut       ... 1.0000e-11
Integration weight cutoff        WCut        ... 1.0000e-14
Partially contracted basis set               ... on
Rotationally invariant grid construction     ... off
Angular grids for H and He will be reduced by one unit

Total number of grid points                  ...    39380
Total number of batches                      ...      350
Average number of points per batch           ...      112
Average number of grid points per atom       ...      539
UseSFitting                                  ... on

GRIDX 2
-------
General Integration Accuracy     IntAcc      ... 4.020
Radial Grid Type                 RadialGrid  ... OptM3 with GC (2021)
Angular Grid (max. ang.)         AngularGrid ... 2 (Lebedev-110)
Angular grid pruning method      GridPruning ... 4 (adaptive)
Weight generation scheme         WeightScheme... mBecke (2022)
Basis function cutoff            BFCut       ... 1.0000e-11
Integration weight cutoff        WCut        ... 1.0000e-14
Partially contracted basis set               ... on
Rotationally invariant grid construction     ... off
Angular grids for H and He will be reduced by one unit

Total number of grid points                  ...    81287
Total number of batches                      ...      677
Average number of points per batch           ...      120
Average number of grid points per atom       ...     1114
UseSFitting                                  ... on

GRIDX 3
-------
General Integration Accuracy     IntAcc      ... 4.338
Radial Grid Type                 RadialGrid  ... OptM3 with GC (2021)
Angular Grid (max. ang.)         AngularGrid ... 3 (Lebedev-194)
Angular grid pruning method      GridPruning ... 4 (adaptive)
Weight generation scheme         WeightScheme... mBecke (2022)
Basis function cutoff            BFCut       ... 1.0000e-11
Integration weight cutoff        WCut        ... 1.0000e-14
Partially contracted basis set               ... on
Rotationally invariant grid construction     ... off
Angular grids for H and He will be reduced by one unit

Total number of grid points                  ...   175995
Total number of batches                      ...     1419
Average number of points per batch           ...      124
Average number of grid points per atom       ...     2411
UseSFitting                                  ... on
Initializing property integral containers    ... done (  0.0 sec)

SHARK setup successfully completed in   4.5 seconds

Maximum memory used throughout the entire STARTUP-calculation: 96.1 MB


           ************************************************************
           *        Program running with 4 parallel MPI-processes     *
           *              working on a common directory               *
           ************************************************************
-------------------------------------------------------------------------------
                                 ORCA GUESS
                   Start orbitals & Density for SCF / CASSCF
-------------------------------------------------------------------------------

------------
SCF SETTINGS
------------
Hamiltonian:
 Density Functional     Method          .... DFT(GTOs)
 Exchange Functional    Exchange        .... WB97X-V
 Correlation Functional Correlation     .... WB97X-V
 Gradients option       PostSCFGGA      .... off
 Hybrid DFT is turned on
   Fraction HF Exchange ScalHFX         ....  0.167000
   Scaling of DF-GGA-X  ScalDFX         ....  0.000000
   Scaling of DF-GGA-C  ScalDFC         ....  1.000000
   Scaling of DF-LDA-C  ScalLDAC        ....  1.000000
   Perturbative correction              ....  0.000000
 Long-range corrected/Screened/Range-Separated Hybrid DFT is turned on
   Amount of maximum screened exact exchange              ....  0.833000
   Range separation parameter mu (erf(mu*r12)/r12)        ....  0.300000
 RI-approximation to the Coulomb term is turned on
   Number of AuxJ basis functions       .... 1905
   RIJ-COSX (HFX calculated with COS-X)).... on


General Settings:
 Integral files         IntName         .... inpS
 Hartree-Fock type      HFTyp           .... RHF
 Total Charge           Charge          ....    0
 Multiplicity           Mult            ....    1
 Number of Electrons    NEL             ....  220
 Basis Dimension        Dim             ....  626
 Nuclear Repulsion      ENuc            ....   2797.1115498006 Eh

Convergence Acceleration:
 AO-DIIS                CNVDIIS         .... on
   Start iteration      DIISMaxIt       ....    12
   Startup error        DIISStart       ....  0.200000
   # of expansion vecs  DIISMaxEq       ....     5
   Bias factor          DIISBfac        ....   1.050
   Max. coefficient     DIISMaxC        ....  10.000
 MO-DIIS                CNVKDIIS        .... off
 Trust-Rad. Augm. Hess. CNVTRAH         .... auto
   Auto Start mean grad. ratio tolernc. ....  1.125000
   Auto Start start iteration           ....     1
   Auto Start num. interpolation iter.  ....    10
   Max. Number of Micro iterations      ....    24
   Max. Number of Macro iterations      .... Maxiter - #DIIS iter
   Number of Davidson start vectors     ....     2
   Converg. threshold    (grad. norm)   ....   1.000e-04
   Grad. Scal. Fac. for Micro threshold ....   0.100
   Minimum threshold for Micro iter.    ....   1.000e-02
   NR start threshold (gradient norm)   ....   1.000e-04
   Initial trust radius                 ....   0.400
   Minimum AH scaling param. (alpha)    ....   1.000
   Maximum AH scaling param. (alpha)    .... 1000.000
   Quad. conv. algorithm                .... NR
   White noise on init. David. guess    .... on
   Maximum white noise                  ....   0.010
   Pseudo random numbers                .... off
   Inactive MOs                         .... canonical
   Orbital update algorithm             .... Taylor
   Preconditioner                       .... Diag
   Full preconditioner red. dimension   ....   250
 SOSCF                  CNVSOSCF        .... off
 Level Shifting         CNVShift        .... on
   Level shift para.    LevelShift      ....    0.2500
   Turn off err/grad.   ShiftErr        ....    0.0010
 Zerner damping         CNVZerner       .... off
 Static damping         CNVDamp         .... on
   Fraction old density DampFac         ....    0.7000
   Max. Damping (<1)    DampMax         ....    0.9800
   Min. Damping (>=0)   DampMin         ....    0.0000
   Turn off err/grad.   DampErr         ....    0.1000

SCF Procedure:
 Maximum # iterations   MaxIter         ....   125
 SCF integral mode      SCFMode         .... Direct
   Integral package                     .... SHARK and LIBINT hybrid scheme
 Reset frequency        DirectResetFreq ....    20
 Integral Threshold     Thresh          ....  3.000e-11 Eh
 Primitive CutOff       TCut            ....  1.000e-12 Eh

Convergence Tolerance:
 Convergence Check Mode ConvCheckMode   .... Total+1el-Energy
 Convergence forced     ConvForced      .... 0
 Energy Change          TolE            ....  1.000e-07 Eh
 1-El. energy change                    ....  1.000e-04 Eh
 DIIS Error             TolErr          ....  1.000e-07

---------------------
INITIAL GUESS: MOREAD
---------------------
Guess MOs are being read from file: inpS.ges
Input Geometry matches current geometry (good)
Input basis set matches current basis set (good)
Occupation numbers will be reassigned to an Aufbau configuration
MOs were renormalized
MOs were reorthogonalized (Cholesky)
                      ------------------
                      INITIAL GUESS DONE (   0.2 sec)
                      ------------------
             **** ENERGY FILE WAS UPDATED (inpS.en.tmp) ****
Finished Guess after   0.3 sec
Maximum memory used throughout the entire GUESS-calculation: 52.8 MB


           ************************************************************
           *        Program running with 4 parallel MPI-processes     *
           *              working on a common directory               *
           ************************************************************

-------------------------------------------------------------------------------------------
                                      ORCA LEAN-SCF
                              memory conserving SCF solver
-------------------------------------------------------------------------------------------

--------------------
CPCM SOLVATION MODEL
--------------------
CPCM parameters:
  Epsilon                                         ...       4.8030
  Refrac                                          ...       1.4459
  Rsolv                                           ...       1.3000
  Surface type                                    ... GAUSSIAN VDW
  Discretization scheme                           ... Constant charge density
    Threshold for H atoms                         ...       5.0000 (charges/Ang^2)
    Threshold for non-H atoms                     ...       5.0000 (charges/Ang^2)
  Epsilon function type                           ...         CPCM
Solvent:                                          ... CHLOROFORM
Radii:
  Scheme                                          ... Element-dependent radii
  Radius for C  used is    3.8550 Bohr (=   2.0400 Ang.)
  Radius for H  used is    2.4944 Bohr (=   1.3200 Ang.)
  Radius for O  used is    3.4469 Bohr (=   1.8240 Ang.)
Calculating surface                               ...        done! (  0.0s)
Cavity surface points                             ...         5364
Cavity Volume                                     ...    3615.6029
Cavity Surface-area                               ...    1792.4462
Calculating surface distance matrix               ...        done! (  0.3s)
Performing Cholesky decomposition & store         ...        done! (  0.9s)
Overall time for CPCM initialization              ...                 1.1s

----------------------------------------D-I-I-S--------------------------------------------
Iteration    Energy (Eh)           Delta-E    RMSDP     MaxDP     DIISErr   Damp  Time(sec)
-------------------------------------------------------------------------------------------
               ***  Starting incremental Fock matrix formation  ***
    1    -1168.3626155595420641     0.00e+00  3.09e-08  2.13e-06  4.30e-06  0.700  23.7

  HOMO= 109 E= -7.962 eV LUMO=  8.065 eV gap=  16.028 eV
    2    -1168.3626155372548965     2.23e-08  2.68e-08  1.36e-06  2.58e-06  0.700   4.9
                 **** Energy Check signals convergence ****

  HOMO= 109 E= -7.962 eV LUMO=  8.065 eV gap=  16.028 eV

               *****************************************************
               *                     SUCCESS                       *
               *           SCF CONVERGED AFTER   2 CYCLES          *
               *****************************************************

Recomputing exchange energy using gridx3       ... done (   41.886 sec)
Old exchange energy                            :    -56.782745200 Eh
New exchange energy                            :    -56.782786555 Eh
Exchange energy change after final integration :     -0.000041354 Eh
Total energy after final integration           :  -1168.362656892 Eh
             **** ENERGY FILE WAS UPDATED (inpS.en.tmp) ****

----------------
TOTAL SCF ENERGY
----------------

Total Energy       :      -1168.36265689156676 Eh          -31792.76421 eV

Components:
Nuclear Repulsion  :       2797.11154980063520 Eh           76113.27479 eV
Electronic Energy  :      -3965.46501439921303 Eh         -107905.78887 eV
One Electron Energy:      -7139.18797909429213 Eh         -194267.18126 eV
Two Electron Energy:       3173.72296469507910 Eh           86361.39240 eV
CPCM Dielectric    :         -0.00915093867714 Eh              -0.24901 eV

Virial components:
Potential Energy   :      -2321.66072946376516 Eh          -63175.60023 eV
Kinetic Energy     :       1153.29807257219841 Eh           31382.83603 eV
Virial Ratio       :          2.01306217766043

DFT components:
N(Alpha)           :      110.000325789298 electrons
N(Beta)            :      110.000325789298 electrons
N(Total)           :      220.000651578595 electrons
E(X)               :     -111.769285714336 Eh       
E(C)               :       -8.952024217225 Eh       
E(XC)              :     -120.721309931562 Eh       

CPCM Solvation Model Properties:
Surface-charge          :         -0.04156821762754
Corrected charge        :         -0.00000000000000
Outlying charge corr.   :          0.00006089263792 Eh               0.00166 eV
Free-energy (cav+disp)  :  This term is not implemented in the current solvation scheme

---------------
SCF CONVERGENCE
---------------

  Last Energy change         ...   -2.2287e-08  Tolerance :   1.0000e-07
  Last MAX-Density change    ...    1.3592e-06  Tolerance :   1.0000e-05
  Last RMS-Density change    ...    2.6832e-08  Tolerance :   1.0000e-06
  Last DIIS Error            ...    2.5834e-06  Tolerance :   1.0000e-07


----------------
ORBITAL ENERGIES
----------------

  NO   OCC          E(Eh)            E(eV) 
   0   2.0000     -19.212413      -522.7963 
   1   2.0000     -10.330362      -281.1034 
   2   2.0000     -10.294340      -280.1232 
   3   2.0000     -10.292108      -280.0625 
   4   2.0000     -10.287722      -279.9432 
   5   2.0000     -10.287056      -279.9250 
   6   2.0000     -10.285501      -279.8827 
   7   2.0000     -10.284228      -279.8481 
   8   2.0000     -10.283623      -279.8316 
   9   2.0000     -10.282969      -279.8138 
  10   2.0000     -10.280782      -279.7543 
  11   2.0000     -10.280433      -279.7448 
  12   2.0000     -10.279546      -279.7207 
  13   2.0000     -10.279333      -279.7149 
  14   2.0000     -10.278144      -279.6825 
  15   2.0000     -10.278069      -279.6805 
  16   2.0000     -10.277467      -279.6641 
  17   2.0000     -10.277076      -279.6535 
  18   2.0000     -10.273744      -279.5628 
  19   2.0000     -10.273196      -279.5479 
  20   2.0000     -10.272244      -279.5220 
  21   2.0000     -10.272146      -279.5193 
  22   2.0000     -10.271626      -279.5052 
  23   2.0000     -10.271442      -279.5001 
  24   2.0000     -10.269782      -279.4550 
  25   2.0000     -10.268603      -279.4229 
  26   2.0000     -10.267956      -279.4053 
  27   2.0000     -10.267781      -279.4005 
  28   2.0000     -10.266495      -279.3655 
  29   2.0000      -1.130950       -30.7747 
  30   2.0000      -0.999205       -27.1898 
  31   2.0000      -0.977362       -26.5954 
  32   2.0000      -0.957473       -26.0542 
  33   2.0000      -0.943053       -25.6618 
  34   2.0000      -0.917780       -24.9741 
  35   2.0000      -0.911424       -24.8011 
  36   2.0000      -0.890073       -24.2201 
  37   2.0000      -0.888160       -24.1681 
  38   2.0000      -0.871622       -23.7181 
  39   2.0000      -0.854185       -23.2436 
  40   2.0000      -0.836225       -22.7548 
  41   2.0000      -0.829042       -22.5594 
  42   2.0000      -0.810571       -22.0568 
  43   2.0000      -0.799973       -21.7684 
  44   2.0000      -0.797303       -21.6957 
  45   2.0000      -0.792094       -21.5540 
  46   2.0000      -0.761275       -20.7153 
  47   2.0000      -0.752761       -20.4837 
  48   2.0000      -0.727762       -19.8034 
  49   2.0000      -0.713314       -19.4103 
  50   2.0000      -0.706328       -19.2202 
  51   2.0000      -0.699746       -19.0411 
  52   2.0000      -0.690081       -18.7781 
  53   2.0000      -0.669826       -18.2269 
  54   2.0000      -0.649491       -17.6736 
  55   2.0000      -0.639579       -17.4038 
  56   2.0000      -0.630476       -17.1561 
  57   2.0000      -0.620056       -16.8726 
  58   2.0000      -0.607498       -16.5309 
  59   2.0000      -0.601579       -16.3698 
  60   2.0000      -0.589281       -16.0351 
  61   2.0000      -0.580930       -15.8079 
  62   2.0000      -0.575993       -15.6736 
  63   2.0000      -0.569654       -15.5011 
  64   2.0000      -0.562819       -15.3151 
  65   2.0000      -0.556065       -15.1313 
  66   2.0000      -0.553571       -15.0634 
  67   2.0000      -0.551428       -15.0051 
  68   2.0000      -0.550406       -14.9773 
  69   2.0000      -0.548537       -14.9264 
  70   2.0000      -0.538450       -14.6520 
  71   2.0000      -0.532604       -14.4929 
  72   2.0000      -0.524628       -14.2759 
  73   2.0000      -0.521447       -14.1893 
  74   2.0000      -0.519672       -14.1410 
  75   2.0000      -0.515929       -14.0392 
  76   2.0000      -0.506715       -13.7884 
  77   2.0000      -0.502564       -13.6755 
  78   2.0000      -0.500693       -13.6246 
  79   2.0000      -0.491831       -13.3834 
  80   2.0000      -0.488235       -13.2856 
  81   2.0000      -0.485433       -13.2093 
  82   2.0000      -0.484404       -13.1813 
  83   2.0000      -0.478683       -13.0256 
  84   2.0000      -0.467963       -12.7339 
  85   2.0000      -0.466187       -12.6856 
  86   2.0000      -0.463381       -12.6092 
  87   2.0000      -0.462057       -12.5732 
  88   2.0000      -0.455733       -12.4011 
  89   2.0000      -0.452549       -12.3145 
  90   2.0000      -0.448477       -12.2037 
  91   2.0000      -0.446271       -12.1436 
  92   2.0000      -0.439603       -11.9622 
  93   2.0000      -0.435178       -11.8418 
  94   2.0000      -0.429164       -11.6782 
  95   2.0000      -0.425123       -11.5682 
  96   2.0000      -0.422791       -11.5047 
  97   2.0000      -0.419945       -11.4273 
  98   2.0000      -0.417933       -11.3725 
  99   2.0000      -0.414939       -11.2911 
 100   2.0000      -0.409360       -11.1393 
 101   2.0000      -0.407320       -11.0837 
 102   2.0000      -0.405451       -11.0329 
 103   2.0000      -0.404199       -10.9988 
 104   2.0000      -0.392929       -10.6921 
 105   2.0000      -0.382582       -10.4106 
 106   2.0000      -0.372796       -10.1443 
 107   2.0000      -0.355868        -9.6836 
 108   2.0000      -0.336133        -9.1466 
 109   2.0000      -0.292613        -7.9624 
 110   0.0000       0.046394         1.2624 
 111   0.0000       0.099276         2.7014 
 112   0.0000       0.109478         2.9791 
 113   0.0000       0.128394         3.4938 
 114   0.0000       0.141749         3.8572 
 115   0.0000       0.144099         3.9211 
 116   0.0000       0.148933         4.0527 
 117   0.0000       0.152426         4.1477 
 118   0.0000       0.158954         4.3254 
 119   0.0000       0.163988         4.4623 
 120   0.0000       0.167477         4.5573 
*Only the first 10 virtual orbitals were printed.

                    ********************************
                    * MULLIKEN POPULATION ANALYSIS *
                    ********************************

-----------------------
MULLIKEN ATOMIC CHARGES
-----------------------
   0 C :   -0.173653
   1 C :    0.142290
   2 C :    0.068616
   3 H :    0.017218
   4 H :    0.030586
   5 C :   -0.170847
   6 C :    0.095619
   7 C :    0.023574
   8 H :    0.013728
   9 H :    0.027453
  10 H :    0.019965
  11 H :    0.022647
  12 O :   -0.359310
  13 H :    0.018178
  14 C :   -0.008728
  15 C :   -0.046315
  16 H :    0.035274
  17 H :    0.029361
  18 C :   -0.062351
  19 H :   -0.002516
  20 C :   -0.113668
  21 H :    0.003488
  22 C :    0.114710
  23 C :   -0.002091
  24 H :    0.014401
  25 H :    0.017140
  26 C :    0.106847
  27 H :    0.013082
  28 H :    0.015623
  29 C :   -0.405201
  30 H :    0.009011
  31 H :   -0.002038
  32 C :   -0.044902
  33 H :    0.011597
  34 C :    0.124225
  35 H :    0.179143
  36 C :    0.044881
  37 H :    0.007897
  38 H :    0.015704
  39 C :   -0.056370
  40 H :    0.013813
  41 H :    0.010623
  42 H :   -0.005705
  43 C :   -0.017016
  44 C :    0.090900
  45 H :    0.019503
  46 H :    0.024754
  47 H :    0.019242
  48 H :    0.004109
  49 C :    0.060208
  50 C :   -0.060354
  51 C :   -0.070250
  52 H :    0.008483
  53 H :    0.012872
  54 C :   -0.071497
  55 C :    0.038727
  56 C :   -0.146653
  57 H :    0.005261
  58 H :    0.010311
  59 C :    0.014168
  60 C :    0.032387
  61 H :    0.020504
  62 H :    0.017725
  63 H :    0.019739
  64 H :    0.019178
  65 H :    0.017291
  66 H :    0.019092
  67 H :    0.014105
  68 H :    0.017072
  69 H :    0.020130
  70 H :    0.029315
  71 H :    0.017729
  72 H :    0.019963
Sum of atomic charges:   -0.0000000

--------------------------------
MULLIKEN REDUCED ORBITAL CHARGES
--------------------------------
  0 C s       :     3.102246  s :     3.102246
      pz      :     1.016080  p :     3.028382
      px      :     1.003240
      py      :     1.009062
      dz2     :     0.004586  d :     0.043026
      dxz     :     0.006556
      dyz     :     0.005830
      dx2y2   :     0.014311
      dxy     :     0.011743

  1 C s       :     2.939536  s :     2.939536
      pz      :     0.987955  p :     2.883779
      px      :     0.930981
      py      :     0.964843
      dz2     :     0.007631  d :     0.034395
      dxz     :     0.007059
      dyz     :     0.003987
      dx2y2   :     0.009977
      dxy     :     0.005741

  2 C s       :     3.084974  s :     3.084974
      pz      :     0.743100  p :     2.775736
      px      :     1.042361
      py      :     0.990275
      dz2     :     0.022424  d :     0.070673
      dxz     :     0.011578
      dyz     :     0.017610
      dx2y2   :     0.012001
      dxy     :     0.007061

  3 H s       :     0.960125  s :     0.960125
      pz      :     0.004845  p :     0.022657
      px      :     0.003689
      py      :     0.014123

  4 H s       :     0.946101  s :     0.946101
      pz      :     0.013997  p :     0.023313
      px      :     0.004841
      py      :     0.004474

  5 C s       :     3.109039  s :     3.109039
      pz      :     0.978225  p :     3.017007
      px      :     0.985243
      py      :     1.053539
      dz2     :     0.009756  d :     0.044801
      dxz     :     0.005509
      dyz     :     0.009211
      dx2y2   :     0.010840
      dxy     :     0.009484

  6 C s       :     2.955046  s :     2.955046
      pz      :     1.000891  p :     2.913888
      px      :     0.947984
      py      :     0.965013
      dz2     :     0.008637  d :     0.035447
      dxz     :     0.006650
      dyz     :     0.004246
      dx2y2   :     0.008987
      dxy     :     0.006927

  7 C s       :     3.002819  s :     3.002819
      pz      :     0.986185  p :     2.938827
      px      :     0.981401
      py      :     0.971241
      dz2     :     0.007178  d :     0.034781
      dxz     :     0.006595
      dyz     :     0.004611
      dx2y2   :     0.008771
      dxy     :     0.007626

  8 H s       :     0.963439  s :     0.963439
      pz      :     0.005494  p :     0.022833
      px      :     0.003741
      py      :     0.013599

  9 H s       :     0.949151  s :     0.949151
      pz      :     0.014203  p :     0.023396
      px      :     0.004763
      py      :     0.004429

 10 H s       :     0.957208  s :     0.957208
      pz      :     0.013718  p :     0.022827
      px      :     0.004902
      py      :     0.004207

 11 H s       :     0.954725  s :     0.954725
      pz      :     0.008488  p :     0.022628
      px      :     0.007040
      py      :     0.007101

 12 O s       :     3.713520  s :     3.713520
      pz      :     1.424369  p :     4.633652
      px      :     1.329123
      py      :     1.880160
      dz2     :     0.005301  d :     0.012138
      dxz     :     0.001387
      dyz     :     0.001728
      dx2y2   :     0.003197
      dxy     :     0.000524

 13 H s       :     0.961476  s :     0.961476
      pz      :     0.001849  p :     0.020346
      px      :     0.014220
      py      :     0.004277

 14 C s       :     3.194451  s :     3.194451
      pz      :     0.992943  p :     2.777924
      px      :     0.871932
      py      :     0.913049
      dz2     :     0.003600  d :     0.036352
      dxz     :     0.007672
      dyz     :     0.003189
      dx2y2   :     0.011373
      dxy     :     0.010519

 15 C s       :     3.123981  s :     3.123981
      pz      :     1.005023  p :     2.896074
      px      :     0.983990
      py      :     0.907061
      dz2     :     0.005488  d :     0.026260
      dxz     :     0.004113
      dyz     :     0.004810
      dx2y2   :     0.006389
      dxy     :     0.005460

 16 H s       :     0.940182  s :     0.940182
      pz      :     0.007321  p :     0.024544
      px      :     0.008225
      py      :     0.008998

 17 H s       :     0.946025  s :     0.946025
      pz      :     0.004672  p :     0.024614
      px      :     0.004420
      py      :     0.015521

 18 C s       :     3.200011  s :     3.200011
      pz      :     1.031788  p :     2.827150
      px      :     0.880181
      py      :     0.915182
      dz2     :     0.003196  d :     0.035190
      dxz     :     0.006746
      dyz     :     0.003136
      dx2y2   :     0.012312
      dxy     :     0.009799

 19 H s       :     0.978200  s :     0.978200
      pz      :     0.004639  p :     0.024316
      px      :     0.004761
      py      :     0.014917

 20 C s       :     3.099777  s :     3.099777
      pz      :     0.957086  p :     2.969774
      px      :     0.986702
      py      :     1.025986
      dz2     :     0.003914  d :     0.044117
      dxz     :     0.007147
      dyz     :     0.006974
      dx2y2   :     0.014464
      dxy     :     0.011618

 21 H s       :     0.971926  s :     0.971926
      pz      :     0.004606  p :     0.024586
      px      :     0.004336
      py      :     0.015644

 22 C s       :     2.925636  s :     2.925636
      pz      :     1.000988  p :     2.924121
      px      :     0.975419
      py      :     0.947713
      dz2     :     0.009389  d :     0.035533
      dxz     :     0.004345
      dyz     :     0.005903
      dx2y2   :     0.009816
      dxy     :     0.006080

 23 C s       :     3.001217  s :     3.001217
      pz      :     1.011647  p :     2.964399
      px      :     0.965650
      py      :     0.987102
      dz2     :     0.009848  d :     0.036475
      dxz     :     0.007703
      dyz     :     0.002986
      dx2y2   :     0.010304
      dxy     :     0.005634

 24 H s       :     0.962398  s :     0.962398
      pz      :     0.004862  p :     0.023201
      px      :     0.013622
      py      :     0.004717

 25 H s       :     0.959590  s :     0.959590
      pz      :     0.013537  p :     0.023270
      px      :     0.004814
      py      :     0.004919

 26 C s       :     2.969290  s :     2.969290
      pz      :     0.968603  p :     2.888547
      px      :     0.975354
      py      :     0.944590
      dz2     :     0.006899  d :     0.035316
      dxz     :     0.006691
      dyz     :     0.005696
      dx2y2   :     0.008670
      dxy     :     0.007361

 27 H s       :     0.964063  s :     0.964063
      pz      :     0.013599  p :     0.022855
      px      :     0.004403
      py      :     0.004853

 28 H s       :     0.961733  s :     0.961733
      pz      :     0.004571  p :     0.022644
      px      :     0.003781
      py      :     0.014293

 29 C s       :     3.253829  s :     3.253829
      pz      :     1.044311  p :     3.100436
      px      :     0.998438
      py      :     1.057687
      dz2     :     0.011540  d :     0.050935
      dxz     :     0.010508
      dyz     :     0.009459
      dx2y2   :     0.010885
      dxy     :     0.008543

 30 H s       :     0.967907  s :     0.967907
      pz      :     0.009188  p :     0.023082
      px      :     0.007767
      py      :     0.006127

 31 H s       :     0.979492  s :     0.979492
      pz      :     0.013053  p :     0.022545
      px      :     0.004900
      py      :     0.004592

 32 C s       :     3.034074  s :     3.034074
      pz      :     0.988266  p :     2.967093
      px      :     0.947228
      py      :     1.031599
      dz2     :     0.008424  d :     0.043735
      dxz     :     0.007370
      dyz     :     0.008026
      dx2y2   :     0.011119
      dxy     :     0.008796

 33 H s       :     0.967114  s :     0.967114
      pz      :     0.012247  p :     0.021288
      px      :     0.004167
      py      :     0.004874

 34 C s       :     2.893550  s :     2.893550
      pz      :     0.988523  p :     2.947400
      px      :     0.977271
      py      :     0.981605
      dz2     :     0.005517  d :     0.034825
      dxz     :     0.005897
      dyz     :     0.008106
      dx2y2   :     0.008955
      dxy     :     0.006351

 35 H s       :     0.752075  s :     0.752075
[...]
 Total          142.716          174.110          191.197  iso=     169.341

 Orientation: 
  X           0.2499354   -0.5720254    0.7812293
  Y          -0.1501221   -0.8199727   -0.5523659
  Z           0.9565541    0.0207760   -0.2908138

 --------------
 Nucleus  39C :
 --------------

Diamagnetic contribution to the shielding tensor (ppm) : 
           265.380          4.501        -7.988
             5.689        256.561         5.137
            -7.389          5.296       265.838

Paramagnetic contribution to the shielding tensor (ppm): 
          -100.427         -1.457         9.780
             1.230       -128.232        -1.402
            14.011         -4.708      -139.267

Total shielding tensor (ppm): 
           164.953          3.044         1.792
             6.919        128.329         3.735
             6.622          0.588       126.571


 Diagonalized sT*s matrix:
 
 sDSO           258.775          263.923          265.081  iso=     262.593
 sPSO          -133.675         -135.287          -98.964  iso=    -122.642
        ---------------  ---------------  ---------------
 Total          125.101          128.635          166.117  iso=     139.951

 Orientation: 
  X          -0.0194364   -0.1650644   -0.9860913
  Y          -0.5383584    0.8328156   -0.1287958
  Z           0.8424918    0.5283672   -0.1050507

 --------------
 Nucleus  43C :
 --------------

Diamagnetic contribution to the shielding tensor (ppm) : 
           258.528         -1.261        -6.799
             0.252        242.108         9.701
            -9.502          4.954       252.681

Paramagnetic contribution to the shielding tensor (ppm): 
           -94.275         -1.593        -0.918
             2.105        -85.789        -7.837
             2.275         -0.376       -90.095

Total shielding tensor (ppm): 
           164.253         -2.854        -7.717
             2.358        156.319         1.864
            -7.227          4.577       162.586


 Diagonalized sT*s matrix:
 
 sDSO           238.814          249.419          265.084  iso=     251.106
 sPSO           -85.097          -91.286          -93.776  iso=     -90.053
        ---------------  ---------------  ---------------
 Total          153.717          158.133          171.308  iso=     161.053

 Orientation: 
  X          -0.4005730    0.5677177   -0.7191926
  Y           0.6947731    0.6999208    0.1655330
  Z          -0.5973539    0.4333676    0.6748043

 --------------
 Nucleus  44C :
 --------------

Diamagnetic contribution to the shielding tensor (ppm) : 
           250.231          0.753         0.932
             0.525        252.772        -1.780
            -0.946          2.236       273.469

Paramagnetic contribution to the shielding tensor (ppm): 
           -71.056         -5.176        -1.757
            -3.243        -72.558        -1.752
             0.427         -6.170       -80.217

Total shielding tensor (ppm): 
           179.174         -4.424        -0.825
            -2.718        180.214        -3.532
            -0.519         -3.934       193.252


 Diagonalized sT*s matrix:
 
 sDSO           252.765          251.789          271.918  iso=     258.824
 sPSO           -77.193          -68.971          -77.667  iso=     -74.610
        ---------------  ---------------  ---------------
 Total          175.572          182.818          194.250  iso=     184.214

 Orientation: 
  X           0.7112187    0.7027207    0.0187516
  Y           0.6817690   -0.6830209   -0.2620564
  Z           0.1713447   -0.1991637    0.9648704

 --------------
 Nucleus  49C :
 --------------

Diamagnetic contribution to the shielding tensor (ppm) : 
           244.188         -5.914        -3.058
           -12.506        251.989         9.319
           -11.181          7.627       251.646

Paramagnetic contribution to the shielding tensor (ppm): 
           -64.593          3.166        -2.605
             9.309        -69.324        -4.238
             4.062         -3.497       -75.361

Total shielding tensor (ppm): 
           179.595         -2.748        -5.663
            -3.197        182.665         5.081
            -7.119          4.130       176.285


 Diagonalized sT*s matrix:
 
 sDSO           242.409          239.498          265.917  iso=     249.274
 sPSO           -71.413          -60.884          -76.981  iso=     -69.760
        ---------------  ---------------  ---------------
 Total          170.995          178.613          188.936  iso=     179.515

 Orientation: 
  X           0.5428917   -0.6243500    0.5616545
  Y          -0.1850929   -0.7413036   -0.6451431
  Z           0.8191516    0.2462846   -0.5180103

 --------------
 Nucleus  50C :
 --------------

Diamagnetic contribution to the shielding tensor (ppm) : 
           273.988         -2.717        11.045
             8.360        256.790        -3.368
             9.228          5.848       250.700

Paramagnetic contribution to the shielding tensor (ppm): 
          -180.325        -12.944       -51.531
           -20.743       -296.753       -35.330
           -52.071        -42.500      -128.349

Total shielding tensor (ppm): 
            93.663        -15.660       -40.486
           -12.383        -39.963       -38.698
           -42.843        -36.652       122.351


 Diagonalized sT*s matrix:
 
 sDSO           259.686          273.209          248.584  iso=     260.493
 sPSO          -311.536         -200.118          -93.773  iso=    -201.809
        ---------------  ---------------  ---------------
 Total          -51.851           73.090          154.811  iso=      58.684

 Orientation: 
  X          -0.1951076    0.8165129   -0.5433596
  Y          -0.9483389   -0.2983695   -0.1078374
  Z          -0.2501726    0.4942492    0.8325451

 --------------
 Nucleus  51C :
 --------------

Diamagnetic contribution to the shielding tensor (ppm) : 
           269.439         -3.888        14.140
            -8.711        265.772        14.467
            10.161         14.973       247.987

Paramagnetic contribution to the shielding tensor (ppm): 
          -178.986        -15.145       -65.789
            -1.349       -285.664       -56.950
           -47.925        -60.473      -112.168

Total shielding tensor (ppm): 
            90.454        -19.032       -51.649
           -10.059        -19.892       -42.483
           -37.764        -45.501       135.819


 Diagonalized sT*s matrix:
 
 sDSO           271.676          273.263          238.260  iso=     261.066
 sPSO          -306.119         -200.634          -70.064  iso=    -192.272
        ---------------  ---------------  ---------------
 Total          -34.443           72.628          168.196  iso=      68.794

 Orientation: 
  X          -0.3423402    0.8278687   -0.4443385
  Y          -0.8812929   -0.4468965   -0.1536433
  Z          -0.3257698    0.3389941    0.8825855

 --------------
 Nucleus  54C :
 --------------

Diamagnetic contribution to the shielding tensor (ppm) : 
           253.375          1.910         0.399
             5.896        239.748        -0.536
             0.202          6.669       244.928

Paramagnetic contribution to the shielding tensor (ppm): 
          -101.007          3.771         2.925
            -2.660        -85.522         0.844
             2.470        -10.828       -86.639

Total shielding tensor (ppm): 
           152.368          5.681         3.325
             3.237        154.226         0.308
             2.672         -4.158       158.289


 Diagonalized sT*s matrix:
 
 sDSO           245.466          246.546          246.039  iso=     246.017
 sPSO           -97.894          -88.778          -86.496  iso=     -91.056
        ---------------  ---------------  ---------------
 Total          147.572          157.768          159.543  iso=     154.961

 Orientation: 
  X          -0.7473944    0.5513549    0.3706877
  Y           0.5839289    0.8112746   -0.0293376
  Z           0.3169050   -0.1945285    0.9282941

 --------------
 Nucleus  55C :
 --------------

Diamagnetic contribution to the shielding tensor (ppm) : 
           256.244         -3.421        -0.717
            -3.160        235.436         0.988
           -15.249          1.124       218.792

Paramagnetic contribution to the shielding tensor (ppm): 
           -60.325          7.352        -3.448
             3.930        -75.355         6.121
             8.600          0.595       -45.367

Total shielding tensor (ppm): 
           195.919          3.932        -4.165
             0.770        160.081         7.108
            -6.649          1.719       173.425


 Diagonalized sT*s matrix:
 
 sDSO           233.638          219.296          257.538  iso=     236.824
 sPSO           -75.282          -45.424          -60.341  iso=     -60.349
        ---------------  ---------------  ---------------
 Total          158.356          173.872          197.197  iso=     176.475

 Orientation: 
  X          -0.1076704    0.1877249   -0.9763024
  Y           0.9455950    0.3225905   -0.0422557
  Z          -0.3070135    0.9277363    0.2122452

 --------------
 Nucleus  56C :
 --------------

Diamagnetic contribution to the shielding tensor (ppm) : 
           241.135         -4.752        -4.312
            -1.099        251.272        -3.300
             8.487         -1.982       251.690

Paramagnetic contribution to the shielding tensor (ppm): 
           -77.865          5.685         4.598
             3.574        -96.541         1.353
            -8.307          6.203       -75.470

Total shielding tensor (ppm): 
           163.270          0.933         0.286
             2.475        154.731        -1.947
             0.180          4.221       176.220


 Diagonalized sT*s matrix:
 
 sDSO           252.334          240.325          251.438  iso=     248.032
 sPSO           -97.981          -76.743          -75.152  iso=     -83.292
        ---------------  ---------------  ---------------
 Total          154.353          163.582          176.286  iso=     164.740

 Orientation: 
  X          -0.1843847    0.9825525    0.0243479
  Y           0.9811268    0.1825361    0.0638032
  Z          -0.0582456   -0.0356527    0.9976654

 --------------
 Nucleus  59C :
 --------------

Diamagnetic contribution to the shielding tensor (ppm) : 
           237.951         -3.940         2.577
           -15.140        251.517        -4.932
            16.737         -1.657       240.694

Paramagnetic contribution to the shielding tensor (ppm): 
           -60.581          0.418        -3.283
             6.560        -57.272         4.882
           -14.597         -2.016       -66.231

Total shielding tensor (ppm): 
           177.370         -3.522        -0.706
            -8.580        194.245        -0.050
             2.140         -3.673       174.463


 Diagonalized sT*s matrix:
 
 sDSO           238.452          234.916          256.794  iso=     243.387
 sPSO           -64.179          -59.480          -60.425  iso=     -61.361
        ---------------  ---------------  ---------------
 Total          174.272          175.436          196.369  iso=     182.026

 Orientation: 
  X          -0.1040138   -0.9443055    0.3121992
  Y           0.0547946   -0.3188659   -0.9462146
  Z           0.9930653   -0.0813125    0.0849093

 --------------
 Nucleus  60C :
 --------------

Diamagnetic contribution to the shielding tensor (ppm) : 
           248.713         -2.827       -10.284
             1.184        253.309         0.686
            10.556          3.610       262.144

Paramagnetic contribution to the shielding tensor (ppm): 
           -71.067        -12.982        -1.769
           -12.840        -78.106        -1.200
           -21.217         -0.331       -90.558

Total shielding tensor (ppm): 
           177.646        -15.809       -12.053
           -11.656        175.203        -0.514
           -10.661          3.279       171.586


 Diagonalized sT*s matrix:
 
 sDSO           254.303          256.028          253.835  iso=     254.722
 sPSO           -95.893          -84.285          -59.554  iso=     -79.911
        ---------------  ---------------  ---------------
 Total          158.411          171.743          194.280  iso=     174.811

 Orientation: 
  X           0.6813192    0.0928334   -0.7260758
  Y           0.5085067    0.6534703    0.5607117
  Z           0.5265217   -0.7512380    0.3980155



--------------------------------
CHEMICAL SHIELDING SUMMARY (ppm)
--------------------------------


  Nucleus  Element    Isotropic     Anisotropy
  -------  -------  ------------   ------------
      0       C           61.370        151.923 
      1       C          154.531         12.146 
      2       C          132.320         50.850 
      5       C           50.789        177.691 
      6       C          167.988         31.819 
      7       C          164.886         17.345 
     14       C           71.803        133.186 
     15       C           83.765        119.470 
     18       C           80.164        133.877 
     20       C           52.158        175.550 
     22       C          169.061          6.958 
     23       C          174.166         13.158 
     26       C          158.802         23.411 
     29       C          153.725         17.688 
     32       C          143.266         27.536 
     34       C          174.743         23.747 
     36       C          169.341         32.783 
     39       C          139.951         39.249 
     43       C          161.053         15.383 
     44       C          184.214         15.055 
     49       C          179.515         14.132 
     50       C           58.684        144.191 
     51       C           68.794        149.103 
     54       C          154.961          6.873 
     55       C          176.475         31.083 
     56       C          164.740         17.319 
     59       C          182.026         21.515 
     60       C          174.811         29.204 


NMR shielding tensor and spin rotation calculation done in   1.1 sec 

Maximum memory used throughout the entire PROP-calculation: 52.3 MB

--------------------------------
SUGGESTED CITATIONS FOR THIS RUN
--------------------------------

Below you find a list of papers that are relevant to this ORCA run
We neither can nor want to force you to cite these papers, but we appreciate if you do
You receive ORCA, which is the product of decades of hard work by many enthusiastic individuals, for free
The only thing we kindly ask in return is that you cite our papers,
We deeply appreciate it, if you show your appreciation for ORCA by not just citing the generic ORCA reference.

Please note that relegating all ORCA citations to the supporting information does *not* help us.
SI sections are not indexed - citations you put there will not count into any citation statistics
But we need these citations in order to attract the funding resources that allow us to do what we are doing

Therefore, if you are a happy ORCA user, please consider citing a few of the papers listed below in the main body of your paper

In addition to the list printed below, the program has created the file inpS.bibtex that contains the list in bibtex format
You can import this file easily into all common literature databanks and citation aid programs


List of essential papers. We consider these as the minimum necessary citations

  1. Neese,F.
     Software update: the ORCA program system, version 5.0
     WIRES Comput. Molec. Sci., 2022 12(1)e1606
     doi.org/10.1002/wcms.1606

List of papers to cite with high priority. The work reported in these papers was absolutely
necessary for this run to complete.
Our perspective: the developers of density functionals and basis sets usually get cited in chemistry papers
Good! But without the algorithms to do something with them, the functionals or basis sets would not do anything.
Hence, in our opinion, the algorithm design and method developments papers are equally worthy of getting cited

  1. Neese,F.
     An improvement of the resolution of the identity approximation for the formation of the Coulomb matrix
     J. Comp. Chem., 2003 24(14)1740-1747
     doi.org/10.1002/jcc.10318
  2. Neese,F.; Wennmohs,F.; Hansen,A.; Becker,U.
     Efficient, approximate and parallel Hartree-Fock and hybrid DFT calculations. A 'chain-of-spheres' algorithm for the Hartree-Fock exchange
     Chem. Phys., 2009 356(1-3)98-109
     doi.org/10.1016/j.chemphys.2008.10.036
  3. Stoychev,G.L.; Auer,A.A.; Izsak,R.; Neese,F.
     Self-Consistent Field Calculation of Nuclear Magnetic Resonance Chemical Shielding Constants Using Gauge-Including Atomic Orbitals and Approximate Two-Electron Integrals
     J. Chem. Theory Comput., 2018 14(2)619-637
     doi.org/10.1021/acs.jctc.7b01006
  4. Garcia-Rates,M.; Neese,F.
     Effect of the Solute Cavity on the Solvation Energy and its Derivatives within the Framework of the Gaussian Charge Scheme
     J. Comput. Chem., 2020 41 922-939
     doi.org/10.1002/jcc.26139
  5. Helmich-Paris,B.; de Souza,B.; Neese,F.; Izsák,R.
     An improved chain of spheres for exchange algorithm
     J. Chem. Phys., 2021 155 104109
     doi.org/doi: 10.1063/5.0058766.
  6. Neese,F.
     The SHARK Integral Generation and Digestion System
     J. Comp. Chem., 2022  1-16
     doi.org/10.1002/jcc.26942
  7. Caldeweyher,E.; Bannwarth,C.; Grimme,S.
     Extension of the D3 dispersion coefficient model
     J. Chem. Phys., 2017 147 034112-XXXX
     doi.org/10.1063/1.4993215
  8. Caldeweyher,E.; Ehlert,S.; Hansen,A.; Neugebauer,H.; Spicher,S.; Bannwarth,C.; Grimme,S.
     A generally applicable atomic-charge dependent London dispersion correction
     J. Chem. Phys., 2019 150 154122-XXXX
     doi.org/10.1063/1.5090222
  9. Caldeweyher,E.; Mewes,J.; Ehlert,S.; Grimme,S.
     Extension and evaluation of the D4 London-dispersion model for periodic systems
     Phys. Chem. Chem. Phys., 2020 22(16)8499-8512
     doi.org/10.1039/D0CP00502A

List of suggested additional citations. These are papers that are important in the 'surrounding' of 
of this run, or papers that preceded the highly important papers. If you like your results we are grateful for a citation.

  1. Izsak,R.; Neese,F.
     An overlap fitted chain of spheres exchange method
     J. Chem. Phys., 2011 135 144105
     doi.org/10.1063/1.3646921
  2. Izsak,R.; Hansen,A.; Neese,F.
     The resolution of identity and chain of spheres approximations for the LPNO-CCSD singles Fock term
     Molec. Phys., 2012 110 2413-2417
     doi.org/10.1080/00268976.2012.687466
  3. Neese,F.
     The ORCA program system
     WIRES Comput. Molec. Sci., 2012 2(1)73-78
     doi.org/10.1002/wcms.81
  4. Izsak,R.; Neese,F.; Klopper,W.
     Robust fitting techniques in the chain of spheres approximation to the Fock exchange: The role of the complementary space
     J. Chem. Phys., 2013 139 
     doi.org/10.1063/1.4819264
  5. Neese,F.
     Software update: the ORCA program system, version 4.0
     WIRES Comput. Molec. Sci., 2018 8(1)1-6
     doi.org/10.1002/wcms.1327
  6. Neese,F.; Wennmohs,F.; Becker,U.; Riplinger,C.
     The ORCA quantum chemistry program package
     J. Chem. Phys., 2020 152 Art. No. L224108
     doi.org/10.1063/5.0004608

Timings for individual modules:

Sum of individual times          ...      180.105 sec (=   3.002 min)
Startup calculation              ...        4.649 sec (=   0.077 min)   2.6 %
SCF iterations                   ...       73.100 sec (=   1.218 min)  40.6 %
Property integrals               ...       61.614 sec (=   1.027 min)  34.2 %
SCF Response                     ...       39.317 sec (=   0.655 min)  21.8 %
Property calculations            ...        1.426 sec (=   0.024 min)   0.8 %
                             ****ORCA TERMINATED NORMALLY****
TOTAL RUN TIME: 0 days 0 hours 3 minutes 0 seconds 399 msec
