
                                 *****************
                                 * O   R   C   A *
                                 *****************

                                            #,                                       
                                            ###                                      
                                            ####                                     
                                            #####                                    
                                            ######                                   
                                           ########,                                 
                                     ,,################,,,,,                         
                               ,,#################################,,                 
                          ,,##########################################,,             
                       ,#########################################, ''#####,          
                    ,#############################################,,   '####,        
                  ,##################################################,,,,####,       
                ,###########''''           ''''###############################       
              ,#####''   ,,,,##########,,,,          '''####'''          '####       
            ,##' ,,,,###########################,,,                        '##       
           ' ,,###''''                  '''############,,,                           
         ,,##''                                '''############,,,,        ,,,,,,###''
      ,#''                                            '''#######################'''  
     '                                                          ''''####''''         
             ,#######,   #######,   ,#######,      ##                                
            ,#'     '#,  ##    ##  ,#'     '#,    #''#        ,####,   ,####,        
            ##       ##  ##   ,#'  ##            #'  '#       #'       #'  '#        
            ##       ##  #######   ##           ,######,      #####,   #    #        
            '#,     ,#'  ##    ##  '#,     ,#' ,#      #,     #,   #   #,  ,#        
             '#######'   ##     ##  '#######'  #'      '#     '####' # '####'        



                #########################################################
                #                        -***-                          #
                #          Department of theory and spectroscopy        #
                #                                                       #
                #                      Frank Neese                      #
                #                                                       #
                #     Directorship, Architecture, Infrastructure        #
                #                    SHARK, DRIVERS                     #
                #        Core code/Algorithms in most modules           #
                #                                                       #
                #        Max Planck Institute fuer Kohlenforschung      #
                #                Kaiser Wilhelm Platz 1                 #
                #                 D-45470 Muelheim/Ruhr                 #
                #                      Germany                          #
                #                                                       #
                #                  All rights reserved                  #
                #                        -***-                          #
                #########################################################


                         Program Version 6.0.0  -   RELEASE  -


 With contributions from (in alphabetic order):
   Daniel Aravena         : Magnetic Suceptibility
   Michael Atanasov       : Ab Initio Ligand Field Theory (pilot matlab implementation)
   Alexander A. Auer      : GIAO ZORA, VPT2 properties, NMR spectrum
   Ute Becker             : All parallelization in ORCA, NUMFREQ, NUMCALC
   Giovanni Bistoni       : ED, misc. LED, open-shell LED, HFLD
   Martin Brehm           : Molecular dynamics
   Dmytro Bykov           : pre 5.0 version of the SCF Hessian
   Marcos Casanova-Páez   : Triplet and SCS-CIS(D). UHF-(DLPNO)-IP/EA/STEOM-CCSD. UHF-CVS-IP/STEOM-CCSD
   Vijay G. Chilkuri      : MRCI spin determinant printing, contributions to CSF-ICE
   Pauline Colinet        : FMM embedding
   Dipayan Datta          : RHF DLPNO-CCSD density
   Achintya Kumar Dutta   : EOM-CC, STEOM-CC
   Nicolas Foglia         : Exact transition moments, OPA infrastructure, MCD improvements
   Dmitry Ganyushin       : Spin-Orbit,Spin-Spin,Magnetic field MRCI
   Miquel Garcia          : C-PCM and meta-GGA Hessian, CCSD/C-PCM, Gaussian charge scheme
   Tiago L. C. Gouveia    : GS-ROHF, GS-ROCIS
   Yang Guo               : DLPNO-NEVPT2, F12-NEVPT2, CIM, IAO-localization
   Andreas Hansen         : Spin unrestricted coupled pair/coupled cluster methods
   Ingolf Harden          : AUTO-CI MPn and infrastructure 
   Benjamin Helmich-Paris : MC-RPA, TRAH-(SCF,CASSCF), AVAS, COSX integrals, SCF dyn. polar.
   Lee Huntington         : MR-EOM, pCC
   Robert Izsak           : Overlap fitted RIJCOSX, COSX-SCS-MP3, EOM
   Riya Kayal             : Wick's Theorem for AUTO-CI, AUTO-CI UHF-CCSDT
   Emily Kempfer          : AUTO-CI, RHF CISDT and CCSDT
   Christian Kollmar      : KDIIS, OOCD, Brueckner-CCSD(T), CCSD density, CASPT2, CASPT2-K, improved NEVPT2
   Axel Koslowski         : Symmetry handling
   Simone Kossmann        : Meta GGA functionals, TD-DFT gradient, OOMP2, (MP2 Hessian; deprecated post 5.0)
   Lucas Lang             : DCDCAS
   Marvin Lechner         : AUTO-CI (C++ implementation), FIC-MRCC
   Spencer Leger          : CASSCF response
   Dagmar Lenk            : GEPOL surface, SMD, ORCA-2-JSON
   Dimitrios Liakos       : Extrapolation schemes; Compound Job, initial MDCI parallelization
   Dimitrios Manganas     : Further ROCIS development; embedding schemes. LFT, Crystal Embedding
   Dimitrios Pantazis     : SARC Basis sets
   Anastasios Papadopoulos: AUTO-CI, single reference methods and gradients
   Taras Petrenko         : pre 6.0 DFT Hessian and TD-DFT gradient, (ASA, deprecated), ECA, 1-Electron XAS/XES, NRVS
   Peter Pinski           : DLPNO-MP2, DLPNO-MP2 Gradient
   Christoph Reimann      : Effective Core Potentials
   Marius Retegan         : Local ZFS, SOC
   Christoph Riplinger    : Optimizer, TS searches, QM/MM, DLPNO-CCSD(T), (RO)-DLPNO pert. Triples
   Michael Roemelt        : Original ROCIS implementation
   Masaaki Saitow         : Open-shell DLPNO-CCSD energy and density
   Barbara Sandhoefer     : DKH picture change effects
   Kantharuban Sivalingam : CASSCF convergence/infrastructure, NEVPT2 and variants, FIC-MRCI
   Bernardo de Souza      : ESD, SOC TD-DFT
   Georgi Stoychev        : AutoAux, RI-MP2 NMR, DLPNO-MP2 response, X2C
   Van Anh Tran           : RI-MP2 g-tensors
   Willem Van den Heuvel  : Paramagnetic NMR
   Zikuan Wang            : NOTCH, Electric field optimization 
   Frank Wennmohs         : Technical directorship and infrastructure
   Hang Xu                : AUTO-CI-Response properties 


 We gratefully acknowledge several colleagues who have allowed us to
 interface, adapt or use parts of their codes:
   Stefan Grimme, W. Hujo, H. Kruse, P. Pracht,  : VdW corrections, initial TS optimization,
                  C. Bannwarth, S. Ehlert,         DFT functionals, gCP, sTDA/sTD-DF
                  L. Wittmann, M. Mueller
   Ed Valeev, F. Pavosevic, A. Kumar             : LibInt (2-el integral package), F12 methods
   Garnet Chan, S. Sharma, J. Yang, R. Olivares  : DMRG
   Ulf Ekstrom                                   : XCFun DFT Library
   Mihaly Kallay                                 : mrcc  (arbitrary order and MRCC methods)
   Frank Weinhold                                : gennbo (NPA and NBO analysis)
   Simon Mueller                                 : openCOSMO-RS
   Christopher J. Cramer and Donald G. Truhlar   : smd solvation model
   Lars Goerigk                                  : TD-DFT with DH, B97 family of functionals
   V. Asgeirsson, H. Jonsson                     : NEB implementation
   FAccTs GmbH                                   : IRC, NEB, NEB-TS, DLPNO-Multilevel, CI-OPT
                                                   MM, QMMM, 2- and 3-layer-ONIOM, Crystal-QMMM,
                                                   LR-CPCM, SF, NACMEs, symmetry and pop. for TD-DFT,
                                                   nearIR, NL-DFT gradient (VV10), updates on ESD,
                                                   ML-optimized integration grids, MBIS, APM,
                                                   GOAT, DOCKER, SOLVATOR, interface openCOSMO-RS
   S Lehtola, MJT Oliveira, MAL Marques          : LibXC Library
   Liviu Ungur et al                             : ANISO software


 Your calculation uses the libint2 library for the computation of 2-el integrals
 For citations please refer to: http://libint.valeyev.net

 Your ORCA version has been built with support for libXC version: 6.2.2
 For citations please refer to: https://libxc.gitlab.io

 This ORCA versions uses:
   CBLAS   interface :  Fast vector & matrix operations
   LAPACKE interface :  Fast linear algebra routines
   SCALAPACK package :  Parallel linear algebra routines
   Shared memory     :  Shared parallel matrices
   BLAS/LAPACK       :  OpenBLAS 0.3.27  USE64BITINT DYNAMIC_ARCH NO_AFFINITY Zen SINGLE_THREADED
        Core in use  :  Zen
   Copyright (c) 2011-2014, The OpenBLAS Project


NOTE: MaxCore=8000 MB was set to SCF,MP2,MDCI,CIPSI,MRCI and CIS
      => If you want to overwrite this, your respective input block should be placed after the MaxCore statement
Your calculation utilizes the atom-pairwise dispersion correction
based on EEQ partial charges (D4)


================================================================================

----- Orbital basis set information -----
Your calculation utilizes the basis: def2-SVP
   F. Weigend and R. Ahlrichs, Phys. Chem. Chem. Phys. 7, 3297 (2005).

----- AuxJ basis set information -----
Your calculation utilizes the auxiliary basis: def2/J
   F. Weigend, Phys. Chem. Chem. Phys. 8, 1057 (2006).

================================================================================
                                        WARNINGS
                       Please study these warnings very carefully!
================================================================================

WARNING: Old DensityContainer found on disk!
         Will remove this file - 
         If you want to keep old densities, please start your calculation with a different basename. 


================================================================================
                                       INPUT FILE
================================================================================
NAME = inpS
|  1> ! wb97x-d4
|  2> ! def2-svp
|  3> ! def2/J RIJCOSX
|  4> ! DEFGRID2
|  5> ! scfconv7
|  6> ! smallprint printgap noloewdin
|  7> ! NOSOSCF
|  8> %MaxCore 8000
|  9> %output
| 10>        print[P_BondOrder_M] 1
| 11>        print[P_Mayer] 1
| 12>        print[P_basis] 2
| 13> end
| 14> %pal
| 15>     nprocs 4
| 16> end
| 17> ! CPCM(chloroform)
| 18> *xyz 0 1
| 19> C   -4.9869763600   0.3541546200   0.2859717200
| 20> C   -6.3950427700  -0.0865285800  -0.0383126900
| 21> C   -6.9445350600   0.6324292400  -1.2763302200
| 22> H   -7.0603906700   0.1630340100   0.8057538300
| 23> H   -6.4364847200  -1.1711388300  -0.1867449500
| 24> C   -4.8089644300   1.8204964600   0.3470291000
| 25> C   -5.4065112100   2.5744522000  -0.8194843800
| 26> C   -6.8534133400   2.1431356900  -1.0952447900
| 27> H   -4.8041619800   2.3614017400  -1.7157749900
| 28> H   -5.3526231900   3.6533260800  -0.6396425300
| 29> H   -7.2357299800   2.6469206500  -1.9907669900
| 30> H   -7.4933623700   2.4354856100  -0.2489415800
| 31> O   -8.2826400300   0.2100020200  -1.5696649900
| 32> H   -6.3546622800   0.3344418500  -2.1545499700
| 33> C   -3.9964008500  -0.5535834100   0.4543277600
| 34> C   -4.2105148000   2.4460984900   1.3672161600
| 35> H   -3.8090199600   1.8940606000   2.2123671900
| 36> H   -4.1191983500   3.5295822500   1.3831113700
| 37> C   -2.5964834200  -0.2670639900   0.6662046100
| 38> H   -4.2863977100  -1.6006869900   0.3786819200
| 39> C   -1.6226894600  -1.1680113300   0.9184606200
| 40> H   -2.3109213600   0.7804665800   0.6015354500
| 41> C   -1.8227732400  -2.6517437600   1.0990459200
| 42> C   -0.8848369500  -3.4754448300   0.1966395600
| 43> H   -2.8602753200  -2.9541985900   0.9322256100
| 44> H   -1.5883984500  -2.8950720200   2.1479770200
| 45> C    0.5812260700  -3.0351305100   0.3075878900
| 46> H   -1.2198163600  -3.3886281800  -0.8446307500
| 47> H   -0.9704860800  -4.5361545900   0.4628870500
| 48> C    0.7445586300  -1.5292949600   0.0579143900
| 49> H    1.1831041400  -3.6235328900  -0.3928439700
| 50> H    0.9523255300  -3.2615717200   1.3185589300
| 51> C   -0.1826980000  -0.7845274300   1.0703906000
| 52> H    0.1348151000  -1.1595991100   2.0612967200
| 53> C    0.2581432400   0.6731228800   0.9796615500
| 54> H   -8.8378700600   0.4597392000  -0.8189377500
| 55> C    1.7878139500   0.5767045600   0.7574298800
| 56> H   -0.0067021600   1.2406905000   1.8780333400
| 57> H   -0.2216003400   1.1715253800   0.1298482500
| 58> C    2.1149966400  -0.9169295100   0.4583940800
| 59> H    2.3516213000   0.9283598000   1.6271936100
| 60> H    2.1014314600   1.2031193900  -0.0860570000
| 61> H    2.4092610700  -1.4085699800   1.4002387700
| 62> C    3.3050364800  -1.0493192100  -0.5140900200
| 63> C    0.3813243400  -1.1680083500  -1.3883111500
| 64> H   -0.6839722300  -1.3262606700  -1.5822209800
| 65> H    0.9486670800  -1.7834493100  -2.0950998100
| 66> H    0.6008297100  -0.1188432000  -1.6107268500
| 67> H    3.0479894700  -0.5227768200  -1.4452901000
| 68> C    3.6632893200  -2.5037142500  -0.8528893300
| 69> C    4.5091557800  -0.3704127000   0.0838349100
| 70> C    5.1231037800   0.6906415800  -0.4388485300
| 71> H    4.8783116100  -0.8163121300   1.0107174800
| 72> H    4.7211665100   1.1021375300  -1.3664902400
| 73> C    6.3145023400   1.4165823000   0.1361224900
| 74> C    7.1028584700   0.5674862500   1.1369143300
| 75> C    5.8859717700   2.7787603000   0.7509301700
| 76> H    6.9820699300   1.6570656300  -0.7091154100
| 77> H    5.2465782800   2.5460978600   1.6176652200
| 78> C    5.0686225300   3.6224513200  -0.2321407800
| 79> C    7.0926016100   3.5854412500   1.2396391800
| 80> H    7.3026279200  -0.4282508300   0.7279720300
| 81> H    6.5480354000   0.4430347300   2.0746334400
| 82> H    8.0638847900   1.0294442000   1.3767115000
| 83> H    4.8333893900   4.5985949100   0.2058270000
| 84> H    4.1238706700   3.1406611100  -0.5004567400
| 85> H    5.6357980500   3.7983831100  -1.1556159300
| 86> H    7.7962220900   3.7600077500   0.4150276800
| 87> H    7.6333803100   3.0827289000   2.0462272400
| 88> H    6.7706172000   4.5627765400   1.6156733100
| 89> H    4.5937260300  -2.5390315100  -1.4298018100
| 90> H    2.8828391800  -2.9862268000  -1.4466223600
| 91> H    3.8091131000  -3.0924403800   0.0611515800
| 92> *
| 93> %eprnmr
| 94>  Nuclei = all C { shift }
| 95>  origin giao
| 96>  giao_2el giao_2el_same_as_scf
| 97>  giao_1el giao_1el_analytic
| 98> end
| 99> 
|100>                          ****END OF INPUT****
================================================================================

                       ****************************
                       * Single Point Calculation *
                       ****************************

---------------------------------
CARTESIAN COORDINATES (ANGSTROEM)
---------------------------------
  C     -4.986976    0.354155    0.285972
  C     -6.395043   -0.086529   -0.038313
  C     -6.944535    0.632429   -1.276330
  H     -7.060391    0.163034    0.805754
  H     -6.436485   -1.171139   -0.186745
  C     -4.808964    1.820496    0.347029
  C     -5.406511    2.574452   -0.819484
  C     -6.853413    2.143136   -1.095245
  H     -4.804162    2.361402   -1.715775
  H     -5.352623    3.653326   -0.639643
  H     -7.235730    2.646921   -1.990767
  H     -7.493362    2.435486   -0.248942
  O     -8.282640    0.210002   -1.569665
  H     -6.354662    0.334442   -2.154550
  C     -3.996401   -0.553583    0.454328
  C     -4.210515    2.446098    1.367216
  H     -3.809020    1.894061    2.212367
  H     -4.119198    3.529582    1.383111
  C     -2.596483   -0.267064    0.666205
  H     -4.286398   -1.600687    0.378682
  C     -1.622689   -1.168011    0.918461
  H     -2.310921    0.780467    0.601535
  C     -1.822773   -2.651744    1.099046
  C     -0.884837   -3.475445    0.196640
  H     -2.860275   -2.954199    0.932226
  H     -1.588398   -2.895072    2.147977
  C      0.581226   -3.035131    0.307588
  H     -1.219816   -3.388628   -0.844631
  H     -0.970486   -4.536155    0.462887
  C      0.744559   -1.529295    0.057914
  H      1.183104   -3.623533   -0.392844
  H      0.952326   -3.261572    1.318559
  C     -0.182698   -0.784527    1.070391
  H      0.134815   -1.159599    2.061297
  C      0.258143    0.673123    0.979662
  H     -8.837870    0.459739   -0.818938
  C      1.787814    0.576705    0.757430
  H     -0.006702    1.240690    1.878033
  H     -0.221600    1.171525    0.129848
  C      2.114997   -0.916930    0.458394
  H      2.351621    0.928360    1.627194
  H      2.101431    1.203119   -0.086057
  H      2.409261   -1.408570    1.400239
  C      3.305036   -1.049319   -0.514090
  C      0.381324   -1.168008   -1.388311
  H     -0.683972   -1.326261   -1.582221
  H      0.948667   -1.783449   -2.095100
  H      0.600830   -0.118843   -1.610727
  H      3.047989   -0.522777   -1.445290
  C      3.663289   -2.503714   -0.852889
  C      4.509156   -0.370413    0.083835
  C      5.123104    0.690642   -0.438849
  H      4.878312   -0.816312    1.010717
  H      4.721167    1.102138   -1.366490
  C      6.314502    1.416582    0.136122
  C      7.102858    0.567486    1.136914
  C      5.885972    2.778760    0.750930
  H      6.982070    1.657066   -0.709115
  H      5.246578    2.546098    1.617665
  C      5.068623    3.622451   -0.232141
  C      7.092602    3.585441    1.239639
  H      7.302628   -0.428251    0.727972
  H      6.548035    0.443035    2.074633
  H      8.063885    1.029444    1.376712
  H      4.833389    4.598595    0.205827
  H      4.123871    3.140661   -0.500457
  H      5.635798    3.798383   -1.155616
  H      7.796222    3.760008    0.415028
  H      7.633380    3.082729    2.046227
  H      6.770617    4.562777    1.615673
  H      4.593726   -2.539032   -1.429802
  H      2.882839   -2.986227   -1.446622
  H      3.809113   -3.092440    0.061152

----------------------------
CARTESIAN COORDINATES (A.U.)
----------------------------
  NO LB      ZA    FRAG     MASS         X           Y           Z
   0 C     6.0000    0    12.011   -9.424020    0.669255    0.540408
   1 C     6.0000    0    12.011  -12.084879   -0.163515   -0.072400
   2 C     6.0000    0    12.011  -13.123269    1.195118   -2.411915
   3 H     1.0000    0     1.008  -13.342205    0.308090    1.522654
   4 H     1.0000    0     1.008  -12.163193   -2.213132   -0.352897
   5 C     6.0000    0    12.011   -9.087626    3.440240    0.655790
   6 C     6.0000    0    12.011  -10.216826    4.865010   -1.548601
   7 C     6.0000    0    12.011  -12.951074    4.049940   -2.069713
   8 H     1.0000    0     1.008   -9.078550    4.462403   -3.242345
   9 H     1.0000    0     1.008  -10.114992    6.903786   -1.208749
  10 H     1.0000    0     1.008  -13.673548    5.001955   -3.762004
  11 H     1.0000    0     1.008  -14.160403    4.602401   -0.470431
  12 O     8.0000    0    15.999  -15.651921    0.396846   -2.966237
  13 H     1.0000    0     1.008  -12.008571    0.632004   -4.071509
  14 C     6.0000    0    12.011   -7.552103   -1.046121    0.858555
  15 C     6.0000    0    12.011   -7.956720    4.622456    2.583664
  16 H     1.0000    0     1.008   -7.198005    3.579256    4.180768
  17 H     1.0000    0     1.008   -7.784157    6.669944    2.613702
  18 C     6.0000    0    12.011   -4.906643   -0.504678    1.258944
  19 H     1.0000    0     1.008   -8.100118   -3.024860    0.715605
  20 C     6.0000    0    12.011   -3.066439   -2.207222    1.735639
  21 H     1.0000    0     1.008   -4.367008    1.474868    1.136737
  22 C     6.0000    0    12.011   -3.444542   -5.011069    2.076896
  23 C     6.0000    0    12.011   -1.672100   -6.567639    0.371595
  24 H     1.0000    0     1.008   -5.405137   -5.582626    1.761651
  25 H     1.0000    0     1.008   -3.001638   -5.470893    4.059088
  26 C     6.0000    0    12.011    1.098358   -5.735565    0.581257
  27 H     1.0000    0     1.008   -2.305119   -6.403579   -1.596121
  28 H     1.0000    0     1.008   -1.833953   -8.572090    0.874730
  29 C     6.0000    0    12.011    1.407012   -2.889949    0.109442
  30 H     1.0000    0     1.008    2.235743   -6.847485   -0.742368
  31 H     1.0000    0     1.008    1.799634   -6.163477    2.491715
  32 C     6.0000    0    12.011   -0.345249   -1.482542    2.022745
  33 H     1.0000    0     1.008    0.254764   -2.191325    3.895286
  34 C     6.0000    0    12.011    0.487820    1.272018    1.851292
  35 H     1.0000    0     1.008  -16.701154    0.868781   -1.547568
  36 C     6.0000    0    12.011    3.378479    1.089814    1.431335
  37 H     1.0000    0     1.008   -0.012665    2.344565    3.548969
  38 H     1.0000    0     1.008   -0.418764    2.213862    0.245378
  39 C     6.0000    0    12.011    3.996764   -1.732746    0.866239
  40 H     1.0000    0     1.008    4.443920    1.754346    3.074950
  41 H     1.0000    0     1.008    3.971130    2.273566   -0.162624
  42 H     1.0000    0     1.008    4.552844   -2.661812    2.646068
  43 C     6.0000    0    12.011    6.245614   -1.982926   -0.971489
  44 C     6.0000    0    12.011    0.720599   -2.207216   -2.623528
  45 H     1.0000    0     1.008   -1.292520   -2.506269   -2.989964
  46 H     1.0000    0     1.008    1.792721   -3.370231   -3.959165
  47 H     1.0000    0     1.008    1.135404   -0.224581   -3.043833
  48 H     1.0000    0     1.008    5.759865   -0.987905   -2.731202
  49 C     6.0000    0    12.011    6.922614   -4.731334   -1.611727
  50 C     6.0000    0    12.011    8.521070   -0.699979    0.158425
  51 C     6.0000    0    12.011    9.681263    1.305123   -0.829304
  52 H     1.0000    0     1.008    9.218673   -1.542606    1.909979
  53 H     1.0000    0     1.008    8.921712    2.082738   -2.582292
  54 C     6.0000    0    12.011   11.932680    2.676953    0.257234
  55 C     6.0000    0    12.011   13.422457    1.072394    2.148457
  56 C     6.0000    0    12.011   11.122875    5.251096    1.419052
  57 H     1.0000    0     1.008   13.194200    3.131400   -1.340034
  58 H     1.0000    0     1.008    9.914596    4.811428    3.056944
  59 C     6.0000    0    12.011    9.578308    6.845441   -0.438682
  60 C     6.0000    0    12.011   13.403075    6.775502    2.342579
  61 H     1.0000    0     1.008   13.799967   -0.809277    1.375668
  62 H     1.0000    0     1.008   12.373994    0.837214    3.920489
  63 H     1.0000    0     1.008   15.238534    1.945368    2.601608
  64 H     1.0000    0     1.008    9.133782    8.690085    0.388957
  65 H     1.0000    0     1.008    7.792986    5.934989   -0.945726
  66 H     1.0000    0     1.008   10.650115    7.177904   -2.183798
  67 H     1.0000    0     1.008   14.732725    7.105385    0.784289
  68 H     1.0000    0     1.008   14.424998    5.825513    3.866809
  69 H     1.0000    0     1.008   12.794612    8.622398    3.053180
  70 H     1.0000    0     1.008    8.680884   -4.798074   -2.701934
  71 H     1.0000    0     1.008    5.447777   -5.643151   -2.733720
  72 H     1.0000    0     1.008    7.198181   -5.843865    0.115560

--------------------------------
INTERNAL COORDINATES (ANGSTROEM)
--------------------------------
 C      0   0   0     0.000000000000     0.00000000     0.00000000
 C      1   0   0     1.510633336155     0.00000000     0.00000000
 C      2   1   0     1.533469767650   111.74889685     0.00000000
 H      2   1   3     1.103366486960   109.38243893   241.47218623
 H      2   1   3     1.095503977826   110.68110981   122.90801995
 C      1   2   3     1.478368912893   114.23304260    50.33446367
 C      6   1   2     1.512040049466   114.52750465   312.35335507
 C      3   2   1     1.524247053101   110.32493043   304.95843270
 H      7   6   1     1.100705206203   108.38674555   289.67492226
 H      7   6   1     1.095087146604   110.18836582   172.53030010
 H      8   3   2     1.096323542498   109.72763457   179.22631583
 H      8   3   2     1.100560021070   108.65523605   296.68647769
 O      3   2   1     1.433532334559   111.19365646   180.25734560
 H      3   2   1     1.099097953084   109.00564725    65.06017540
 C      1   2   3     1.354094504946   120.86400492   232.37631194
 C      6   1   2     1.338021485993   123.30524540   130.16846608
 H     16   6   1     1.086381241578   121.39031233     0.66642611
 H     16   6   1     1.087441221366   120.96800689   181.34707235
 C     15   1   2     1.444560136658   126.45608691   175.02939131
 H     15   1   2     1.089149383312   116.17223819   357.81930783
 C     19  15   1     1.350412485342   126.43380981   175.48221406
 H     19  15   1     1.087680139311   115.89545290   354.69993336
 C     21  19  15     1.508014089267   125.66989357   356.63159449
 C     23  21  19     1.540306844556   112.03690369   128.39083431
 H     23  21  19     1.093489143075   112.31885367     4.11321793
 H     23  21  19     1.101996659182   107.63887615   247.05710635
 C     24  23  21     1.534772625159   112.69936822    50.39504833
 H     24  23  21     1.097265781080   109.13261963   288.22973777
 H     24  23  21     1.096963397001   109.10803268   172.30468789
 C     27  24  23     1.535107515910   111.79575912   306.35488226
 H     27  24  23     1.095024822750   108.94386950   182.82392565
 H     27  24  23     1.100478475263   109.23825536    66.30871945
 C     21  19  15     1.497904544774   122.77708950   177.42960500
 H     33  21  19     1.106068837127   106.26130696   123.79877264
 C     33  21  19     1.525554714077   121.09004521     1.52812690
 H     13   3   2     0.966561138349   107.52553648    62.61577592
 C     35  33  21     1.548733640306   103.55997201   196.56414660
 H     35  33  21     1.095147461414   112.11818506    74.57350678
 H     35  33  21     1.095783555003   110.74443290   314.97199155
 C     30  27  24     1.553536535042   116.01395777   166.53954109
 H     37  35  33     1.094545148341   112.00826941   249.15543684
 H     37  35  33     1.096458662492   110.93606205   130.56974112
 H     40  30  27     1.102439715625   106.25486214   321.02914494
 C     40  30  27     1.542545681076   118.96027468    81.81585591
 C     30  27  24     1.534286634415   111.04514308   294.55092806
 H     45  30  27     1.094304162932   111.31190286    66.46934248
 H     45  30  27     1.095534376358   110.68556497   306.37943116
 H     45  30  27     1.094714055377   111.69824335   186.42072700
 H     44  40  30     1.100206181954   108.19655265    62.26350921
 C     44  40  30     1.535706678439   113.59929035   301.44164722
 C     44  40  30     1.506098124250   109.13644775   179.40632628
 C     51  44  40     1.332653859883   124.85614093   243.41054506
 H     51  44  40     1.092800817655   115.01602269    63.81955487
 H     52  51  44     1.091513457550   117.63552094     0.32873246
 C     52  51  44     1.508977180598   126.67870187   178.85892099
 C     55  52  51     1.531030305659   112.88089135    20.30612540
 C     55  52  51     1.554720501085   110.76635550   254.23632255
 H     55  52  51     1.103587706901   106.89371958   138.98138807
 H     57  55  52     1.101900854406   106.61818172    66.21124166
 C     57  55  52     1.531764606619   112.07797357   308.05693957
 C     57  55  52     1.531511091154   111.74749991   184.61360951
 H     56  55  52     1.094821433097   110.74398495    48.26764930
 H     56  55  52     1.096646683802   111.18416521   288.22971847
 H     56  55  52     1.092922420870   111.20976732   168.12837028
 H     60  57  55     1.095448179865   110.41401939   183.42746534
 H     60  57  55     1.093924740472   112.06565117    63.28833108
 H     60  57  55     1.097928238952   110.63557369   302.58724806
 H     61  57  55     1.097970568244   110.42512608    57.81551990
 H     61  57  55     1.093501535322   112.51090334   296.97914489
 H     61  57  55     1.095563734471   110.35610973   176.79518683
 H     50  44  40     1.095348250443   110.17520181   187.85542770
 H     50  44  40     1.092904246879   111.80092811    67.96485541
 H     50  44  40     1.096965731512   110.82133169   307.29613312

---------------------------
INTERNAL COORDINATES (A.U.)
---------------------------
 C      0   0   0     0.000000000000     0.00000000     0.00000000
 C      1   0   0     2.854683294104     0.00000000     0.00000000
 C      2   1   0     2.897837895506   111.74889685     0.00000000
 H      2   1   3     2.085060485702   109.38243893   241.47218623
 H      2   1   3     2.070202496713   110.68110981   122.90801995
 C      1   2   3     2.793712370271   114.23304260    50.33446367
 C      6   1   2     2.857341597011   114.52750465   312.35335507
 C      3   2   1     2.880409490797   110.32493043   304.95843270
 H      7   6   1     2.080031393905   108.38674555   289.67492226
 H      7   6   1     2.069414799859   110.18836582   172.53030010
 H      8   3   2     2.071751249492   109.72763457   179.22631583
 H      8   3   2     2.079757033765   108.65523605   296.68647769
 O      3   2   1     2.708983516438   111.19365646   180.25734560
 H      3   2   1     2.076994125683   109.00564725    65.06017540
 C      1   2   3     2.558867773795   120.86400492   232.37631194
 C      6   1   2     2.528494169829   123.30524540   130.16846608
 H     16   6   1     2.052963023612   121.39031233     0.66642611
 H     16   6   1     2.054966095118   120.96800689   181.34707235
 C     15   1   2     2.729823042263   126.45608691   175.02939131
 H     15   1   2     2.058194053388   116.17223819   357.81930783
 C     19  15   1     2.551909765124   126.43380981   175.48221406
 H     19  15   1     2.055417584603   115.89545290   354.69993336
 C     21  19  15     2.849733634810   125.66989357   356.63159449
 C     23  21  19     2.910758098416   112.03690369   128.39083431
 H     23  21  19     2.066395010828   112.31885367     4.11321793
 H     23  21  19     2.082471886351   107.63887615   247.05710635
 C     24  23  21     2.900299939390   112.69936822    50.39504833
 H     24  23  21     2.073531822364   109.13261963   288.22973777
 H     24  23  21     2.072960399268   109.10803268   172.30468789
 C     27  24  23     2.900932791193   111.79575912   306.35488226
 H     27  24  23     2.069297024844   108.94386950   182.82392565
 H     27  24  23     2.079602934522   109.23825536    66.30871945
 C     21  19  15     2.830629364379   122.77708950   177.42960500
 H     33  21  19     2.090167187434   106.26130696   123.79877264
 C     33  21  19     2.882880611918   121.09004521     1.52812690
 H     13   3   2     1.826535843170   107.52553648    62.61577592
 C     35  33  21     2.926682434569   103.55997201   196.56414660
 H     35  33  21     2.069528778331   112.11818506    74.57350678
 H     35  33  21     2.070730821010   110.74443290   314.97199155
 C     30  27  24     2.935758590270   116.01395777   166.53954109
 H     37  35  33     2.068390571577   112.00826941   249.15543684
 H     37  35  33     2.072006589276   110.93606205   130.56974112
 H     40  30  27     2.083309141688   106.25486214   321.02914494
 C     40  30  27     2.914988886297   118.96027468    81.81585591
 C     30  27  24     2.899381549981   111.04514308   294.55092806
 H     45  30  27     2.067935175151   111.31190286    66.46934248
 H     45  30  27     2.070259941612   110.68556497   306.37943116
 H     45  30  27     2.068709759617   111.69824335   186.42072700
 H     44  40  30     2.079088374739   108.19655265    62.26350921
 C     44  40  30     2.902065044283   113.59929035   301.44164722
 C     44  40  30     2.846112985644   109.13644775   179.40632628
 C     51  44  40     2.518350826492   124.85614093   243.41054506
 H     51  44  40     2.065094264293   115.01602269    63.81955487
 H     52  51  44     2.062661506259   117.63552094     0.32873246
 C     52  51  44     2.851553613666   126.67870187   178.85892099
 C     55  52  51     2.893227980428   112.88089135    20.30612540
 C     55  52  51     2.937995961844   110.76635550   254.23632255
 H     55  52  51     2.085478530805   106.89371958   138.98138807
 H     57  55  52     2.082290841560   106.61818172    66.21124166
 C     57  55  52     2.894615608144   112.07797357   308.05693957
 C     57  55  52     2.894136533343   111.74749991   184.61360951
 H     56  55  52     2.068912674101   110.74398495    48.26764930
 H     56  55  52     2.072361898059   111.18416521   288.22971847
 H     56  55  52     2.065324061067   111.20976732   168.12837028
 H     60  57  55     2.070097053848   110.41401939   183.42746534
 H     60  57  55     2.067218170612   112.06565117    63.28833108
 H     60  57  55     2.074783686317   110.63557369   302.58724806
 H     61  57  55     2.074863677087   110.42512608    57.81551990
 H     61  57  55     2.066418428780   112.51090334   296.97914489
 H     61  57  55     2.070315420406   110.35610973   176.79518683
 H     50  44  40     2.069908214608   110.17520181   187.85542770
 H     50  44  40     2.065289717201   111.80092811    67.96485541
 H     50  44  40     2.072964810854   110.82133169   307.29613312

---------------------
BASIS SET INFORMATION
---------------------
There are 3 groups of distinct atoms

 Group   1 Type C   : 7s4p1d contracted to 3s2p1d pattern {511/31/1}
 Group   2 Type H   : 4s1p contracted to 2s1p pattern {31/1}
 Group   3 Type O   : 7s4p1d contracted to 3s2p1d pattern {511/31/1}

Atom   0C    basis set group =>   1
Atom   1C    basis set group =>   1
Atom   2C    basis set group =>   1
Atom   3H    basis set group =>   2
Atom   4H    basis set group =>   2
Atom   5C    basis set group =>   1
Atom   6C    basis set group =>   1
Atom   7C    basis set group =>   1
Atom   8H    basis set group =>   2
Atom   9H    basis set group =>   2
Atom  10H    basis set group =>   2
Atom  11H    basis set group =>   2
Atom  12O    basis set group =>   3
Atom  13H    basis set group =>   2
Atom  14C    basis set group =>   1
Atom  15C    basis set group =>   1
Atom  16H    basis set group =>   2
Atom  17H    basis set group =>   2
Atom  18C    basis set group =>   1
Atom  19H    basis set group =>   2
Atom  20C    basis set group =>   1
Atom  21H    basis set group =>   2
Atom  22C    basis set group =>   1
Atom  23C    basis set group =>   1
Atom  24H    basis set group =>   2
Atom  25H    basis set group =>   2
Atom  26C    basis set group =>   1
Atom  27H    basis set group =>   2
Atom  28H    basis set group =>   2
Atom  29C    basis set group =>   1
Atom  30H    basis set group =>   2
Atom  31H    basis set group =>   2
Atom  32C    basis set group =>   1
Atom  33H    basis set group =>   2
Atom  34C    basis set group =>   1
Atom  35H    basis set group =>   2
Atom  36C    basis set group =>   1
Atom  37H    basis set group =>   2
Atom  38H    basis set group =>   2
Atom  39C    basis set group =>   1
Atom  40H    basis set group =>   2
Atom  41H    basis set group =>   2
Atom  42H    basis set group =>   2
Atom  43C    basis set group =>   1
Atom  44C    basis set group =>   1
Atom  45H    basis set group =>   2
Atom  46H    basis set group =>   2
Atom  47H    basis set group =>   2
Atom  48H    basis set group =>   2
Atom  49C    basis set group =>   1
Atom  50C    basis set group =>   1
Atom  51C    basis set group =>   1
Atom  52H    basis set group =>   2
Atom  53H    basis set group =>   2
Atom  54C    basis set group =>   1
Atom  55C    basis set group =>   1
Atom  56C    basis set group =>   1
Atom  57H    basis set group =>   2
Atom  58H    basis set group =>   2
Atom  59C    basis set group =>   1
Atom  60C    basis set group =>   1
Atom  61H    basis set group =>   2
Atom  62H    basis set group =>   2
Atom  63H    basis set group =>   2
Atom  64H    basis set group =>   2
Atom  65H    basis set group =>   2
Atom  66H    basis set group =>   2
Atom  67H    basis set group =>   2
Atom  68H    basis set group =>   2
Atom  69H    basis set group =>   2
Atom  70H    basis set group =>   2
Atom  71H    basis set group =>   2
Atom  72H    basis set group =>   2

-------------------------
BASIS SET IN INPUT FORMAT
-------------------------

 # Basis set for element : H 
 NewGTO H 
 S 3 
   1      13.0107010000      0.0334854848
   2       1.9622572000      0.2347218709
   3       0.4445379600      0.8137702853
 S 1 
   1       0.1219496200      1.0000000000
 P 1 
   1       0.8000000000      1.0000000000
  end;

 # Basis set for element : C 
 NewGTO C 
 S 5 
   1    1238.4016938000      0.0055173650
   2     186.2900499200      0.0410888285
   3      42.2511763460      0.1822538213
   4      11.6765579320      0.4682845944
   5       3.5930506482      0.4457581734
 S 1 
   1       0.4024514736      1.0000000000
 S 1 
   1       0.1309018267      1.0000000000
 P 3 
   1       9.4680970621      0.0568883320
   2       2.0103545142      0.3129405934
   3       0.5477100471      0.7606501651
 P 1 
   1       0.1526861379      1.0000000000
 D 1 
   1       0.8000000000      1.0000000000
  end;

 # Basis set for element : O 
 NewGTO O 
 S 5 
   1    2266.1767785000     -0.0053893504
   2     340.8701019100     -0.0402347214
   3      77.3631351670     -0.1800818421
   4      21.4796449400     -0.4682885766
   5       6.6589433124     -0.4469261716
 S 1 
   1       0.8097597567      1.0000000000
 S 1 
   1       0.2553077223      1.0000000000
 P 3 
   1      17.7215043170      0.0626302488
   2       3.8635505440      0.3333113849
   3       1.0480920883      0.7414863830
 P 1 
   1       0.2764154441      1.0000000000
 D 1 
   1       1.2000000000      1.0000000000
  end;

---------------------------------
AUXILIARY/J BASIS SET INFORMATION
---------------------------------
There are 3 groups of distinct atoms

 Group   1 Type C   : 12s5p4d2f1g contracted to 6s4p3d1f1g pattern {711111/2111/211/2/1}
 Group   2 Type H   : 5s2p1d contracted to 3s1p1d pattern {311/2/1}
 Group   3 Type O   : 12s5p4d2f1g contracted to 6s4p3d1f1g pattern {711111/2111/211/2/1}

Atom   0C    basis set group =>   1
Atom   1C    basis set group =>   1
Atom   2C    basis set group =>   1
Atom   3H    basis set group =>   2
Atom   4H    basis set group =>   2
Atom   5C    basis set group =>   1
Atom   6C    basis set group =>   1
Atom   7C    basis set group =>   1
Atom   8H    basis set group =>   2
Atom   9H    basis set group =>   2
Atom  10H    basis set group =>   2
Atom  11H    basis set group =>   2
Atom  12O    basis set group =>   3
Atom  13H    basis set group =>   2
Atom  14C    basis set group =>   1
Atom  15C    basis set group =>   1
Atom  16H    basis set group =>   2
Atom  17H    basis set group =>   2
Atom  18C    basis set group =>   1
Atom  19H    basis set group =>   2
Atom  20C    basis set group =>   1
Atom  21H    basis set group =>   2
Atom  22C    basis set group =>   1
Atom  23C    basis set group =>   1
Atom  24H    basis set group =>   2
Atom  25H    basis set group =>   2
Atom  26C    basis set group =>   1
Atom  27H    basis set group =>   2
Atom  28H    basis set group =>   2
Atom  29C    basis set group =>   1
Atom  30H    basis set group =>   2
Atom  31H    basis set group =>   2
Atom  32C    basis set group =>   1
Atom  33H    basis set group =>   2
Atom  34C    basis set group =>   1
Atom  35H    basis set group =>   2
Atom  36C    basis set group =>   1
Atom  37H    basis set group =>   2
Atom  38H    basis set group =>   2
Atom  39C    basis set group =>   1
Atom  40H    basis set group =>   2
Atom  41H    basis set group =>   2
Atom  42H    basis set group =>   2
Atom  43C    basis set group =>   1
Atom  44C    basis set group =>   1
Atom  45H    basis set group =>   2
Atom  46H    basis set group =>   2
Atom  47H    basis set group =>   2
Atom  48H    basis set group =>   2
Atom  49C    basis set group =>   1
Atom  50C    basis set group =>   1
Atom  51C    basis set group =>   1
Atom  52H    basis set group =>   2
Atom  53H    basis set group =>   2
Atom  54C    basis set group =>   1
Atom  55C    basis set group =>   1
Atom  56C    basis set group =>   1
Atom  57H    basis set group =>   2
Atom  58H    basis set group =>   2
Atom  59C    basis set group =>   1
Atom  60C    basis set group =>   1
Atom  61H    basis set group =>   2
Atom  62H    basis set group =>   2
Atom  63H    basis set group =>   2
Atom  64H    basis set group =>   2
Atom  65H    basis set group =>   2
Atom  66H    basis set group =>   2
Atom  67H    basis set group =>   2
Atom  68H    basis set group =>   2
Atom  69H    basis set group =>   2
Atom  70H    basis set group =>   2
Atom  71H    basis set group =>   2
Atom  72H    basis set group =>   2

-------------------------------------
AUXILIARY/J BASIS SET IN INPUT FORMAT
-------------------------------------

 # Auxiliary/J basis set for element : H 
 NewAuxJGTO H 
 S 3 
   1      15.6752927000      0.1007184237
   2       3.6063578000      0.3404257499
   3       1.2080016000      0.6491996172
 S 1 
   1       0.4726794000      1.0000000000
 S 1 
   1       0.2018100000      1.0000000000
 P 2 
   1       2.0281365000      0.5596620919
   2       0.5358730000      0.5596620919
 D 1 
   1       2.2165124000      1.0000000000
  end;

 # Auxiliary/J basis set for element : C 
 NewAuxJGTO C 
 S 7 
   1    1861.0916331000      0.0134602335
   2     642.9939764000      0.0299160374
   3     235.1105725000      0.1008649584
   4      90.7028894000      0.2370970548
   5      36.7794552000      0.3924037254
   6      15.6046273000      0.3195862154
   7       6.8907294000      0.0530104441
 S 1 
   1       3.1478850000     -1.0000000000
 S 1 
   1       1.4777287000      1.0000000000
 S 1 
   1       0.7076466000      1.0000000000
 S 1 
   1       0.3430122000      1.0000000000
 S 1 
   1       0.1669453000      1.0000000000
 P 2 
   1      13.5472892000     -0.6769313712
   2       5.4669419000     -0.3779500978
 P 1 
   1       2.1751721000      1.0000000000
 P 1 
   1       0.8582194000      1.0000000000
 P 1 
   1       0.3376720000      1.0000000000
 D 2 
   1       5.9287253000     -0.3533329857
   2       1.9809209000     -0.7456525731
 D 1 
   1       0.8055417000     -1.0000000000
 D 1 
   1       0.3531244000     -1.0000000000
 F 2 
   1       1.6755626000      0.6311076882
   2       0.5997536000      0.4968166032
 G 1 
   1       1.0024600000     -1.0000000000
  end;

 # Auxiliary/J basis set for element : O 
 NewAuxJGTO O 
 S 7 
   1    2876.8216605000      0.0168151159
   2    1004.7443032000      0.0340137548
   3     369.7579954000      0.1194951309
   4     142.9442404000      0.2664627624
   5      57.8366425000      0.4202764046
   6      24.3864983000      0.2765077335
   7      10.6622662000      0.0057008815
 S 1 
   1       4.8070437000     -1.0000000000
 S 1 
   1       2.2210770000      1.0000000000
 S 1 
   1       1.0447795000      1.0000000000
 S 1 
   1       0.4968425000      1.0000000000
 S 1 
   1       0.2371384000      1.0000000000
 P 2 
   1      64.2613382000     -0.2731534179
   2      16.3006076000     -0.8168011598
 P 1 
   1       4.3550542000      1.0000000000
 P 1 
   1       1.2019554000      1.0000000000
 P 1 
   1       0.3354196000      1.0000000000
 D 2 
   1       9.2146611000     -0.4661230638
   2       2.8435251000     -0.6600908911
 D 1 
   1       0.9955759000     -1.0000000000
 D 1 
   1       0.3649441000     -1.0000000000
 F 2 
   1       2.6420115000      0.5931563945
   2       0.7345613000      0.5931563945
 G 1 
   1       1.3931000000     -1.0000000000
  end;


Checking for AutoStart:
The File: inpS.gbw exists
Trying to determine its content:
     ... Fine, the file contains calculation information
     ... Fine, the calculation information was read
     ... Fine, the file contains a basis set
     ... Fine, the basis set was read
     ... Fine, the file contains a geometry
     ... Fine, the geometry was read
     ... Fine, the file contains a set of orbitals
     ... Fine, the orbitals can be read
     => possible old guess file was deleted
     => GBW file was renamed to GES file
     => GES file is set as startup file
     => Guess is set to MORead
     ... now leaving AutoStart



           ************************************************************
           *        Program running with 4 parallel MPI-processes     *
           *              working on a common directory               *
           ************************************************************
------------------------------------------------------------------------------
                             ORCA STARTUP CALCULATIONS
                           -- RI-GTO INTEGRALS CHOSEN --
------------------------------------------------------------------------------
------------------------------------------------------------------------------
                   ___                                                        
                  /   \      - P O W E R E D   B Y -                         
                 /     \                                                     
                 |  |  |   _    _      __       _____    __    __             
                 |  |  |  | |  | |    /  \     |  _  \  |  |  /  |          
                  \  \/   | |  | |   /    \    | | | |  |  | /  /          
                 / \  \   | |__| |  /  /\  \   | |_| |  |  |/  /          
                |  |  |   |  __  | /  /__\  \  |    /   |      \           
                |  |  |   | |  | | |   __   |  |    \   |  |\   \          
                \     /   | |  | | |  |  |  |  | |\  \  |  | \   \       
                 \___/    |_|  |_| |__|  |__|  |_| \__\ |__|  \__/        
                                                                              
                      - O R C A' S   B I G   F R I E N D -                    
                                      &                                       
                       - I N T E G R A L  F E E D E R -                       
                                                                              
 v1 FN, 2020, v2 2021, v3 2022-2024                                           
------------------------------------------------------------------------------


----------------------
SHARK INTEGRAL PACKAGE
----------------------

Number of atoms                             ...     73
Number of basis functions                   ...    626
Number of shells                            ...    306
Maximum angular momentum                    ...      2
Integral batch strategy                     ... SHARK/LIBINT Hybrid
RI-J (if used) integral strategy            ... SPLIT-RIJ (Revised 2003 algorithm where possible)
Printlevel                                  ...      1
Contraction scheme used                     ... SEGMENTED contraction
Prescreening option                         ... SCHWARTZ
   Thresh                                   ... 3.000e-11
   Tcut                                     ... 1.000e-12
   Tpresel                                  ... 1.000e-12 
Coulomb Range Separation                    ... NOT USED
Exchange Range Separation                   ... Long Range
   Mu parameter                             ... 3.000e-01
   Scaling (regular/separated)              ... 1.670e-01 8.330e-01
Multipole approximations                    ... NOT USED
Finite Nucleus Model                        ... NOT USED
CABS basis                                  ... NOT available
Auxiliary Coulomb fitting basis             ... AVAILABLE
   # of basis functions in Aux-J            ...   1905
   # of shells in Aux-J                     ...    655
   Maximum angular momentum in Aux-J        ...      4
Auxiliary J/K fitting basis                 ... NOT available
Auxiliary Correlation fitting basis         ... NOT available
Auxiliary 'external' fitting basis          ... NOT available

Checking pre-screening integrals            ... done (  0.0 sec) Dimension = 306
Check shell pair data                       ... done (  0.0 sec)
Shell pair information
Shell pair cut-off parameter TPreSel        ...   1.0e-12
Total number of shell pairs                 ...     46971
Shell pairs after pre-screening             ...     27483
Total number of primitive shell pairs       ...    162105
Primitive shell pairs kept                  ...     60578
          la=0 lb=0:   9646 shell pairs
          la=1 lb=0:  10555 shell pairs
          la=1 lb=1:   2907 shell pairs
          la=2 lb=0:   2720 shell pairs
          la=2 lb=1:   1460 shell pairs
          la=2 lb=2:    195 shell pairs

Calculating one electron integrals          ... done (  0.1 sec)
Calculating RI/J V-Matrix + Cholesky decomp.... done (  0.2 sec)
Calculating Nuclear repulsion               ... done (  0.0 sec) ENN=   2774.087464780472 Eh

Diagonalization of the overlap matrix:
Smallest eigenvalue                        ... 4.436e-04
Time for diagonalization                   ...    0.044 sec
Threshold for overlap eigenvalues          ... 1.000e-07
Number of eigenvalues below threshold      ... 0
Time for construction of square roots      ...    0.025 sec
Total time needed                          ...    0.072 sec

-------------------
DFT GRID GENERATION
-------------------

General Integration Accuracy     IntAcc      ... 4.388
Radial Grid Type                 RadialGrid  ... OptM3 with GC (2021)
Angular Grid (max. ang.)         AngularGrid ... 4 (Lebedev-302)
Angular grid pruning method      GridPruning ... 4 (adaptive)
Weight generation scheme         WeightScheme... mBecke (2022)
Basis function cutoff            BFCut       ... 1.0000e-11
Integration weight cutoff        WCut        ... 1.0000e-14
Partially contracted basis set               ... off
Rotationally invariant grid construction     ... off
Angular grids for H and He will be reduced by one unit

Total number of grid points                  ...   309936
Total number of batches                      ...     4880
Average number of points per batch           ...       63
Average number of grid points per atom       ...     4246

--------------------
COSX GRID GENERATION
--------------------

GRIDX 1
-------
General Integration Accuracy     IntAcc      ... 3.816
Radial Grid Type                 RadialGrid  ... OptM3 with GC (2021)
Angular Grid (max. ang.)         AngularGrid ... 1 (Lebedev-50)
Angular grid pruning method      GridPruning ... 4 (adaptive)
Weight generation scheme         WeightScheme... mBecke (2022)
Basis function cutoff            BFCut       ... 1.0000e-11
Integration weight cutoff        WCut        ... 1.0000e-14
Partially contracted basis set               ... on
Rotationally invariant grid construction     ... off
Angular grids for H and He will be reduced by one unit

Total number of grid points                  ...    39438
Total number of batches                      ...      352
Average number of points per batch           ...      112
Average number of grid points per atom       ...      540
UseSFitting                                  ... on

GRIDX 2
-------
General Integration Accuracy     IntAcc      ... 4.020
Radial Grid Type                 RadialGrid  ... OptM3 with GC (2021)
Angular Grid (max. ang.)         AngularGrid ... 2 (Lebedev-110)
Angular grid pruning method      GridPruning ... 4 (adaptive)
Weight generation scheme         WeightScheme... mBecke (2022)
Basis function cutoff            BFCut       ... 1.0000e-11
Integration weight cutoff        WCut        ... 1.0000e-14
Partially contracted basis set               ... on
Rotationally invariant grid construction     ... off
Angular grids for H and He will be reduced by one unit

Total number of grid points                  ...    81447
Total number of batches                      ...      677
Average number of points per batch           ...      120
Average number of grid points per atom       ...     1116
UseSFitting                                  ... on

GRIDX 3
-------
General Integration Accuracy     IntAcc      ... 4.338
Radial Grid Type                 RadialGrid  ... OptM3 with GC (2021)
Angular Grid (max. ang.)         AngularGrid ... 3 (Lebedev-194)
Angular grid pruning method      GridPruning ... 4 (adaptive)
Weight generation scheme         WeightScheme... mBecke (2022)
Basis function cutoff            BFCut       ... 1.0000e-11
Integration weight cutoff        WCut        ... 1.0000e-14
Partially contracted basis set               ... on
Rotationally invariant grid construction     ... off
Angular grids for H and He will be reduced by one unit

Total number of grid points                  ...   176386
Total number of batches                      ...     1420
Average number of points per batch           ...      124
Average number of grid points per atom       ...     2416
UseSFitting                                  ... on
Initializing property integral containers    ... done (  0.0 sec)

SHARK setup successfully completed in   4.5 seconds

Maximum memory used throughout the entire STARTUP-calculation: 95.4 MB


           ************************************************************
           *        Program running with 4 parallel MPI-processes     *
           *              working on a common directory               *
           ************************************************************
-------------------------------------------------------------------------------
                                 ORCA GUESS
                   Start orbitals & Density for SCF / CASSCF
-------------------------------------------------------------------------------

------------
SCF SETTINGS
------------
Hamiltonian:
 Density Functional     Method          .... DFT(GTOs)
 Exchange Functional    Exchange        .... WB97X-V
 Correlation Functional Correlation     .... WB97X-V
 Gradients option       PostSCFGGA      .... off
 Hybrid DFT is turned on
   Fraction HF Exchange ScalHFX         ....  0.167000
   Scaling of DF-GGA-X  ScalDFX         ....  0.000000
   Scaling of DF-GGA-C  ScalDFC         ....  1.000000
   Scaling of DF-LDA-C  ScalLDAC        ....  1.000000
   Perturbative correction              ....  0.000000
 Long-range corrected/Screened/Range-Separated Hybrid DFT is turned on
   Amount of maximum screened exact exchange              ....  0.833000
   Range separation parameter mu (erf(mu*r12)/r12)        ....  0.300000
 RI-approximation to the Coulomb term is turned on
   Number of AuxJ basis functions       .... 1905
   RIJ-COSX (HFX calculated with COS-X)).... on


General Settings:
 Integral files         IntName         .... inpS
 Hartree-Fock type      HFTyp           .... RHF
 Total Charge           Charge          ....    0
 Multiplicity           Mult            ....    1
 Number of Electrons    NEL             ....  220
 Basis Dimension        Dim             ....  626
 Nuclear Repulsion      ENuc            ....   2774.0874647805 Eh

Convergence Acceleration:
 AO-DIIS                CNVDIIS         .... on
   Start iteration      DIISMaxIt       ....    12
   Startup error        DIISStart       ....  0.200000
   # of expansion vecs  DIISMaxEq       ....     5
   Bias factor          DIISBfac        ....   1.050
   Max. coefficient     DIISMaxC        ....  10.000
 MO-DIIS                CNVKDIIS        .... off
 Trust-Rad. Augm. Hess. CNVTRAH         .... auto
   Auto Start mean grad. ratio tolernc. ....  1.125000
   Auto Start start iteration           ....     1
   Auto Start num. interpolation iter.  ....    10
   Max. Number of Micro iterations      ....    24
   Max. Number of Macro iterations      .... Maxiter - #DIIS iter
   Number of Davidson start vectors     ....     2
   Converg. threshold    (grad. norm)   ....   1.000e-04
   Grad. Scal. Fac. for Micro threshold ....   0.100
   Minimum threshold for Micro iter.    ....   1.000e-02
   NR start threshold (gradient norm)   ....   1.000e-04
   Initial trust radius                 ....   0.400
   Minimum AH scaling param. (alpha)    ....   1.000
   Maximum AH scaling param. (alpha)    .... 1000.000
   Quad. conv. algorithm                .... NR
   White noise on init. David. guess    .... on
   Maximum white noise                  ....   0.010
   Pseudo random numbers                .... off
   Inactive MOs                         .... canonical
   Orbital update algorithm             .... Taylor
   Preconditioner                       .... Diag
   Full preconditioner red. dimension   ....   250
 SOSCF                  CNVSOSCF        .... off
 Level Shifting         CNVShift        .... on
   Level shift para.    LevelShift      ....    0.2500
   Turn off err/grad.   ShiftErr        ....    0.0010
 Zerner damping         CNVZerner       .... off
 Static damping         CNVDamp         .... on
   Fraction old density DampFac         ....    0.7000
   Max. Damping (<1)    DampMax         ....    0.9800
   Min. Damping (>=0)   DampMin         ....    0.0000
   Turn off err/grad.   DampErr         ....    0.1000

SCF Procedure:
 Maximum # iterations   MaxIter         ....   125
 SCF integral mode      SCFMode         .... Direct
   Integral package                     .... SHARK and LIBINT hybrid scheme
 Reset frequency        DirectResetFreq ....    20
 Integral Threshold     Thresh          ....  3.000e-11 Eh
 Primitive CutOff       TCut            ....  1.000e-12 Eh

Convergence Tolerance:
 Convergence Check Mode ConvCheckMode   .... Total+1el-Energy
 Convergence forced     ConvForced      .... 0
 Energy Change          TolE            ....  1.000e-07 Eh
 1-El. energy change                    ....  1.000e-04 Eh
 DIIS Error             TolErr          ....  1.000e-07

---------------------
INITIAL GUESS: MOREAD
---------------------
Guess MOs are being read from file: inpS.ges
Input Geometry matches current geometry (good)
Input basis set matches current basis set (good)
Occupation numbers will be reassigned to an Aufbau configuration
MOs were renormalized
MOs were reorthogonalized (Cholesky)
                      ------------------
                      INITIAL GUESS DONE (   0.2 sec)
                      ------------------
             **** ENERGY FILE WAS UPDATED (inpS.en.tmp) ****
Finished Guess after   0.3 sec
Maximum memory used throughout the entire GUESS-calculation: 52.4 MB


           ************************************************************
           *        Program running with 4 parallel MPI-processes     *
           *              working on a common directory               *
           ************************************************************

-------------------------------------------------------------------------------------------
                                      ORCA LEAN-SCF
                              memory conserving SCF solver
-------------------------------------------------------------------------------------------

--------------------
CPCM SOLVATION MODEL
--------------------
CPCM parameters:
  Epsilon                                         ...       4.8030
  Refrac                                          ...       1.4459
  Rsolv                                           ...       1.3000
  Surface type                                    ... GAUSSIAN VDW
  Discretization scheme                           ... Constant charge density
    Threshold for H atoms                         ...       5.0000 (charges/Ang^2)
    Threshold for non-H atoms                     ...       5.0000 (charges/Ang^2)
  Epsilon function type                           ...         CPCM
Solvent:                                          ... CHLOROFORM
Radii:
  Scheme                                          ... Element-dependent radii
  Radius for C  used is    3.8550 Bohr (=   2.0400 Ang.)
  Radius for H  used is    2.4944 Bohr (=   1.3200 Ang.)
  Radius for O  used is    3.4469 Bohr (=   1.8240 Ang.)
Calculating surface                               ...        done! (  0.0s)
Cavity surface points                             ...         5451
Cavity Volume                                     ...    3610.1478
Cavity Surface-area                               ...    1809.3266
Calculating surface distance matrix               ...        done! (  0.2s)
Performing Cholesky decomposition & store         ...        done! (  0.9s)
Overall time for CPCM initialization              ...                 1.2s

----------------------------------------D-I-I-S--------------------------------------------
Iteration    Energy (Eh)           Delta-E    RMSDP     MaxDP     DIISErr   Damp  Time(sec)
-------------------------------------------------------------------------------------------
               ***  Starting incremental Fock matrix formation  ***
    1    -1168.3624074815074891     0.00e+00  3.21e-08  1.93e-06  6.49e-06  0.700  23.4

  HOMO= 109 E= -7.879 eV LUMO=  8.093 eV gap=  15.972 eV
    2    -1168.3624074527988341     2.87e-08  2.76e-08  1.27e-06  3.27e-06  0.700   4.7
                 **** Energy Check signals convergence ****

  HOMO= 109 E= -7.879 eV LUMO=  8.093 eV gap=  15.972 eV

               *****************************************************
               *                     SUCCESS                       *
               *           SCF CONVERGED AFTER   2 CYCLES          *
               *****************************************************

Recomputing exchange energy using gridx3       ... done (   40.829 sec)
Old exchange energy                            :    -56.782380102 Eh
New exchange energy                            :    -56.782339634 Eh
Exchange energy change after final integration :      0.000040468 Eh
Total energy after final integration           :  -1168.362366985 Eh
             **** ENERGY FILE WAS UPDATED (inpS.en.tmp) ****

----------------
TOTAL SCF ENERGY
----------------

Total Energy       :      -1168.36236698517860 Eh          -31792.75632 eV

Components:
Nuclear Repulsion  :       2774.08746478047169 Eh           75486.75759 eV
Electronic Energy  :      -3942.43926995218953 Eh         -107279.22651 eV
One Electron Energy:      -7093.48757113842657 Eh         -193023.60994 eV
Two Electron Energy:       3151.04830118623704 Eh           85744.38344 eV
CPCM Dielectric    :         -0.01060228108087 Eh              -0.28850 eV

Virial components:
Potential Energy   :      -2321.68549704657744 Eh          -63176.27419 eV
Kinetic Energy     :       1153.32313006139884 Eh           31383.51788 eV
Virial Ratio       :          2.01303991616207

DFT components:
N(Alpha)           :      110.000160741394 electrons
N(Beta)            :      110.000160741394 electrons
N(Total)           :      220.000321482787 electrons
E(X)               :     -111.769360074271 Eh       
E(C)               :       -8.950375676617 Eh       
E(XC)              :     -120.719735750888 Eh       

CPCM Solvation Model Properties:
Surface-charge          :         -0.04166528971044
Corrected charge        :          0.00000000000000
Outlying charge corr.   :          0.00006073227521 Eh               0.00165 eV
Free-energy (cav+disp)  :  This term is not implemented in the current solvation scheme

---------------
SCF CONVERGENCE
---------------

  Last Energy change         ...   -2.8709e-08  Tolerance :   1.0000e-07
  Last MAX-Density change    ...    1.2738e-06  Tolerance :   1.0000e-05
  Last RMS-Density change    ...    2.7559e-08  Tolerance :   1.0000e-06
  Last DIIS Error            ...    3.2741e-06  Tolerance :   1.0000e-07


----------------
ORBITAL ENERGIES
----------------

  NO   OCC          E(Eh)            E(eV) 
   0   2.0000     -19.213705      -522.8315 
   1   2.0000     -10.329729      -281.0862 
   2   2.0000     -10.293414      -280.0980 
   3   2.0000     -10.290141      -280.0090 
   4   2.0000     -10.285930      -279.8944 
   5   2.0000     -10.285715      -279.8885 
   6   2.0000     -10.285097      -279.8717 
   7   2.0000     -10.282618      -279.8043 
   8   2.0000     -10.282395      -279.7982 
   9   2.0000     -10.281899      -279.7847 
  10   2.0000     -10.281229      -279.7665 
  11   2.0000     -10.280770      -279.7540 
  12   2.0000     -10.279406      -279.7169 
  13   2.0000     -10.278467      -279.6913 
  14   2.0000     -10.276917      -279.6491 
  15   2.0000     -10.276758      -279.6448 
  16   2.0000     -10.276711      -279.6435 
  17   2.0000     -10.276450      -279.6364 
  18   2.0000     -10.273019      -279.5431 
  19   2.0000     -10.272220      -279.5213 
  20   2.0000     -10.271802      -279.5099 
  21   2.0000     -10.271641      -279.5056 
  22   2.0000     -10.270236      -279.4673 
  23   2.0000     -10.269583      -279.4496 
  24   2.0000     -10.269561      -279.4490 
  25   2.0000     -10.268620      -279.4234 
  26   2.0000     -10.268269      -279.4138 
  27   2.0000     -10.268059      -279.4081 
  28   2.0000     -10.266754      -279.3726 
  29   2.0000      -1.131710       -30.7954 
  30   2.0000      -0.997870       -27.1534 
  31   2.0000      -0.979078       -26.6421 
  32   2.0000      -0.957460       -26.0538 
  33   2.0000      -0.942564       -25.6485 
  34   2.0000      -0.917584       -24.9687 
  35   2.0000      -0.910437       -24.7742 
  36   2.0000      -0.889624       -24.2079 
  37   2.0000      -0.887167       -24.1410 
  38   2.0000      -0.873654       -23.7733 
  39   2.0000      -0.852678       -23.2026 
  40   2.0000      -0.833291       -22.6750 
  41   2.0000      -0.828821       -22.5534 
  42   2.0000      -0.808348       -21.9963 
  43   2.0000      -0.799343       -21.7512 
  44   2.0000      -0.794743       -21.6261 
  45   2.0000      -0.786780       -21.4094 
  46   2.0000      -0.759206       -20.6591 
  47   2.0000      -0.756509       -20.5856 
  48   2.0000      -0.722218       -19.6526 
  49   2.0000      -0.712819       -19.3968 
  50   2.0000      -0.712135       -19.3782 
  51   2.0000      -0.697392       -18.9770 
  52   2.0000      -0.689232       -18.7549 
  53   2.0000      -0.680149       -18.5078 
  54   2.0000      -0.651466       -17.7273 
  55   2.0000      -0.642381       -17.4801 
  56   2.0000      -0.630425       -17.1547 
  57   2.0000      -0.620496       -16.8845 
  58   2.0000      -0.604977       -16.4623 
  59   2.0000      -0.597395       -16.2560 
  60   2.0000      -0.589480       -16.0406 
  61   2.0000      -0.580710       -15.8019 
  62   2.0000      -0.569580       -15.4991 
  63   2.0000      -0.567120       -15.4321 
  64   2.0000      -0.563443       -15.3321 
  65   2.0000      -0.561890       -15.2898 
  66   2.0000      -0.554381       -15.0855 
  67   2.0000      -0.548731       -14.9317 
  68   2.0000      -0.546588       -14.8734 
  69   2.0000      -0.540677       -14.7126 
  70   2.0000      -0.538281       -14.6474 
  71   2.0000      -0.533843       -14.5266 
  72   2.0000      -0.524997       -14.2859 
  73   2.0000      -0.518073       -14.0975 
  74   2.0000      -0.515703       -14.0330 
  75   2.0000      -0.510051       -13.8792 
  76   2.0000      -0.503822       -13.7097 
  77   2.0000      -0.501938       -13.6584 
  78   2.0000      -0.496671       -13.5151 
  79   2.0000      -0.494465       -13.4551 
  80   2.0000      -0.489413       -13.3176 
  81   2.0000      -0.487191       -13.2571 
  82   2.0000      -0.484614       -13.1870 
  83   2.0000      -0.479008       -13.0345 
  84   2.0000      -0.475672       -12.9437 
  85   2.0000      -0.471403       -12.8275 
  86   2.0000      -0.466008       -12.6807 
  87   2.0000      -0.462258       -12.5787 
  88   2.0000      -0.456967       -12.4347 
  89   2.0000      -0.452670       -12.3178 
  90   2.0000      -0.446862       -12.1597 
  91   2.0000      -0.446598       -12.1525 
  92   2.0000      -0.437354       -11.9010 
  93   2.0000      -0.429752       -11.6941 
  94   2.0000      -0.425994       -11.5919 
  95   2.0000      -0.423188       -11.5155 
  96   2.0000      -0.421752       -11.4765 
  97   2.0000      -0.420106       -11.4317 
  98   2.0000      -0.417733       -11.3671 
  99   2.0000      -0.413836       -11.2610 
 100   2.0000      -0.412018       -11.2116 
 101   2.0000      -0.409884       -11.1535 
 102   2.0000      -0.402359       -10.9487 
 103   2.0000      -0.401315       -10.9203 
 104   2.0000      -0.394275       -10.7288 
 105   2.0000      -0.380609       -10.3569 
 106   2.0000      -0.371997       -10.1225 
 107   2.0000      -0.357105        -9.7173 
 108   2.0000      -0.336601        -9.1594 
 109   2.0000      -0.289530        -7.8785 
 110   0.0000       0.047414         1.2902 
 111   0.0000       0.100373         2.7313 
 112   0.0000       0.109481         2.9791 
 113   0.0000       0.134692         3.6652 
 114   0.0000       0.138922         3.7802 
 115   0.0000       0.147448         4.0123 
 116   0.0000       0.152861         4.1596 
 117   0.0000       0.156137         4.2487 
 118   0.0000       0.158906         4.3241 
 119   0.0000       0.163315         4.4440 
 120   0.0000       0.165231         4.4962 
*Only the first 10 virtual orbitals were printed.

                    ********************************
                    * MULLIKEN POPULATION ANALYSIS *
                    ********************************

-----------------------
MULLIKEN ATOMIC CHARGES
-----------------------
   0 C :   -0.126755
   1 C :    0.144053
   2 C :    0.081419
   3 H :    0.016700
   4 H :    0.013141
   5 C :   -0.184282
   6 C :    0.110891
   7 C :    0.006980
   8 H :    0.029893
   9 H :    0.012201
  10 H :    0.023452
  11 H :    0.011314
  12 O :   -0.355091
  13 H :    0.014216
  14 C :   -0.025048
  15 C :   -0.044778
  16 H :    0.036412
  17 H :    0.029201
  18 C :   -0.061428
  19 H :   -0.006588
  20 C :   -0.116142
  21 H :    0.001386
  22 C :    0.114337
  23 C :    0.000083
  24 H :    0.012565
  25 H :    0.017814
  26 C :    0.104946
  27 H :    0.012675
  28 H :    0.014787
  29 C :   -0.412918
  30 H :    0.008414
  31 H :   -0.002838
  32 C :   -0.041917
  33 H :    0.011052
  34 C :    0.118493
  35 H :    0.181692
  36 C :    0.064406
  37 H :    0.007212
  38 H :    0.014356
  39 C :   -0.032109
  40 H :    0.009436
  41 H :    0.008218
  42 H :   -0.009172
  43 C :   -0.039805
  44 C :    0.093802
  45 H :    0.023262
  46 H :    0.018285
  47 H :    0.019307
  48 H :    0.000247
  49 C :    0.051637
  50 C :   -0.041523
  51 C :   -0.078081
  52 H :    0.005577
  53 H :    0.011737
  54 C :   -0.052788
  55 C :    0.040910
  56 C :   -0.176450
  57 H :    0.004925
  58 H :    0.008723
  59 C :    0.024994
  60 C :    0.033283
  61 H :    0.019952
  62 H :    0.020525
  63 H :    0.025135
  64 H :    0.018396
  65 H :    0.026565
  66 H :    0.013344
  67 H :    0.012695
  68 H :    0.023440
  69 H :    0.018546
  70 H :    0.016494
  71 H :    0.030696
  72 H :    0.013488
Sum of atomic charges:   -0.0000000

--------------------------------
MULLIKEN REDUCED ORBITAL CHARGES
--------------------------------
  0 C s       :     3.077798  s :     3.077798
      pz      :     1.003720  p :     3.006127
      px      :     0.998430
      py      :     1.003976
      dz2     :     0.003259  d :     0.042830
      dxz     :     0.006950
      dyz     :     0.006024
      dx2y2   :     0.014696
      dxy     :     0.011901

  1 C s       :     2.932348  s :     2.932348
      pz      :     0.981038  p :     2.889158
      px      :     0.940781
      py      :     0.967339
      dz2     :     0.007182  d :     0.034441
      dxz     :     0.009188
      dyz     :     0.004598
      dx2y2   :     0.008995
      dxy     :     0.004479

  2 C s       :     3.075252  s :     3.075252
      pz      :     1.040132  p :     2.772140
      px      :     0.758294
      py      :     0.973715
      dz2     :     0.011892  d :     0.071189
      dxz     :     0.016014
      dyz     :     0.009059
      dx2y2   :     0.019366
      dxy     :     0.014859

  3 H s       :     0.960108  s :     0.960108
      pz      :     0.010636  p :     0.023192
      px      :     0.007698
      py      :     0.004858

  4 H s       :     0.964065  s :     0.964065
      pz      :     0.004138  p :     0.022794
      px      :     0.003802
      py      :     0.014855

  5 C s       :     3.111851  s :     3.111851
      pz      :     1.006768  p :     3.027649
      px      :     0.974966
      py      :     1.045915
      dz2     :     0.011250  d :     0.044782
      dxz     :     0.006627
      dyz     :     0.011796
      dx2y2   :     0.008448
      dxy     :     0.006661

  6 C s       :     2.949142  s :     2.949142
      pz      :     0.974373  p :     2.904497
      px      :     0.965820
      py      :     0.964304
      dz2     :     0.007126  d :     0.035469
      dxz     :     0.009460
      dyz     :     0.004820
      dx2y2   :     0.009226
      dxy     :     0.004837

  7 C s       :     3.012880  s :     3.012880
      pz      :     0.990351  p :     2.945114
      px      :     0.988852
      py      :     0.965911
      dz2     :     0.005460  d :     0.035025
      dxz     :     0.008199
      dyz     :     0.006478
      dx2y2   :     0.009688
      dxy     :     0.005200

  8 H s       :     0.946815  s :     0.946815
      pz      :     0.011281  p :     0.023292
      px      :     0.007219
      py      :     0.004792

  9 H s       :     0.964976  s :     0.964976
      pz      :     0.004361  p :     0.022824
      px      :     0.003730
      py      :     0.014732

 10 H s       :     0.953852  s :     0.953852
      pz      :     0.011568  p :     0.022696
      px      :     0.005131
      py      :     0.005997

 11 H s       :     0.965994  s :     0.965994
      pz      :     0.010750  p :     0.022692
      px      :     0.007251
      py      :     0.004691

 12 O s       :     3.726315  s :     3.726315
      pz      :     1.546628  p :     4.616566
      px      :     1.247163
      py      :     1.822774
      dz2     :     0.002458  d :     0.012211
      dxz     :     0.004031
      dyz     :     0.001720
      dx2y2   :     0.001800
      dxy     :     0.002201

 13 H s       :     0.965560  s :     0.965560
      pz      :     0.010872  p :     0.020223
      px      :     0.005043
      py      :     0.004309

 14 C s       :     3.197248  s :     3.197248
      pz      :     0.988834  p :     2.791563
      px      :     0.888244
      py      :     0.914485
      dz2     :     0.002868  d :     0.036237
      dxz     :     0.007568
      dyz     :     0.003168
      dx2y2   :     0.012199
      dxy     :     0.010435

 15 C s       :     3.123147  s :     3.123147
      pz      :     0.974712  p :     2.895382
      px      :     1.000519
      py      :     0.920151
      dz2     :     0.007160  d :     0.026248
      dxz     :     0.004137
      dyz     :     0.006938
      dx2y2   :     0.004979
      dxy     :     0.003035

 16 H s       :     0.939038  s :     0.939038
      pz      :     0.011185  p :     0.024549
      px      :     0.006163
      py      :     0.007201

 17 H s       :     0.946175  s :     0.946175
      pz      :     0.004035  p :     0.024624
      px      :     0.004665
      py      :     0.015924

 18 C s       :     3.201096  s :     3.201096
      pz      :     1.030068  p :     2.825022
      px      :     0.877502
      py      :     0.917452
      dz2     :     0.002981  d :     0.035310
      dxz     :     0.007017
      dyz     :     0.003065
      dx2y2   :     0.012311
      dxy     :     0.009936

 19 H s       :     0.982276  s :     0.982276
      pz      :     0.004582  p :     0.024312
      px      :     0.004364
      py      :     0.015367

 20 C s       :     3.099811  s :     3.099811
      pz      :     0.956280  p :     2.972322
      px      :     0.992564
      py      :     1.023477
      dz2     :     0.003819  d :     0.044009
      dxz     :     0.007194
      dyz     :     0.006795
      dx2y2   :     0.014484
      dxy     :     0.011716

 21 H s       :     0.974107  s :     0.974107
      pz      :     0.004664  p :     0.024508
      px      :     0.004284
      py      :     0.015560

 22 C s       :     2.924530  s :     2.924530
      pz      :     1.004889  p :     2.925583
      px      :     0.976169
      py      :     0.944524
      dz2     :     0.009776  d :     0.035550
      dxz     :     0.003886
      dyz     :     0.005765
      dx2y2   :     0.009872
      dxy     :     0.006250

 23 C s       :     3.000388  s :     3.000388
      pz      :     1.007537  p :     2.963102
      px      :     0.967937
      py      :     0.987628
      dz2     :     0.009520  d :     0.036427
      dxz     :     0.007525
      dyz     :     0.003463
      dx2y2   :     0.010056
      dxy     :     0.005863

 24 H s       :     0.964189  s :     0.964189
      pz      :     0.004692  p :     0.023246
      px      :     0.013914
      py      :     0.004641

 25 H s       :     0.958866  s :     0.958866
      pz      :     0.013797  p :     0.023319
      px      :     0.004973
      py      :     0.004550

 26 C s       :     2.971859  s :     2.971859
      pz      :     0.968949  p :     2.887851
      px      :     0.974814
      py      :     0.944089
      dz2     :     0.007017  d :     0.035343
      dxz     :     0.006550
      dyz     :     0.005671
      dx2y2   :     0.008606
      dxy     :     0.007500

 27 H s       :     0.964437  s :     0.964437
      pz      :     0.013644  p :     0.022888
      px      :     0.004626
      py      :     0.004618

 28 H s       :     0.962566  s :     0.962566
      pz      :     0.004976  p :     0.022646
      px      :     0.003822
      py      :     0.013849

 29 C s       :     3.256161  s :     3.256161
      pz      :     1.047032  p :     3.105735
      px      :     1.005368
      py      :     1.053335
      dz2     :     0.011988  d :     0.051021
      dxz     :     0.009986
      dyz     :     0.009452
      dx2y2   :     0.010727
      dxy     :     0.008869

 30 H s       :     0.968569  s :     0.968569
      pz      :     0.008893  p :     0.023016
      px      :     0.007324
      py      :     0.006799

 31 H s       :     0.980305  s :     0.980305
      pz      :     0.013188  p :     0.022534
      px      :     0.005097
      py      :     0.004248

 32 C s       :     3.032109  s :     3.032109
      pz      :     0.987646  p :     2.965974
      px      :     0.950440
      py      :     1.027888
      dz2     :     0.008878  d :     0.043834
      dxz     :     0.007275
      dyz     :     0.007527
      dx2y2   :     0.011098
      dxy     :     0.009056

 33 H s       :     0.967670  s :     0.967670
      pz      :     0.012538  p :     0.021278
      px      :     0.004388
      py      :     0.004352

 34 C s       :     2.899251  s :     2.899251
      pz      :     0.987144  p :     2.947451
      px      :     0.978155
      py      :     0.982152
      dz2     :     0.005345  d :     0.034805
      dxz     :     0.005966
      dyz     :     0.008284
      dx2y2   :     0.008856
      dxy     :     0.006356

 35 H s       :     0.750173  s :     0.750173
[...]
 Total          138.797          174.268          191.485  iso=     168.183

 Orientation: 
  X           0.3053037   -0.4882471    0.8175600
  Y          -0.0899055   -0.8694957   -0.4856894
  Z           0.9480014    0.0747796   -0.3093564

 --------------
 Nucleus  39C :
 --------------

Diamagnetic contribution to the shielding tensor (ppm) : 
           264.486          3.261        -7.083
             2.652        262.356         7.197
            -7.099          5.287       261.099

Paramagnetic contribution to the shielding tensor (ppm): 
           -98.772          1.090         7.599
             5.973       -126.292        -2.334
            11.957         -3.260      -131.840

Total shielding tensor (ppm): 
           165.713          4.351         0.516
             8.625        136.064         4.863
             4.858          2.026       129.259


 Diagonalized sT*s matrix:
 
 sDSO           256.719          266.596          264.625  iso=     262.647
 sPSO          -128.899         -130.742          -97.263  iso=    -118.968
        ---------------  ---------------  ---------------
 Total          127.820          135.854          167.362  iso=     143.679

 Orientation: 
  X           0.0045994   -0.2197220   -0.9755517
  Y          -0.3919906    0.8970891   -0.2038982
  Z           0.9199577    0.3833449   -0.0820029

 --------------
 Nucleus  43C :
 --------------

Diamagnetic contribution to the shielding tensor (ppm) : 
           258.406         -1.383        -6.002
            -6.157        246.769         9.658
            -8.814         11.795       245.570

Paramagnetic contribution to the shielding tensor (ppm): 
           -95.058         -1.441         4.927
             8.934        -95.733        -6.581
             9.095        -10.586       -92.915

Total shielding tensor (ppm): 
           163.348         -2.824        -1.076
             2.776        151.037         3.077
             0.281          1.208       152.654


 Diagonalized sT*s matrix:
 
 sDSO           236.322          255.301          259.122  iso=     250.248
 sPSO           -86.770         -101.177          -95.759  iso=     -94.569
        ---------------  ---------------  ---------------
 Total          149.553          154.124          163.362  iso=     155.680

 Orientation: 
  X          -0.0084418    0.0428976   -0.9990438
  Y           0.8220706    0.5691169    0.0174907
  Z          -0.5693230    0.8211369    0.0400692

 --------------
 Nucleus  44C :
 --------------

Diamagnetic contribution to the shielding tensor (ppm) : 
           251.357          0.434         2.379
            -2.272        256.904        -1.321
             0.666          2.632       271.473

Paramagnetic contribution to the shielding tensor (ppm): 
           -72.124         -4.563        -2.046
            -0.106        -77.430        -0.816
            -0.218         -4.751       -78.151

Total shielding tensor (ppm): 
           179.233         -4.129         0.332
            -2.378        179.474        -2.137
             0.448         -2.119       193.322


 Diagonalized sT*s matrix:
 
 sDSO           253.512          255.212          271.009  iso=     259.911
 sPSO           -77.499          -72.893          -77.313  iso=     -75.902
        ---------------  ---------------  ---------------
 Total          176.013          182.320          193.696  iso=     184.010

 Orientation: 
  X           0.7064003   -0.7050252    0.0627543
  Y           0.7042639    0.6912240   -0.1619310
  Z           0.0707882    0.1585836    0.9848047

 --------------
 Nucleus  49C :
 --------------

Diamagnetic contribution to the shielding tensor (ppm) : 
           242.678         -6.530        -2.255
           -20.316        257.122         4.487
            -8.089          5.994       243.187

Paramagnetic contribution to the shielding tensor (ppm): 
           -69.774          1.970        -3.242
            19.669        -69.041         2.680
             4.357         -1.003       -75.507

Total shielding tensor (ppm): 
           172.904         -4.560        -5.497
            -0.647        188.081         7.167
            -3.732          4.991       167.680


 Diagonalized sT*s matrix:
 
 sDSO           240.087          238.899          264.002  iso=     247.663
 sPSO           -75.825          -65.066          -73.431  iso=     -71.441
        ---------------  ---------------  ---------------
 Total          164.263          173.832          190.570  iso=     176.222

 Orientation: 
  X           0.4207557   -0.8830984    0.2076101
  Y          -0.1862872   -0.3080852   -0.9329419
  Z           0.8878410    0.3538655   -0.2941385

 --------------
 Nucleus  50C :
 --------------

Diamagnetic contribution to the shielding tensor (ppm) : 
           267.660         13.547         7.706
             9.337        259.004        -0.009
            18.095        -16.612       255.240

Paramagnetic contribution to the shielding tensor (ppm): 
          -197.471        -29.576       -94.648
           -43.948       -162.982        35.440
          -101.905         56.688      -233.928

Total shielding tensor (ppm): 
            70.189        -16.028       -86.942
           -34.612         96.021        35.430
           -83.810         40.077        21.312


 Diagonalized sT*s matrix:
 
 sDSO           273.947          267.865          240.091  iso=     260.635
 sPSO          -310.821         -206.018          -77.543  iso=    -198.127
        ---------------  ---------------  ---------------
 Total          -36.873           61.847          162.549  iso=      62.507

 Orientation: 
  X          -0.6714417    0.3238797   -0.6665343
  Y          -0.1199779    0.8400601    0.5290598
  Z          -0.7312806   -0.4352022    0.5251930

 --------------
 Nucleus  51C :
 --------------

Diamagnetic contribution to the shielding tensor (ppm) : 
           263.607         13.815         8.036
             9.502        265.449       -11.159
            -6.910         -3.093       264.187

Paramagnetic contribution to the shielding tensor (ppm): 
          -196.890        -36.415       -87.054
           -32.052       -157.570        45.063
           -71.563         42.294      -247.651

Total shielding tensor (ppm): 
            66.717        -22.600       -79.018
           -22.550        107.879        33.905
           -78.473         39.200        16.536


 Diagonalized sT*s matrix:
 
 sDSO           264.379          278.016          250.847  iso=     264.414
 sPSO          -306.921         -201.551          -93.638  iso=    -200.704
        ---------------  ---------------  ---------------
 Total          -42.542           76.465          157.209  iso=      63.711

 Orientation: 
  X          -0.5861832    0.5524339   -0.5926264
  Y           0.0678906    0.7623972    0.6435382
  Z          -0.8073290   -0.3369976    0.4844095

 --------------
 Nucleus  54C :
 --------------

Diamagnetic contribution to the shielding tensor (ppm) : 
           253.390          0.073         7.456
            -6.056        247.158        -6.592
            19.432        -13.126       249.291

Paramagnetic contribution to the shielding tensor (ppm): 
           -94.750         -3.206       -11.722
             6.795        -81.553        12.107
           -25.477         22.654       -98.868

Total shielding tensor (ppm): 
           158.640         -3.133        -4.265
             0.739        165.605         5.515
            -6.045          9.527       150.422


 Diagonalized sT*s matrix:
 
 sDSO           263.428          247.036          239.375  iso=     249.946
 sPSO          -117.599          -87.824          -69.749  iso=     -91.724
        ---------------  ---------------  ---------------
 Total          145.829          159.212          169.626  iso=     158.222

 Orientation: 
  X           0.3242738   -0.9018472    0.2855136
  Y          -0.3141707   -0.3873655   -0.8667438
  Z           0.8922686    0.1913623   -0.4089465

 --------------
 Nucleus  55C :
 --------------

Diamagnetic contribution to the shielding tensor (ppm) : 
           253.186         -1.380         6.584
           -12.517        229.519        -8.923
            14.934        -13.134       237.098

Paramagnetic contribution to the shielding tensor (ppm): 
           -76.811         -8.426        -3.103
             5.872        -45.474         6.051
            -7.961          9.403       -58.407

Total shielding tensor (ppm): 
           176.374         -9.806         3.481
            -6.645        184.045        -2.872
             6.973         -3.730       178.691


 Diagonalized sT*s matrix:
 
 sDSO           239.158          226.524          254.120  iso=     239.934
 sPSO           -69.026          -49.290          -62.376  iso=     -60.231
        ---------------  ---------------  ---------------
 Total          170.132          177.233          191.744  iso=     179.703

 Orientation: 
  X           0.8393987    0.1037777    0.5335166
  Y           0.4092597    0.5252476   -0.7460707
  Z          -0.3576538    0.8445976    0.3984201

 --------------
 Nucleus  56C :
 --------------

Diamagnetic contribution to the shielding tensor (ppm) : 
           244.412          0.456         7.541
             9.855        250.824         0.751
             8.410         -0.282       236.007

Paramagnetic contribution to the shielding tensor (ppm): 
           -90.323         -2.905       -13.170
           -11.683        -78.224         3.619
           -15.308          5.851       -79.602

Total shielding tensor (ppm): 
           154.088         -2.449        -5.629
            -1.828        172.599         4.370
            -6.898          5.569       156.406


 Diagonalized sT*s matrix:
 
 sDSO           248.087          236.714          246.442  iso=     243.748
 sPSO           -99.318          -77.130          -71.701  iso=     -82.716
        ---------------  ---------------  ---------------
 Total          148.769          159.583          174.741  iso=     161.031

 Orientation: 
  X           0.7469545   -0.6364800    0.1922294
  Y          -0.0698488   -0.3626415   -0.9293074
  Z           0.6611960    0.6807234   -0.3153341

 --------------
 Nucleus  59C :
 --------------

Diamagnetic contribution to the shielding tensor (ppm) : 
           241.098         -6.860         5.208
            14.085        260.168        -7.001
            -0.288        -14.030       251.309

Paramagnetic contribution to the shielding tensor (ppm): 
           -66.306          0.665         2.953
           -23.253        -83.808        -1.730
            13.546          7.540       -75.442

Total shielding tensor (ppm): 
           174.792         -6.195         8.161
            -9.167        176.361        -8.731
            13.258         -6.491       175.866


 Diagonalized sT*s matrix:
 
 sDSO           244.327          251.641          256.608  iso=     250.858
 sPSO           -79.736          -82.264          -63.557  iso=     -75.185
        ---------------  ---------------  ---------------
 Total          164.591          169.377          193.051  iso=     175.673

 Orientation: 
  X          -0.7352352    0.3347780    0.5893666
  Y          -0.0492494    0.8408294   -0.5390551
  Z           0.6760205    0.4253583    0.6017197

 --------------
 Nucleus  60C :
 --------------

Diamagnetic contribution to the shielding tensor (ppm) : 
           243.829         13.514         3.337
            21.950        227.847         4.678
            12.857          4.619       230.692

Paramagnetic contribution to the shielding tensor (ppm): 
           -59.205         -3.969         7.403
           -10.043        -51.945         3.496
            -7.274          0.398       -65.315

Total shielding tensor (ppm): 
           184.624          9.546        10.740
            11.907        175.902         8.175
             5.582          5.017       165.376


 Diagonalized sT*s matrix:
 
 sDSO           227.503          216.489          258.376  iso=     234.123
 sPSO           -65.861          -47.702          -62.902  iso=     -58.822
        ---------------  ---------------  ---------------
 Total          161.642          168.787          195.473  iso=     175.301

 Orientation: 
  X          -0.2095084   -0.5938907   -0.7767883
  Y          -0.2850756    0.7970058   -0.5324599
  Z           0.9353278    0.1098886   -0.3362832



--------------------------------
CHEMICAL SHIELDING SUMMARY (ppm)
--------------------------------


  Nucleus  Element    Isotropic     Anisotropy
  -------  -------  ------------   ------------
      0       C           59.687        148.027 
      1       C          151.195         30.028 
      2       C          128.908         55.240 
      5       C           51.628        179.222 
      6       C          165.061         22.905 
      7       C          161.700         22.600 
     14       C           74.609        128.418 
     15       C           82.898        121.367 
     18       C           79.454        134.120 
     20       C           52.442        174.834 
     22       C          169.383          8.700 
     23       C          174.631         12.483 
     26       C          158.601         24.338 
     29       C          154.542         17.062 
     32       C          142.816         28.742 
     34       C          174.929         23.586 
     36       C          168.183         34.953 
     39       C          143.679         35.524 
     43       C          155.680         11.524 
     44       C          184.010         14.530 
     49       C          176.222         21.523 
     50       C           62.507        150.062 
     51       C           63.711        140.247 
     54       C          158.222         17.106 
     55       C          179.703         18.062 
     56       C          161.031         20.565 
     59       C          175.673         26.067 
     60       C          175.301         30.259 


NMR shielding tensor and spin rotation calculation done in   1.0 sec 

Maximum memory used throughout the entire PROP-calculation: 51.8 MB

--------------------------------
SUGGESTED CITATIONS FOR THIS RUN
--------------------------------

Below you find a list of papers that are relevant to this ORCA run
We neither can nor want to force you to cite these papers, but we appreciate if you do
You receive ORCA, which is the product of decades of hard work by many enthusiastic individuals, for free
The only thing we kindly ask in return is that you cite our papers,
We deeply appreciate it, if you show your appreciation for ORCA by not just citing the generic ORCA reference.

Please note that relegating all ORCA citations to the supporting information does *not* help us.
SI sections are not indexed - citations you put there will not count into any citation statistics
But we need these citations in order to attract the funding resources that allow us to do what we are doing

Therefore, if you are a happy ORCA user, please consider citing a few of the papers listed below in the main body of your paper

In addition to the list printed below, the program has created the file inpS.bibtex that contains the list in bibtex format
You can import this file easily into all common literature databanks and citation aid programs


List of essential papers. We consider these as the minimum necessary citations

  1. Neese,F.
     Software update: the ORCA program system, version 5.0
     WIRES Comput. Molec. Sci., 2022 12(1)e1606
     doi.org/10.1002/wcms.1606

List of papers to cite with high priority. The work reported in these papers was absolutely
necessary for this run to complete.
Our perspective: the developers of density functionals and basis sets usually get cited in chemistry papers
Good! But without the algorithms to do something with them, the functionals or basis sets would not do anything.
Hence, in our opinion, the algorithm design and method developments papers are equally worthy of getting cited

  1. Neese,F.
     An improvement of the resolution of the identity approximation for the formation of the Coulomb matrix
     J. Comp. Chem., 2003 24(14)1740-1747
     doi.org/10.1002/jcc.10318
  2. Neese,F.; Wennmohs,F.; Hansen,A.; Becker,U.
     Efficient, approximate and parallel Hartree-Fock and hybrid DFT calculations. A 'chain-of-spheres' algorithm for the Hartree-Fock exchange
     Chem. Phys., 2009 356(1-3)98-109
     doi.org/10.1016/j.chemphys.2008.10.036
  3. Stoychev,G.L.; Auer,A.A.; Izsak,R.; Neese,F.
     Self-Consistent Field Calculation of Nuclear Magnetic Resonance Chemical Shielding Constants Using Gauge-Including Atomic Orbitals and Approximate Two-Electron Integrals
     J. Chem. Theory Comput., 2018 14(2)619-637
     doi.org/10.1021/acs.jctc.7b01006
  4. Garcia-Rates,M.; Neese,F.
     Effect of the Solute Cavity on the Solvation Energy and its Derivatives within the Framework of the Gaussian Charge Scheme
     J. Comput. Chem., 2020 41 922-939
     doi.org/10.1002/jcc.26139
  5. Helmich-Paris,B.; de Souza,B.; Neese,F.; Izsák,R.
     An improved chain of spheres for exchange algorithm
     J. Chem. Phys., 2021 155 104109
     doi.org/doi: 10.1063/5.0058766.
  6. Neese,F.
     The SHARK Integral Generation and Digestion System
     J. Comp. Chem., 2022  1-16
     doi.org/10.1002/jcc.26942
  7. Caldeweyher,E.; Bannwarth,C.; Grimme,S.
     Extension of the D3 dispersion coefficient model
     J. Chem. Phys., 2017 147 034112-XXXX
     doi.org/10.1063/1.4993215
  8. Caldeweyher,E.; Ehlert,S.; Hansen,A.; Neugebauer,H.; Spicher,S.; Bannwarth,C.; Grimme,S.
     A generally applicable atomic-charge dependent London dispersion correction
     J. Chem. Phys., 2019 150 154122-XXXX
     doi.org/10.1063/1.5090222
  9. Caldeweyher,E.; Mewes,J.; Ehlert,S.; Grimme,S.
     Extension and evaluation of the D4 London-dispersion model for periodic systems
     Phys. Chem. Chem. Phys., 2020 22(16)8499-8512
     doi.org/10.1039/D0CP00502A

List of suggested additional citations. These are papers that are important in the 'surrounding' of 
of this run, or papers that preceded the highly important papers. If you like your results we are grateful for a citation.

  1. Izsak,R.; Neese,F.
     An overlap fitted chain of spheres exchange method
     J. Chem. Phys., 2011 135 144105
     doi.org/10.1063/1.3646921
  2. Izsak,R.; Hansen,A.; Neese,F.
     The resolution of identity and chain of spheres approximations for the LPNO-CCSD singles Fock term
     Molec. Phys., 2012 110 2413-2417
     doi.org/10.1080/00268976.2012.687466
  3. Neese,F.
     The ORCA program system
     WIRES Comput. Molec. Sci., 2012 2(1)73-78
     doi.org/10.1002/wcms.81
  4. Izsak,R.; Neese,F.; Klopper,W.
     Robust fitting techniques in the chain of spheres approximation to the Fock exchange: The role of the complementary space
     J. Chem. Phys., 2013 139 
     doi.org/10.1063/1.4819264
  5. Neese,F.
     Software update: the ORCA program system, version 4.0
     WIRES Comput. Molec. Sci., 2018 8(1)1-6
     doi.org/10.1002/wcms.1327
  6. Neese,F.; Wennmohs,F.; Becker,U.; Riplinger,C.
     The ORCA quantum chemistry program package
     J. Chem. Phys., 2020 152 Art. No. L224108
     doi.org/10.1063/5.0004608

Timings for individual modules:

Sum of individual times          ...      176.866 sec (=   2.948 min)
Startup calculation              ...        4.664 sec (=   0.078 min)   2.6 %
SCF iterations                   ...       71.700 sec (=   1.195 min)  40.5 %
Property integrals               ...       60.359 sec (=   1.006 min)  34.1 %
SCF Response                     ...       38.846 sec (=   0.647 min)  22.0 %
Property calculations            ...        1.296 sec (=   0.022 min)   0.7 %
                             ****ORCA TERMINATED NORMALLY****
TOTAL RUN TIME: 0 days 0 hours 2 minutes 57 seconds 154 msec
