
                                 *****************
                                 * O   R   C   A *
                                 *****************

                                            #,                                       
                                            ###                                      
                                            ####                                     
                                            #####                                    
                                            ######                                   
                                           ########,                                 
                                     ,,################,,,,,                         
                               ,,#################################,,                 
                          ,,##########################################,,             
                       ,#########################################, ''#####,          
                    ,#############################################,,   '####,        
                  ,##################################################,,,,####,       
                ,###########''''           ''''###############################       
              ,#####''   ,,,,##########,,,,          '''####'''          '####       
            ,##' ,,,,###########################,,,                        '##       
           ' ,,###''''                  '''############,,,                           
         ,,##''                                '''############,,,,        ,,,,,,###''
      ,#''                                            '''#######################'''  
     '                                                          ''''####''''         
             ,#######,   #######,   ,#######,      ##                                
            ,#'     '#,  ##    ##  ,#'     '#,    #''#        ,####,   ,####,        
            ##       ##  ##   ,#'  ##            #'  '#       #'       #'  '#        
            ##       ##  #######   ##           ,######,      #####,   #    #        
            '#,     ,#'  ##    ##  '#,     ,#' ,#      #,     #,   #   #,  ,#        
             '#######'   ##     ##  '#######'  #'      '#     '####' # '####'        



                #########################################################
                #                        -***-                          #
                #          Department of theory and spectroscopy        #
                #                                                       #
                #                      Frank Neese                      #
                #                                                       #
                #     Directorship, Architecture, Infrastructure        #
                #                    SHARK, DRIVERS                     #
                #        Core code/Algorithms in most modules           #
                #                                                       #
                #        Max Planck Institute fuer Kohlenforschung      #
                #                Kaiser Wilhelm Platz 1                 #
                #                 D-45470 Muelheim/Ruhr                 #
                #                      Germany                          #
                #                                                       #
                #                  All rights reserved                  #
                #                        -***-                          #
                #########################################################


                         Program Version 6.0.0  -   RELEASE  -


 With contributions from (in alphabetic order):
   Daniel Aravena         : Magnetic Suceptibility
   Michael Atanasov       : Ab Initio Ligand Field Theory (pilot matlab implementation)
   Alexander A. Auer      : GIAO ZORA, VPT2 properties, NMR spectrum
   Ute Becker             : All parallelization in ORCA, NUMFREQ, NUMCALC
   Giovanni Bistoni       : ED, misc. LED, open-shell LED, HFLD
   Martin Brehm           : Molecular dynamics
   Dmytro Bykov           : pre 5.0 version of the SCF Hessian
   Marcos Casanova-Páez   : Triplet and SCS-CIS(D). UHF-(DLPNO)-IP/EA/STEOM-CCSD. UHF-CVS-IP/STEOM-CCSD
   Vijay G. Chilkuri      : MRCI spin determinant printing, contributions to CSF-ICE
   Pauline Colinet        : FMM embedding
   Dipayan Datta          : RHF DLPNO-CCSD density
   Achintya Kumar Dutta   : EOM-CC, STEOM-CC
   Nicolas Foglia         : Exact transition moments, OPA infrastructure, MCD improvements
   Dmitry Ganyushin       : Spin-Orbit,Spin-Spin,Magnetic field MRCI
   Miquel Garcia          : C-PCM and meta-GGA Hessian, CCSD/C-PCM, Gaussian charge scheme
   Tiago L. C. Gouveia    : GS-ROHF, GS-ROCIS
   Yang Guo               : DLPNO-NEVPT2, F12-NEVPT2, CIM, IAO-localization
   Andreas Hansen         : Spin unrestricted coupled pair/coupled cluster methods
   Ingolf Harden          : AUTO-CI MPn and infrastructure 
   Benjamin Helmich-Paris : MC-RPA, TRAH-(SCF,CASSCF), AVAS, COSX integrals, SCF dyn. polar.
   Lee Huntington         : MR-EOM, pCC
   Robert Izsak           : Overlap fitted RIJCOSX, COSX-SCS-MP3, EOM
   Riya Kayal             : Wick's Theorem for AUTO-CI, AUTO-CI UHF-CCSDT
   Emily Kempfer          : AUTO-CI, RHF CISDT and CCSDT
   Christian Kollmar      : KDIIS, OOCD, Brueckner-CCSD(T), CCSD density, CASPT2, CASPT2-K, improved NEVPT2
   Axel Koslowski         : Symmetry handling
   Simone Kossmann        : Meta GGA functionals, TD-DFT gradient, OOMP2, (MP2 Hessian; deprecated post 5.0)
   Lucas Lang             : DCDCAS
   Marvin Lechner         : AUTO-CI (C++ implementation), FIC-MRCC
   Spencer Leger          : CASSCF response
   Dagmar Lenk            : GEPOL surface, SMD, ORCA-2-JSON
   Dimitrios Liakos       : Extrapolation schemes; Compound Job, initial MDCI parallelization
   Dimitrios Manganas     : Further ROCIS development; embedding schemes. LFT, Crystal Embedding
   Dimitrios Pantazis     : SARC Basis sets
   Anastasios Papadopoulos: AUTO-CI, single reference methods and gradients
   Taras Petrenko         : pre 6.0 DFT Hessian and TD-DFT gradient, (ASA, deprecated), ECA, 1-Electron XAS/XES, NRVS
   Peter Pinski           : DLPNO-MP2, DLPNO-MP2 Gradient
   Christoph Reimann      : Effective Core Potentials
   Marius Retegan         : Local ZFS, SOC
   Christoph Riplinger    : Optimizer, TS searches, QM/MM, DLPNO-CCSD(T), (RO)-DLPNO pert. Triples
   Michael Roemelt        : Original ROCIS implementation
   Masaaki Saitow         : Open-shell DLPNO-CCSD energy and density
   Barbara Sandhoefer     : DKH picture change effects
   Kantharuban Sivalingam : CASSCF convergence/infrastructure, NEVPT2 and variants, FIC-MRCI
   Bernardo de Souza      : ESD, SOC TD-DFT
   Georgi Stoychev        : AutoAux, RI-MP2 NMR, DLPNO-MP2 response, X2C
   Van Anh Tran           : RI-MP2 g-tensors
   Willem Van den Heuvel  : Paramagnetic NMR
   Zikuan Wang            : NOTCH, Electric field optimization 
   Frank Wennmohs         : Technical directorship and infrastructure
   Hang Xu                : AUTO-CI-Response properties 


 We gratefully acknowledge several colleagues who have allowed us to
 interface, adapt or use parts of their codes:
   Stefan Grimme, W. Hujo, H. Kruse, P. Pracht,  : VdW corrections, initial TS optimization,
                  C. Bannwarth, S. Ehlert,         DFT functionals, gCP, sTDA/sTD-DF
                  L. Wittmann, M. Mueller
   Ed Valeev, F. Pavosevic, A. Kumar             : LibInt (2-el integral package), F12 methods
   Garnet Chan, S. Sharma, J. Yang, R. Olivares  : DMRG
   Ulf Ekstrom                                   : XCFun DFT Library
   Mihaly Kallay                                 : mrcc  (arbitrary order and MRCC methods)
   Frank Weinhold                                : gennbo (NPA and NBO analysis)
   Simon Mueller                                 : openCOSMO-RS
   Christopher J. Cramer and Donald G. Truhlar   : smd solvation model
   Lars Goerigk                                  : TD-DFT with DH, B97 family of functionals
   V. Asgeirsson, H. Jonsson                     : NEB implementation
   FAccTs GmbH                                   : IRC, NEB, NEB-TS, DLPNO-Multilevel, CI-OPT
                                                   MM, QMMM, 2- and 3-layer-ONIOM, Crystal-QMMM,
                                                   LR-CPCM, SF, NACMEs, symmetry and pop. for TD-DFT,
                                                   nearIR, NL-DFT gradient (VV10), updates on ESD,
                                                   ML-optimized integration grids, MBIS, APM,
                                                   GOAT, DOCKER, SOLVATOR, interface openCOSMO-RS
   S Lehtola, MJT Oliveira, MAL Marques          : LibXC Library
   Liviu Ungur et al                             : ANISO software


 Your calculation uses the libint2 library for the computation of 2-el integrals
 For citations please refer to: http://libint.valeyev.net

 Your ORCA version has been built with support for libXC version: 6.2.2
 For citations please refer to: https://libxc.gitlab.io

 This ORCA versions uses:
   CBLAS   interface :  Fast vector & matrix operations
   LAPACKE interface :  Fast linear algebra routines
   SCALAPACK package :  Parallel linear algebra routines
   Shared memory     :  Shared parallel matrices
   BLAS/LAPACK       :  OpenBLAS 0.3.27  USE64BITINT DYNAMIC_ARCH NO_AFFINITY Zen SINGLE_THREADED
        Core in use  :  Zen
   Copyright (c) 2011-2014, The OpenBLAS Project


NOTE: MaxCore=8000 MB was set to SCF,MP2,MDCI,CIPSI,MRCI and CIS
      => If you want to overwrite this, your respective input block should be placed after the MaxCore statement
Your calculation utilizes the atom-pairwise dispersion correction
based on EEQ partial charges (D4)


================================================================================

----- Orbital basis set information -----
Your calculation utilizes the basis: pcJ-0
   F. Jensen, Theor. Chem. Acc. 126, 371 (2010).

----- AuxJ basis set information -----
Your calculation utilizes the auxiliary basis: def2/J
   F. Weigend, Phys. Chem. Chem. Phys. 8, 1057 (2006).

================================================================================
                                        WARNINGS
                       Please study these warnings very carefully!
================================================================================

WARNING: Old DensityContainer found on disk!
         Will remove this file - 
         If you want to keep old densities, please start your calculation with a different basename. 


================================================================================
                                       INPUT FILE
================================================================================
NAME = inpJ
|  1> ! pbe0
|  2> ! D4
|  3> ! pcJ-0
|  4> ! def2/J RIJCOSX
|  5> ! DEFGRID2
|  6> ! scfconv7
|  7> ! smallprint printgap noloewdin
|  8> ! NOSOSCF
|  9> %MaxCore 8000
| 10> %output
| 11>        print[P_BondOrder_M] 1
| 12>        print[P_Mayer] 1
| 13>        print[P_basis] 2
| 14> end
| 15> %pal
| 16>     nprocs 4
| 17> end
| 18> ! CPCM(chloroform)
| 19> *xyz 0 1
| 20> C   -5.1830085600   0.1286260900  -0.7137122800
| 21> C   -6.6009663400  -0.3418598000  -0.9341649800
| 22> C   -7.5864406600   0.5550274100  -0.1740543500
| 23> H   -6.7185651400  -1.3836478200  -0.6150603200
| 24> H   -6.8511118100  -0.2844573500  -2.0039384300
| 25> C   -4.9679261600   1.5560542700  -1.0404072900
| 26> C   -5.9704913900   2.4980089100  -0.4115187100
| 27> C   -7.4144340300   2.0123887400  -0.6042460000
| 28> H   -5.8461525700   3.5084624100  -0.8151374000
| 29> H   -5.7600212600   2.5553058200   0.6673698900
| 30> H   -7.6910822900   2.0936428000  -1.6643481400
| 31> H   -8.1036585900   2.6461229400  -0.0342528000
| 32> O   -7.4251651000   0.3970797300   1.2454271400
| 33> H   -8.6130189500   0.2307251200  -0.3850532300
| 34> C   -4.2433481600  -0.6947040800  -0.1909090200
| 35> C   -3.9966367500   1.9811743500  -1.8554996600
| 36> H   -3.2965840900   1.2863620700  -2.3117795300
| 37> H   -3.8864888000   3.0369527100  -2.0918735300
| 38> C   -2.8909021100  -0.3280007300   0.1612693000
| 39> H   -4.5567386600  -1.7188831300   0.0079676500
| 40> C   -1.9233144800  -1.1590530300   0.6042916900
| 41> H   -2.6481055100   0.7281972200   0.0690208600
| 42> C   -2.0569139000  -2.6501112200   0.7801015700
| 43> C   -0.9486530500  -3.4133094800   0.0295231100
| 44> H   -3.0368442000  -3.0193829800   0.4660229800
| 45> H   -1.9574328400  -2.8737899700   1.8544076300
| 46> C    0.4549837100  -2.8843922500   0.3522759500
| 47> H   -1.1333670400  -3.3433542700  -1.0499425200
| 48> H   -1.0083785300  -4.4778883400   0.2870686500
| 49> C    0.5646149800  -1.3722560100   0.1137862700
| 50> H    1.1888404000  -3.4368052300  -0.2434653500
| 51> H    0.6834889900  -3.0854961900   1.4098946900
| 52> C   -0.5494532200  -0.6822150000   0.9634247000
| 53> H   -0.3616504100  -1.0256002300   1.9978742500
| 54> C   -0.1888587000   0.7976351200   0.9062809200
| 55> H   -6.4758865200   0.3661782000   1.4313067900
| 56> C    1.3584205600   0.7888291200   0.9658116000
| 57> H   -0.6404656300   1.3670357900   1.7254897800
| 58> H   -0.5387246100   1.2454308200  -0.0305671200
| 59> C    1.8221689000  -0.6802922700   0.7131908500
| 60> H    1.7154951900   1.1503635600   1.9337973700
| 61> H    1.7893892200   1.4548457400   0.2088741200
| 62> H    1.9996246700  -1.1697655000   1.6840831300
| 63> C    3.1311448800  -0.7380951300  -0.0863741900
| 64> C    0.3975131600  -1.0331053500  -1.3746069300
| 65> H    0.6101251900   0.0216725500  -1.5746534000
| 66> H   -0.6242992600  -1.2300343300  -1.7138621300
| 67> H    1.0776191100  -1.6316507600  -1.9898235600
| 68> H    2.9678546900  -0.1897014100  -1.0280036500
| 69> C    3.5816129600  -2.1633106900  -0.4577860900
| 70> C    4.3003185400  -0.0738241200   0.6089481100
| 71> C    4.4249500400   0.1854923500   1.9102917100
| 72> H    5.1449330200   0.1289185200  -0.0514413500
| 73> H    3.5907292200  -0.0325945200   2.5788827000
| 74> C    5.6366063700   0.7411517000   2.6132274300
| 75> C    6.7943480400   1.0849838000   1.6780973300
| 76> C    6.0391493700  -0.2095080900   3.7764860500
| 77> H    5.3147805300   1.6770293300   3.1018008400
| 78> H    5.1145877300  -0.3977342500   4.3439349600
| 79> C    7.0382568600   0.4415947400   4.7356430500
| 80> C    6.5646603300  -1.5582211700   3.2807710400
| 81> H    7.1553739500   0.2034334800   1.1374994400
| 82> H    7.6351036000   1.5066595500   2.2364244300
| 83> H    6.4840023600   1.8262352300   0.9342385700
| 84> H    6.6833829400   1.4206936400   5.0777322300
| 85> H    8.0166871200   0.5813127800   4.2622172700
| 86> H    7.1897388000  -0.1909997900   5.6173960900
| 87> H    5.8697635800  -2.0234400800   2.5728048800
| 88> H    6.7078912000  -2.2461221000   4.1212821500
| 89> H    7.5324952000  -1.4434169900   2.7792278500
| 90> H    2.9075212600  -2.6343803400  -1.1773783400
| 91> H    3.6309808800  -2.7921332600   0.4391421100
| 92> H    4.5820017100  -2.1411844300  -0.9045688800
| 93> *
| 94> %eprnmr
| 95>  Nuclei = all C { ssfc }
| 96>  SpinSpinRThresh 8.0
| 97> end
| 98> 
| 99>                          ****END OF INPUT****
================================================================================

                       ****************************
                       * Single Point Calculation *
                       ****************************

---------------------------------
CARTESIAN COORDINATES (ANGSTROEM)
---------------------------------
  C     -5.183009    0.128626   -0.713712
  C     -6.600966   -0.341860   -0.934165
  C     -7.586441    0.555027   -0.174054
  H     -6.718565   -1.383648   -0.615060
  H     -6.851112   -0.284457   -2.003938
  C     -4.967926    1.556054   -1.040407
  C     -5.970491    2.498009   -0.411519
  C     -7.414434    2.012389   -0.604246
  H     -5.846153    3.508462   -0.815137
  H     -5.760021    2.555306    0.667370
  H     -7.691082    2.093643   -1.664348
  H     -8.103659    2.646123   -0.034253
  O     -7.425165    0.397080    1.245427
  H     -8.613019    0.230725   -0.385053
  C     -4.243348   -0.694704   -0.190909
  C     -3.996637    1.981174   -1.855500
  H     -3.296584    1.286362   -2.311780
  H     -3.886489    3.036953   -2.091874
  C     -2.890902   -0.328001    0.161269
  H     -4.556739   -1.718883    0.007968
  C     -1.923314   -1.159053    0.604292
  H     -2.648106    0.728197    0.069021
  C     -2.056914   -2.650111    0.780102
  C     -0.948653   -3.413309    0.029523
  H     -3.036844   -3.019383    0.466023
  H     -1.957433   -2.873790    1.854408
  C      0.454984   -2.884392    0.352276
  H     -1.133367   -3.343354   -1.049943
  H     -1.008379   -4.477888    0.287069
  C      0.564615   -1.372256    0.113786
  H      1.188840   -3.436805   -0.243465
  H      0.683489   -3.085496    1.409895
  C     -0.549453   -0.682215    0.963425
  H     -0.361650   -1.025600    1.997874
  C     -0.188859    0.797635    0.906281
  H     -6.475887    0.366178    1.431307
  C      1.358421    0.788829    0.965812
  H     -0.640466    1.367036    1.725490
  H     -0.538725    1.245431   -0.030567
  C      1.822169   -0.680292    0.713191
  H      1.715495    1.150364    1.933797
  H      1.789389    1.454846    0.208874
  H      1.999625   -1.169766    1.684083
  C      3.131145   -0.738095   -0.086374
  C      0.397513   -1.033105   -1.374607
  H      0.610125    0.021673   -1.574653
  H     -0.624299   -1.230034   -1.713862
  H      1.077619   -1.631651   -1.989824
  H      2.967855   -0.189701   -1.028004
  C      3.581613   -2.163311   -0.457786
  C      4.300319   -0.073824    0.608948
  C      4.424950    0.185492    1.910292
  H      5.144933    0.128919   -0.051441
  H      3.590729   -0.032595    2.578883
  C      5.636606    0.741152    2.613227
  C      6.794348    1.084984    1.678097
  C      6.039149   -0.209508    3.776486
  H      5.314781    1.677029    3.101801
  H      5.114588   -0.397734    4.343935
  C      7.038257    0.441595    4.735643
  C      6.564660   -1.558221    3.280771
  H      7.155374    0.203433    1.137499
  H      7.635104    1.506660    2.236424
  H      6.484002    1.826235    0.934239
  H      6.683383    1.420694    5.077732
  H      8.016687    0.581313    4.262217
  H      7.189739   -0.191000    5.617396
  H      5.869764   -2.023440    2.572805
  H      6.707891   -2.246122    4.121282
  H      7.532495   -1.443417    2.779228
  H      2.907521   -2.634380   -1.177378
  H      3.630981   -2.792133    0.439142
  H      4.582002   -2.141184   -0.904569

----------------------------
CARTESIAN COORDINATES (A.U.)
----------------------------
  NO LB      ZA    FRAG     MASS         X           Y           Z
   0 C     6.0000    0    12.011   -9.794467    0.243068   -1.348721
   1 C     6.0000    0    12.011  -12.474019   -0.646021   -1.765316
   2 C     6.0000    0    12.011  -14.336295    1.048850   -0.328915
   3 H     1.0000    0     1.008  -12.696248   -2.614715   -1.162296
   4 H     1.0000    0     1.008  -12.946725   -0.537546   -3.786895
   5 C     6.0000    0    12.011   -9.388020    2.940516   -1.966085
   6 C     6.0000    0    12.011  -11.282594    4.720553   -0.777658
   7 C     6.0000    0    12.011  -14.011250    3.802864   -1.141859
   8 H     1.0000    0     1.008  -11.047627    6.630033   -1.540386
   9 H     1.0000    0     1.008  -10.884863    4.828828    1.261146
  10 H     1.0000    0     1.008  -14.534039    3.956412   -3.145162
  11 H     1.0000    0     1.008  -15.313695    5.000448   -0.064728
  12 O     8.0000    0    15.999  -14.031529    0.750372    2.353516
  13 H     1.0000    0     1.008  -16.276247    0.436007   -0.727645
  14 C     6.0000    0    12.011   -8.018766   -1.312800   -0.360766
  15 C     6.0000    0    12.011   -7.552549    3.743877   -3.506386
  16 H     1.0000    0     1.008   -6.229641    2.430872   -4.368630
  17 H     1.0000    0     1.008   -7.344399    5.739009   -3.953068
  18 C     6.0000    0    12.011   -5.463013   -0.619832    0.304755
  19 H     1.0000    0     1.008   -8.610988   -3.248218    0.015057
  20 C     6.0000    0    12.011   -3.634538   -2.190293    1.141946
  21 H     1.0000    0     1.008   -5.004194    1.376093    0.130431
  22 C     6.0000    0    12.011   -3.887004   -5.007984    1.474178
  23 C     6.0000    0    12.011   -1.792694   -6.450220    0.055791
  24 H     1.0000    0     1.008   -5.738804   -5.705807    0.880656
  25 H     1.0000    0     1.008   -3.699012   -5.430676    3.504323
  26 C     6.0000    0    12.011    0.859795   -5.450711    0.665705
  27 H     1.0000    0     1.008   -2.141753   -6.318024   -1.984104
  28 H     1.0000    0     1.008   -1.905559   -8.461983    0.542481
  29 C     6.0000    0    12.011    1.066968   -2.593188    0.215025
  30 H     1.0000    0     1.008    2.246583   -6.494621   -0.460083
  31 H     1.0000    0     1.008    1.291607   -5.830743    2.664315
  32 C     6.0000    0    12.011   -1.038316   -1.289200    1.820609
  33 H     1.0000    0     1.008   -0.683420   -1.938104    3.775435
  34 C     6.0000    0    12.011   -0.356891    1.507312    1.712623
  35 H     1.0000    0     1.008  -12.237652    0.691977    2.704778
  36 C     6.0000    0    12.011    2.567043    1.490671    1.825119
  37 H     1.0000    0     1.008   -1.210305    2.583323    3.260703
  38 H     1.0000    0     1.008   -1.018042    2.353523   -0.057763
  39 C     6.0000    0    12.011    3.443400   -1.285566    1.347735
  40 H     1.0000    0     1.008    3.241816    2.173872    3.654347
  41 H     1.0000    0     1.008    3.381456    2.749260    0.394715
  42 H     1.0000    0     1.008    3.778743   -2.210536    3.182456
  43 C     6.0000    0    12.011    5.917006   -1.394798   -0.163224
  44 C     6.0000    0    12.011    0.751191   -1.952286   -2.597631
  45 H     1.0000    0     1.008    1.152970    0.040955   -2.975664
  46 H     1.0000    0     1.008   -1.179755   -2.324428   -3.238730
  47 H     1.0000    0     1.008    2.036405   -3.083373   -3.760222
  48 H     1.0000    0     1.008    5.608433   -0.358484   -1.942645
  49 C     6.0000    0    12.011    6.768268   -4.088065   -0.865090
  50 C     6.0000    0    12.011    8.126424   -0.139507    1.150745
  51 C     6.0000    0    12.011    8.361944    0.350530    3.609928
  52 H     1.0000    0     1.008    9.722514    0.243621   -0.097210
  53 H     1.0000    0     1.008    6.785495   -0.061595    4.873382
  54 C     6.0000    0    12.011   10.651642    1.400574    4.938284
  55 C     6.0000    0    12.011   12.839457    2.050322    3.171144
  56 C     6.0000    0    12.011   11.412338   -0.395913    7.136524
  57 H     1.0000    0     1.008   10.043480    3.169126    5.861554
  58 H     1.0000    0     1.008    9.665170   -0.751609    8.208847
  59 C     6.0000    0    12.011   13.300378    0.834493    8.949068
  60 C     6.0000    0    12.011   12.405410   -2.944611    6.199759
  61 H     1.0000    0     1.008   13.521697    0.384434    2.149562
  62 H     1.0000    0     1.008   14.428255    2.847174    4.226230
  63 H     1.0000    0     1.008   12.252989    3.451084    1.765455
  64 H     1.0000    0     1.008   12.629763    2.684722    9.595523
  65 H     1.0000    0     1.008   15.149343    1.098522    8.054423
  66 H     1.0000    0     1.008   13.586637   -0.360937   10.615340
  67 H     1.0000    0     1.008   11.092246   -3.823748    4.861897
  68 H     1.0000    0     1.008   12.676077   -4.244556    7.788095
  69 H     1.0000    0     1.008   14.234353   -2.727663    5.251980
  70 H     1.0000    0     1.008    5.494419   -4.978257   -2.224923
  71 H     1.0000    0     1.008    6.861559   -5.276367    0.829858
  72 H     1.0000    0     1.008    8.658728   -4.046252   -1.709387

--------------------------------
INTERNAL COORDINATES (ANGSTROEM)
--------------------------------
 C      0   0   0     0.000000000000     0.00000000     0.00000000
 C      1   0   0     1.510152519280     0.00000000     0.00000000
 C      2   1   0     1.534058171218   110.40781630     0.00000000
 H      2   1   3     1.095892120790   110.75778268   237.86579545
 H      2   1   3     1.100128643274   109.82774214   118.70906954
 C      1   2   3     1.480047728084   113.87226453   305.87566832
 C      6   1   2     1.512586007564   114.36254443    50.07832913
 C      3   2   1     1.529232873919   110.21408530    56.77260026
 H      7   6   1     1.095164126850   110.24849344   188.65225322
 H      7   6   1     1.100718502946   108.25237416    71.98419857
 H      8   3   2     1.098614140297   108.27699008    64.65224559
 H      8   3   2     1.096148611459   109.50989776   181.58576985
 O      3   2   1     1.437318675981   110.67170580   292.69894942
 H      3   2   1     1.097066765589   109.45076201   177.18446505
 C      1   2   3     1.354310704686   121.22653097   122.37077947
 C      6   1   2     1.337350280229   123.13800316   232.06201819
 H     16   6   1     1.086751651013   121.36614160   358.96717939
 H     16   6   1     1.087507757560   120.97353978   178.39355585
 C     15   1   2     1.444856821329   126.10403744   185.18726792
 H     15   1   2     1.089361400922   116.25895434     3.12052951
 C     19  15   1     1.350237973509   126.47965953   184.43347228
 H     19  15   1     1.087664503989   115.76836018     5.40312936
 C     21  19  15     1.507319622673   125.70413848     1.92514673
 C     23  21  19     1.540805542671   111.67926662   126.12549444
 H     23  21  19     1.093284220268   112.33716915     2.35023163
 H     23  21  19     1.101844896096   107.85045621   244.67272233
 C     24  23  21     1.534313848579   112.63074486    51.00659379
 H     24  23  21     1.097387368188   109.05850976   288.83049544
 H     24  23  21     1.096916125916   109.09795316   172.90479467
 C     27  24  23     1.534748302214   111.85799317   306.05659623
 H     27  24  23     1.094812056225   108.95403631   182.46681383
 H     27  24  23     1.100552069132   109.21433090    65.97065363
 C     21  19  15     1.497947191144   122.68235269   180.84006419
 H     33  21  19     1.106015001309   106.32831196   125.39426808
 C     33  21  19     1.524221177228   121.13467869     2.86644784
 H     13   3   2     0.967799551192   107.65278975    42.18254123
 C     35  33  21     1.548449080830   103.26379547   194.86276312
 H     35  33  21     1.095111454841   112.28452125    73.16136639
 H     35  33  21     1.095724141365   110.68893676   313.42241123
 C     30  27  24     1.555487553697   115.85971648   166.36345878
 H     37  35  33     1.093254724947   111.00987674   251.86025109
 H     37  35  33     1.096479125495   111.26956693   133.58841905
 H     40  30  27     1.101683444805   105.79393231   321.95406481
 C     40  30  27     1.534947406275   118.16159214    82.67887890
 C     30  27  24     1.535662888212   111.12679444   294.68023020
 H     45  30  27     1.094430849249   111.64584524   187.84258728
 H     45  30  27     1.094520778952   111.23946624    67.95206480
 H     45  30  27     1.095122008219   110.86719275   307.88495871
 H     44  40  30     1.101846358720   107.46007029    63.95003660
 C     44  40  30     1.540164823331   114.19771054   305.02813931
 C     44  40  30     1.513834906072   113.75600540   181.91747979
 C     51  44  40     1.332769000115   127.30671237    20.84411161
 H     51  44  40     1.091142720628   113.66410127   195.78678879
 H     52  51  44     1.091100440517   119.20472926   355.85608047
 C     52  51  44     1.506979429761   127.04088877   174.45338046
 C     55  52  51     1.527433989202   114.00738612     2.94574683
 C     55  52  51     1.555302388661   109.36565455   234.63758188
 H     55  52  51     1.103695060506   106.54079032   121.38158453
 H     57  55  52     1.101018428060   105.82072040   310.39311294
 C     57  55  52     1.530402830126   112.18966983   193.64875190
 C     57  55  52     1.530007226252   112.66743327    67.88074805
 H     56  55  52     1.095315823430   111.76651313   299.11931674
 H     56  55  52     1.093805055942   110.90908199   178.55168995
 H     56  55  52     1.095031496534   110.69826896    59.09200623
 H     60  57  55     1.096172961786   111.36118912    51.74675375
 H     60  57  55     1.095891816537   111.49113131   290.96890848
 H     60  57  55     1.095723980335   110.42486755   171.74901861
 H     61  57  55     1.095685270088   111.45649271   308.01056494
 H     61  57  55     1.095528045122   110.47776805   187.70121418
 H     61  57  55     1.096097580861   111.05109724    68.46228041
 H     50  44  40     1.092757631600   112.16573298    67.63331227
 H     50  44  40     1.096510470548   110.27863266   306.43616381
 H     50  44  40     1.095847655447   110.28175188   187.61847430

---------------------------
INTERNAL COORDINATES (A.U.)
---------------------------
 C      0   0   0     0.000000000000     0.00000000     0.00000000
 C      1   0   0     2.853774681891     0.00000000     0.00000000
 C      2   1   0     2.898949817106   110.40781630     0.00000000
 H      2   1   3     2.070935980616   110.75778268   237.86579545
 H      2   1   3     2.078941847871   109.82774214   118.70906954
 C      1   2   3     2.796884871211   113.87226453   305.87566832
 C      6   1   2     2.858373308296   114.36254443    50.07832913
 C      3   2   1     2.889831326695   110.21408530    56.77260026
 H      7   6   1     2.069560271441   110.24849344   188.65225322
 H      7   6   1     2.080056521108   108.25237416    71.98419857
 H      8   3   2     2.076079852014   108.27699008    64.65224559
 H      8   3   2     2.071420677735   109.50989776   181.58576985
 O      3   2   1     2.716138664774   110.67170580   292.69894942
 H      3   2   1     2.073155737590   109.45076201   177.18446505
 C      1   2   3     2.559276332094   121.22653097   122.37077947
 C      6   1   2     2.527225774756   123.13800316   232.06201819
 H     16   6   1     2.053662996001   121.36614160   358.96717939
 H     16   6   1     2.055091830302   120.97353978   178.39355585
 C     15   1   2     2.730383695039   126.10403744   185.18726792
 H     15   1   2     2.058594708608   116.25895434     3.12052951
 C     19  15   1     2.551579985553   126.47965953   184.43347228
 H     19  15   1     2.055388038127   115.76836018     5.40312936
 C     21  19  15     2.848421283138   125.70413848     1.92514673
 C     23  21  19     2.911700501276   111.67926662   126.12549444
 H     23  21  19     2.066007762845   112.33716915     2.35023163
 H     23  21  19     2.082185095681   107.85045621   244.67272233
 C     24  23  21     2.899432977298   112.63074486    51.00659379
 H     24  23  21     2.073761588700   109.05850976   288.83049544
 H     24  23  21     2.072871069863   109.09795316   172.90479467
 C     27  24  23     2.900253975686   111.85799317   306.05659623
 H     27  24  23     2.068894954381   108.95403631   182.46681383
 H     27  24  23     2.079742006780   109.21433090    65.97065363
 C     21  19  15     2.830709954338   122.68235269   180.84006419
 H     33  21  19     2.090065452483   106.32831196   125.39426808
 C     33  21  19     2.880360592484   121.13467869     2.86644784
 H     13   3   2     1.828876104285   107.65278975    42.18254123
 C     35  33  21     2.926144695091   103.26379547   194.86276312
 H     35  33  21     2.069460735769   112.28452125    73.16136639
 H     35  33  21     2.070618545506   110.68893676   313.42241123
 C     30  27  24     2.939445481211   115.85971648   166.36345878
 H     37  35  33     2.065952024765   111.00987674   251.86025109
 H     37  35  33     2.072045258748   111.26956693   133.58841905
 H     40  30  27     2.081879996956   105.79393231   321.95406481
 C     40  30  27     2.900630227833   118.16159214    82.67887890
 C     30  27  24     2.901982292747   111.12679444   294.68023020
 H     45  30  27     2.068174577596   111.64584524   187.84258728
 H     45  30  27     2.068344520105   111.23946624    67.95206480
 H     45  30  27     2.069480678764   110.86719275   307.88495871
 H     44  40  30     2.082187859640   107.46007029    63.95003660
 C     44  40  30     2.910489717195   114.19771054   305.02813931
 C     44  40  30     2.860733384446   113.75600540   181.91747979
 C     51  44  40     2.518568409997   127.30671237    20.84411161
 H     51  44  40     2.061960915008   113.66410127   195.78678879
 H     52  51  44     2.061881017179   119.20472926   355.85608047
 C     52  51  44     2.847778411701   127.04088877   174.45338046
 C     55  52  51     2.886431927235   114.00738612     2.94574683
 C     55  52  51     2.939095570004   109.36565455   234.63758188
 H     55  52  51     2.085681399718   106.54079032   121.38158453
 H     57  55  52     2.080623297434   105.82072040   310.39311294
 C     57  55  52     2.892042223516   112.18966983   193.64875190
 C     57  55  52     2.891294640536   112.66743327    67.88074805
 H     56  55  52     2.069846936433   111.76651313   299.11931674
 H     56  55  52     2.066991999628   110.90908199   178.55168995
 H     56  55  52     2.069309636466   110.69826896    59.09200623
 H     60  57  55     2.071466693185   111.36118912    51.74675375
 H     60  57  55     2.070935405661   111.49113131   290.96890848
 H     60  57  55     2.070618241203   110.42486755   171.74901861
 H     61  57  55     2.070545089437   111.45649271   308.01056494
 H     61  57  55     2.070247977311   110.47776805   187.70121418
 H     61  57  55     2.071324243880   111.05109724    68.46228041
 H     50  44  40     2.065012654476   112.16573298    67.63331227
 H     50  44  40     2.072104492313   110.27863266   306.43616381
 H     50  44  40     2.070851953294   110.28175188   187.61847430

---------------------
BASIS SET INFORMATION
---------------------
There are 3 groups of distinct atoms

 Group   1 Type C   : 7s4p contracted to 4s3p pattern {4111/211}
 Group   2 Type H   : 5s contracted to 3s pattern {311}
 Group   3 Type O   : 7s4p contracted to 4s3p pattern {4111/211}

Atom   0C    basis set group =>   1
Atom   1C    basis set group =>   1
Atom   2C    basis set group =>   1
Atom   3H    basis set group =>   2
Atom   4H    basis set group =>   2
Atom   5C    basis set group =>   1
Atom   6C    basis set group =>   1
Atom   7C    basis set group =>   1
Atom   8H    basis set group =>   2
Atom   9H    basis set group =>   2
Atom  10H    basis set group =>   2
Atom  11H    basis set group =>   2
Atom  12O    basis set group =>   3
Atom  13H    basis set group =>   2
Atom  14C    basis set group =>   1
Atom  15C    basis set group =>   1
Atom  16H    basis set group =>   2
Atom  17H    basis set group =>   2
Atom  18C    basis set group =>   1
Atom  19H    basis set group =>   2
Atom  20C    basis set group =>   1
Atom  21H    basis set group =>   2
Atom  22C    basis set group =>   1
Atom  23C    basis set group =>   1
Atom  24H    basis set group =>   2
Atom  25H    basis set group =>   2
Atom  26C    basis set group =>   1
Atom  27H    basis set group =>   2
Atom  28H    basis set group =>   2
Atom  29C    basis set group =>   1
Atom  30H    basis set group =>   2
Atom  31H    basis set group =>   2
Atom  32C    basis set group =>   1
Atom  33H    basis set group =>   2
Atom  34C    basis set group =>   1
Atom  35H    basis set group =>   2
Atom  36C    basis set group =>   1
Atom  37H    basis set group =>   2
Atom  38H    basis set group =>   2
Atom  39C    basis set group =>   1
Atom  40H    basis set group =>   2
Atom  41H    basis set group =>   2
Atom  42H    basis set group =>   2
Atom  43C    basis set group =>   1
Atom  44C    basis set group =>   1
Atom  45H    basis set group =>   2
Atom  46H    basis set group =>   2
Atom  47H    basis set group =>   2
Atom  48H    basis set group =>   2
Atom  49C    basis set group =>   1
Atom  50C    basis set group =>   1
Atom  51C    basis set group =>   1
Atom  52H    basis set group =>   2
Atom  53H    basis set group =>   2
Atom  54C    basis set group =>   1
Atom  55C    basis set group =>   1
Atom  56C    basis set group =>   1
Atom  57H    basis set group =>   2
Atom  58H    basis set group =>   2
Atom  59C    basis set group =>   1
Atom  60C    basis set group =>   1
Atom  61H    basis set group =>   2
Atom  62H    basis set group =>   2
Atom  63H    basis set group =>   2
Atom  64H    basis set group =>   2
Atom  65H    basis set group =>   2
Atom  66H    basis set group =>   2
Atom  67H    basis set group =>   2
Atom  68H    basis set group =>   2
Atom  69H    basis set group =>   2
Atom  70H    basis set group =>   2
Atom  71H    basis set group =>   2
Atom  72H    basis set group =>   2

-------------------------
BASIS SET IN INPUT FORMAT
-------------------------

 # Basis set for element : H 
 NewGTO H 
 S 3 
   1    1357.7500000000      0.0012928364
   2      54.3100000000      0.0588280685
   3       4.3448000000      0.9761499708
 S 1 
   1       0.6604910000      1.0000000000
 S 1 
   1       0.1366870000      1.0000000000
  end;

 # Basis set for element : C 
 NewGTO C 
 S 4 
   1  139534.0000000000      0.0001655246
   2    5581.3600000000      0.0074486101
   3     446.5090000000      0.1285821065
   4      67.4620000000      0.9218029311
 S 1 
   1      15.0674000000      1.0000000000
 S 1 
   1       3.9387600000      1.0000000000
 S 1 
   1       0.2999150000      1.0000000000
 P 2 
   1      28.3900000000      0.0816325586
   2       4.3676900000      0.9660360576
 P 1 
   1       0.8698170000      1.0000000000
 P 1 
   1       0.1889340000      1.0000000000
  end;

 # Basis set for element : O 
 NewGTO O 
 S 4 
   1  253789.0000000000      0.0001641076
   2   10151.6000000000      0.0074010921
   3     812.1250000000      0.1277711901
   4     122.6930000000      0.9223372164
 S 1 
   1      27.5608000000      1.0000000000
 S 1 
   1       7.3172600000      1.0000000000
 S 1 
   1       0.5792400000      1.0000000000
 P 2 
   1      53.4157000000      0.0793786106
   2       8.2177900000      0.9670506337
 P 1 
   1       1.6754400000      1.0000000000
 P 1 
   1       0.3506720000      1.0000000000
  end;

---------------------------------
AUXILIARY/J BASIS SET INFORMATION
---------------------------------
There are 3 groups of distinct atoms

 Group   1 Type C   : 12s5p4d2f1g contracted to 6s4p3d1f1g pattern {711111/2111/211/2/1}
 Group   2 Type H   : 5s2p1d contracted to 3s1p1d pattern {311/2/1}
 Group   3 Type O   : 12s5p4d2f1g contracted to 6s4p3d1f1g pattern {711111/2111/211/2/1}

Atom   0C    basis set group =>   1
Atom   1C    basis set group =>   1
Atom   2C    basis set group =>   1
Atom   3H    basis set group =>   2
Atom   4H    basis set group =>   2
Atom   5C    basis set group =>   1
Atom   6C    basis set group =>   1
Atom   7C    basis set group =>   1
Atom   8H    basis set group =>   2
Atom   9H    basis set group =>   2
Atom  10H    basis set group =>   2
Atom  11H    basis set group =>   2
Atom  12O    basis set group =>   3
Atom  13H    basis set group =>   2
Atom  14C    basis set group =>   1
Atom  15C    basis set group =>   1
Atom  16H    basis set group =>   2
Atom  17H    basis set group =>   2
Atom  18C    basis set group =>   1
Atom  19H    basis set group =>   2
Atom  20C    basis set group =>   1
Atom  21H    basis set group =>   2
Atom  22C    basis set group =>   1
Atom  23C    basis set group =>   1
Atom  24H    basis set group =>   2
Atom  25H    basis set group =>   2
Atom  26C    basis set group =>   1
Atom  27H    basis set group =>   2
Atom  28H    basis set group =>   2
Atom  29C    basis set group =>   1
Atom  30H    basis set group =>   2
Atom  31H    basis set group =>   2
Atom  32C    basis set group =>   1
Atom  33H    basis set group =>   2
Atom  34C    basis set group =>   1
Atom  35H    basis set group =>   2
Atom  36C    basis set group =>   1
Atom  37H    basis set group =>   2
Atom  38H    basis set group =>   2
Atom  39C    basis set group =>   1
Atom  40H    basis set group =>   2
Atom  41H    basis set group =>   2
Atom  42H    basis set group =>   2
Atom  43C    basis set group =>   1
Atom  44C    basis set group =>   1
Atom  45H    basis set group =>   2
Atom  46H    basis set group =>   2
Atom  47H    basis set group =>   2
Atom  48H    basis set group =>   2
Atom  49C    basis set group =>   1
Atom  50C    basis set group =>   1
Atom  51C    basis set group =>   1
Atom  52H    basis set group =>   2
Atom  53H    basis set group =>   2
Atom  54C    basis set group =>   1
Atom  55C    basis set group =>   1
Atom  56C    basis set group =>   1
Atom  57H    basis set group =>   2
Atom  58H    basis set group =>   2
Atom  59C    basis set group =>   1
Atom  60C    basis set group =>   1
Atom  61H    basis set group =>   2
Atom  62H    basis set group =>   2
Atom  63H    basis set group =>   2
Atom  64H    basis set group =>   2
Atom  65H    basis set group =>   2
Atom  66H    basis set group =>   2
Atom  67H    basis set group =>   2
Atom  68H    basis set group =>   2
Atom  69H    basis set group =>   2
Atom  70H    basis set group =>   2
Atom  71H    basis set group =>   2
Atom  72H    basis set group =>   2

-------------------------------------
AUXILIARY/J BASIS SET IN INPUT FORMAT
-------------------------------------

 # Auxiliary/J basis set for element : H 
 NewAuxJGTO H 
 S 3 
   1      15.6752927000      0.1007184237
   2       3.6063578000      0.3404257499
   3       1.2080016000      0.6491996172
 S 1 
   1       0.4726794000      1.0000000000
 S 1 
   1       0.2018100000      1.0000000000
 P 2 
   1       2.0281365000      0.5596620919
   2       0.5358730000      0.5596620919
 D 1 
   1       2.2165124000      1.0000000000
  end;

 # Auxiliary/J basis set for element : C 
 NewAuxJGTO C 
 S 7 
   1    1861.0916331000      0.0134602335
   2     642.9939764000      0.0299160374
   3     235.1105725000      0.1008649584
   4      90.7028894000      0.2370970548
   5      36.7794552000      0.3924037254
   6      15.6046273000      0.3195862154
   7       6.8907294000      0.0530104441
 S 1 
   1       3.1478850000     -1.0000000000
 S 1 
   1       1.4777287000      1.0000000000
 S 1 
   1       0.7076466000      1.0000000000
 S 1 
   1       0.3430122000      1.0000000000
 S 1 
   1       0.1669453000      1.0000000000
 P 2 
   1      13.5472892000     -0.6769313712
   2       5.4669419000     -0.3779500978
 P 1 
   1       2.1751721000      1.0000000000
 P 1 
   1       0.8582194000      1.0000000000
 P 1 
   1       0.3376720000      1.0000000000
 D 2 
   1       5.9287253000     -0.3533329857
   2       1.9809209000     -0.7456525731
 D 1 
   1       0.8055417000     -1.0000000000
 D 1 
   1       0.3531244000     -1.0000000000
 F 2 
   1       1.6755626000      0.6311076882
   2       0.5997536000      0.4968166032
 G 1 
   1       1.0024600000     -1.0000000000
  end;

 # Auxiliary/J basis set for element : O 
 NewAuxJGTO O 
 S 7 
   1    2876.8216605000      0.0168151159
   2    1004.7443032000      0.0340137548
   3     369.7579954000      0.1194951309
   4     142.9442404000      0.2664627624
   5      57.8366425000      0.4202764046
   6      24.3864983000      0.2765077335
   7      10.6622662000      0.0057008815
 S 1 
   1       4.8070437000     -1.0000000000
 S 1 
   1       2.2210770000      1.0000000000
 S 1 
   1       1.0447795000      1.0000000000
 S 1 
   1       0.4968425000      1.0000000000
 S 1 
   1       0.2371384000      1.0000000000
 P 2 
   1      64.2613382000     -0.2731534179
   2      16.3006076000     -0.8168011598
 P 1 
   1       4.3550542000      1.0000000000
 P 1 
   1       1.2019554000      1.0000000000
 P 1 
   1       0.3354196000      1.0000000000
 D 2 
   1       9.2146611000     -0.4661230638
   2       2.8435251000     -0.6600908911
 D 1 
   1       0.9955759000     -1.0000000000
 D 1 
   1       0.3649441000     -1.0000000000
 F 2 
   1       2.6420115000      0.5931563945
   2       0.7345613000      0.5931563945
 G 1 
   1       1.3931000000     -1.0000000000
  end;


Checking for AutoStart:
The File: inpJ.gbw exists
Trying to determine its content:
     ... Fine, the file contains calculation information
     ... Fine, the calculation information was read
     ... Fine, the file contains a basis set
     ... Fine, the basis set was read
     ... Fine, the file contains a geometry
     ... Fine, the geometry was read
     ... Fine, the file contains a set of orbitals
     ... Fine, the orbitals can be read
     => possible old guess file was deleted
     => GBW file was renamed to GES file
     => GES file is set as startup file
     => Guess is set to MORead
     ... now leaving AutoStart



           ************************************************************
           *        Program running with 4 parallel MPI-processes     *
           *              working on a common directory               *
           ************************************************************
------------------------------------------------------------------------------
                             ORCA STARTUP CALCULATIONS
                           -- RI-GTO INTEGRALS CHOSEN --
------------------------------------------------------------------------------
------------------------------------------------------------------------------
                   ___                                                        
                  /   \      - P O W E R E D   B Y -                         
                 /     \                                                     
                 |  |  |   _    _      __       _____    __    __             
                 |  |  |  | |  | |    /  \     |  _  \  |  |  /  |          
                  \  \/   | |  | |   /    \    | | | |  |  | /  /          
                 / \  \   | |__| |  /  /\  \   | |_| |  |  |/  /          
                |  |  |   |  __  | /  /__\  \  |    /   |      \           
                |  |  |   | |  | | |   __   |  |    \   |  |\   \          
                \     /   | |  | | |  |  |  |  | |\  \  |  | \   \       
                 \___/    |_|  |_| |__|  |__|  |_| \__\ |__|  \__/        
                                                                              
                      - O R C A' S   B I G   F R I E N D -                    
                                      &                                       
                       - I N T E G R A L  F E E D E R -                       
                                                                              
 v1 FN, 2020, v2 2021, v3 2022-2024                                           
------------------------------------------------------------------------------


----------------------
SHARK INTEGRAL PACKAGE
----------------------

Number of atoms                             ...     73
Number of basis functions                   ...    509
Number of shells                            ...    335
Maximum angular momentum                    ...      1
Integral batch strategy                     ... SHARK/LIBINT Hybrid
RI-J (if used) integral strategy            ... SPLIT-RIJ (Revised 2003 algorithm where possible)
Printlevel                                  ...      1
Contraction scheme used                     ... SEGMENTED contraction
Prescreening option                         ... SCHWARTZ
   Thresh                                   ... 3.000e-11
   Tcut                                     ... 1.000e-12
   Tpresel                                  ... 1.000e-12 
Coulomb Range Separation                    ... NOT USED
Exchange Range Separation                   ... NOT USED
Multipole approximations                    ... NOT USED
Finite Nucleus Model                        ... NOT USED
CABS basis                                  ... NOT available
Auxiliary Coulomb fitting basis             ... AVAILABLE
   # of basis functions in Aux-J            ...   1905
   # of shells in Aux-J                     ...    655
   Maximum angular momentum in Aux-J        ...      4
Auxiliary J/K fitting basis                 ... NOT available
Auxiliary Correlation fitting basis         ... NOT available
Auxiliary 'external' fitting basis          ... NOT available

Checking pre-screening integrals            ... done (  0.0 sec) Dimension = 335
Check shell pair data                       ... done (  0.0 sec)
Shell pair information
Shell pair cut-off parameter TPreSel        ...   1.0e-12
Total number of shell pairs                 ...     56280
Shell pairs after pre-screening             ...     21914
Total number of primitive shell pairs       ...    145865
Primitive shell pairs kept                  ...     37644
          la=0 lb=0:  11016 shell pairs
          la=1 lb=0:   9023 shell pairs
          la=1 lb=1:   1875 shell pairs

Calculating one electron integrals          ... done (  0.0 sec)
Calculating RI/J V-Matrix + Cholesky decomp.... done (  0.2 sec)
Calculating Nuclear repulsion               ... done (  0.0 sec) ENN=   2790.275590064611 Eh

Diagonalization of the overlap matrix:
Smallest eigenvalue                        ... 7.556e-03
Time for diagonalization                   ...    0.031 sec
Threshold for overlap eigenvalues          ... 1.000e-07
Number of eigenvalues below threshold      ... 0
Time for construction of square roots      ...    0.017 sec
Total time needed                          ...    0.051 sec

-------------------
DFT GRID GENERATION
-------------------

General Integration Accuracy     IntAcc      ... 4.388
Radial Grid Type                 RadialGrid  ... OptM3 with GC (2021)
Angular Grid (max. ang.)         AngularGrid ... 4 (Lebedev-302)
Angular grid pruning method      GridPruning ... 4 (adaptive)
Weight generation scheme         WeightScheme... mBecke (2022)
Basis function cutoff            BFCut       ... 1.0000e-11
Integration weight cutoff        WCut        ... 1.0000e-14
Partially contracted basis set               ... off
Rotationally invariant grid construction     ... off
Angular grids for H and He will be reduced by one unit

Total number of grid points                  ...   309811
Total number of batches                      ...     4880
Average number of points per batch           ...       63
Average number of grid points per atom       ...     4244

--------------------
COSX GRID GENERATION
--------------------

GRIDX 1
-------
General Integration Accuracy     IntAcc      ... 3.816
Radial Grid Type                 RadialGrid  ... OptM3 with GC (2021)
Angular Grid (max. ang.)         AngularGrid ... 1 (Lebedev-50)
Angular grid pruning method      GridPruning ... 4 (adaptive)
Weight generation scheme         WeightScheme... mBecke (2022)
Basis function cutoff            BFCut       ... 1.0000e-11
Integration weight cutoff        WCut        ... 1.0000e-14
Partially contracted basis set               ... on
Rotationally invariant grid construction     ... off
Angular grids for H and He will be reduced by one unit

Total number of grid points                  ...    39398
Total number of batches                      ...      354
Average number of points per batch           ...      111
Average number of grid points per atom       ...      540
UseSFitting                                  ... on

GRIDX 2
-------
General Integration Accuracy     IntAcc      ... 4.020
Radial Grid Type                 RadialGrid  ... OptM3 with GC (2021)
Angular Grid (max. ang.)         AngularGrid ... 2 (Lebedev-110)
Angular grid pruning method      GridPruning ... 4 (adaptive)
Weight generation scheme         WeightScheme... mBecke (2022)
Basis function cutoff            BFCut       ... 1.0000e-11
Integration weight cutoff        WCut        ... 1.0000e-14
Partially contracted basis set               ... on
Rotationally invariant grid construction     ... off
Angular grids for H and He will be reduced by one unit

Total number of grid points                  ...    81424
Total number of batches                      ...      676
Average number of points per batch           ...      120
Average number of grid points per atom       ...     1115
UseSFitting                                  ... on

GRIDX 3
-------
General Integration Accuracy     IntAcc      ... 4.338
Radial Grid Type                 RadialGrid  ... OptM3 with GC (2021)
Angular Grid (max. ang.)         AngularGrid ... 3 (Lebedev-194)
Angular grid pruning method      GridPruning ... 4 (adaptive)
Weight generation scheme         WeightScheme... mBecke (2022)
Basis function cutoff            BFCut       ... 1.0000e-11
Integration weight cutoff        WCut        ... 1.0000e-14
Partially contracted basis set               ... on
Rotationally invariant grid construction     ... off
Angular grids for H and He will be reduced by one unit

Total number of grid points                  ...   176108
Total number of batches                      ...     1418
Average number of points per batch           ...      124
Average number of grid points per atom       ...     2412
UseSFitting                                  ... on
Initializing property integral containers    ... done (  0.0 sec)

SHARK setup successfully completed in   3.6 seconds

Maximum memory used throughout the entire STARTUP-calculation: 85.7 MB


           ************************************************************
           *        Program running with 4 parallel MPI-processes     *
           *              working on a common directory               *
           ************************************************************
-------------------------------------------------------------------------------
                                 ORCA GUESS
                   Start orbitals & Density for SCF / CASSCF
-------------------------------------------------------------------------------

------------
SCF SETTINGS
------------
Hamiltonian:
 Density Functional     Method          .... DFT(GTOs)
 Exchange Functional    Exchange        .... PBE
   PBE kappa parameter   XKappa         ....  0.804000
   PBE mue parameter    XMuePBE         ....  0.219520
 Correlation Functional Correlation     .... PBE
   PBE beta parameter  CBetaPBE         ....  0.066725
 LDA part of GGA corr.  LDAOpt          .... PW91-LDA
 Gradients option       PostSCFGGA      .... off
 Hybrid DFT is turned on
   Fraction HF Exchange ScalHFX         ....  0.250000
   Scaling of DF-GGA-X  ScalDFX         ....  0.750000
   Scaling of DF-GGA-C  ScalDFC         ....  1.000000
   Scaling of DF-LDA-C  ScalLDAC        ....  1.000000
   Perturbative correction              ....  0.000000
   NL short-range parameter             ....  6.900000
 RI-approximation to the Coulomb term is turned on
   Number of AuxJ basis functions       .... 1905
   RIJ-COSX (HFX calculated with COS-X)).... on


General Settings:
 Integral files         IntName         .... inpJ
 Hartree-Fock type      HFTyp           .... RHF
 Total Charge           Charge          ....    0
 Multiplicity           Mult            ....    1
 Number of Electrons    NEL             ....  220
 Basis Dimension        Dim             ....  509
 Nuclear Repulsion      ENuc            ....   2790.2755900646 Eh

Convergence Acceleration:
 AO-DIIS                CNVDIIS         .... on
   Start iteration      DIISMaxIt       ....    12
   Startup error        DIISStart       ....  0.200000
   # of expansion vecs  DIISMaxEq       ....     5
   Bias factor          DIISBfac        ....   1.050
   Max. coefficient     DIISMaxC        ....  10.000
 MO-DIIS                CNVKDIIS        .... off
 Trust-Rad. Augm. Hess. CNVTRAH         .... auto
   Auto Start mean grad. ratio tolernc. ....  1.125000
   Auto Start start iteration           ....     1
   Auto Start num. interpolation iter.  ....    10
   Max. Number of Micro iterations      ....    24
   Max. Number of Macro iterations      .... Maxiter - #DIIS iter
   Number of Davidson start vectors     ....     2
   Converg. threshold    (grad. norm)   ....   1.000e-04
   Grad. Scal. Fac. for Micro threshold ....   0.100
   Minimum threshold for Micro iter.    ....   1.000e-02
   NR start threshold (gradient norm)   ....   1.000e-04
   Initial trust radius                 ....   0.400
   Minimum AH scaling param. (alpha)    ....   1.000
   Maximum AH scaling param. (alpha)    .... 1000.000
   Quad. conv. algorithm                .... NR
   White noise on init. David. guess    .... on
   Maximum white noise                  ....   0.010
   Pseudo random numbers                .... off
   Inactive MOs                         .... canonical
   Orbital update algorithm             .... Taylor
   Preconditioner                       .... Diag
   Full preconditioner red. dimension   ....   250
 SOSCF                  CNVSOSCF        .... off
 Level Shifting         CNVShift        .... on
   Level shift para.    LevelShift      ....    0.2500
   Turn off err/grad.   ShiftErr        ....    0.0010
 Zerner damping         CNVZerner       .... off
 Static damping         CNVDamp         .... on
   Fraction old density DampFac         ....    0.7000
   Max. Damping (<1)    DampMax         ....    0.9800
   Min. Damping (>=0)   DampMin         ....    0.0000
   Turn off err/grad.   DampErr         ....    0.1000

SCF Procedure:
 Maximum # iterations   MaxIter         ....   125
 SCF integral mode      SCFMode         .... Direct
   Integral package                     .... SHARK and LIBINT hybrid scheme
 Reset frequency        DirectResetFreq ....    20
 Integral Threshold     Thresh          ....  3.000e-11 Eh
 Primitive CutOff       TCut            ....  1.000e-12 Eh

Convergence Tolerance:
 Convergence Check Mode ConvCheckMode   .... Total+1el-Energy
 Convergence forced     ConvForced      .... 0
 Energy Change          TolE            ....  1.000e-07 Eh
 1-El. energy change                    ....  1.000e-04 Eh
 DIIS Error             TolErr          ....  1.000e-07

---------------------
INITIAL GUESS: MOREAD
---------------------
Guess MOs are being read from file: inpJ.ges
Input Geometry matches current geometry (good)
Input basis set matches current basis set (good)
Occupation numbers will be reassigned to an Aufbau configuration
MOs were renormalized
MOs were reorthogonalized (Cholesky)
                      ------------------
                      INITIAL GUESS DONE (   0.1 sec)
                      ------------------
             **** ENERGY FILE WAS UPDATED (inpJ.en.tmp) ****
Finished Guess after   0.3 sec
Maximum memory used throughout the entire GUESS-calculation: 36.8 MB


           ************************************************************
           *        Program running with 4 parallel MPI-processes     *
           *              working on a common directory               *
           ************************************************************

-------------------------------------------------------------------------------------------
                                      ORCA LEAN-SCF
                              memory conserving SCF solver
-------------------------------------------------------------------------------------------

--------------------
CPCM SOLVATION MODEL
--------------------
CPCM parameters:
  Epsilon                                         ...       4.8030
  Refrac                                          ...       1.4459
  Rsolv                                           ...       1.3000
  Surface type                                    ... GAUSSIAN VDW
  Discretization scheme                           ... Constant charge density
    Threshold for H atoms                         ...       5.0000 (charges/Ang^2)
    Threshold for non-H atoms                     ...       5.0000 (charges/Ang^2)
  Epsilon function type                           ...         CPCM
Solvent:                                          ... CHLOROFORM
Radii:
  Scheme                                          ... Element-dependent radii
  Radius for C  used is    3.8550 Bohr (=   2.0400 Ang.)
  Radius for H  used is    2.4944 Bohr (=   1.3200 Ang.)
  Radius for O  used is    3.4469 Bohr (=   1.8240 Ang.)
Calculating surface                               ...        done! (  0.0s)
Cavity surface points                             ...         5355
Cavity Volume                                     ...    3597.7663
Cavity Surface-area                               ...    1781.1670
Calculating surface distance matrix               ...        done! (  0.3s)
Performing Cholesky decomposition & store         ...        done! (  1.0s)
Overall time for CPCM initialization              ...                 1.3s

----------------------------------------D-I-I-S--------------------------------------------
Iteration    Energy (Eh)           Delta-E    RMSDP     MaxDP     DIISErr   Damp  Time(sec)
-------------------------------------------------------------------------------------------
               ***  Starting incremental Fock matrix formation  ***
    1    -1165.5104001790068651     0.00e+00  4.16e-08  5.84e-06  6.40e-06  0.700   6.1

  HOMO= 109 E= -6.018 eV LUMO=  5.939 eV gap=  11.958 eV
    2    -1165.5104002040357045    -2.50e-08  2.79e-08  3.49e-06  3.21e-06  0.700   2.0
                 **** Energy Check signals convergence ****

  HOMO= 109 E= -6.018 eV LUMO=  5.939 eV gap=  11.958 eV

               *****************************************************
               *                     SUCCESS                       *
               *           SCF CONVERGED AFTER   2 CYCLES          *
               *****************************************************

Recomputing exchange energy using gridx3       ... done (    8.603 sec)
Old exchange energy                            :    -42.067961681 Eh
New exchange energy                            :    -42.068011869 Eh
Exchange energy change after final integration :     -0.000050188 Eh
Total energy after final integration           :  -1165.510450392 Eh
             **** ENERGY FILE WAS UPDATED (inpJ.en.tmp) ****

----------------
TOTAL SCF ENERGY
----------------

Total Energy       :      -1165.51045039160340 Eh          -31715.15172 eV

Components:
Nuclear Repulsion  :       2790.27559006461115 Eh           75927.25887 eV
Electronic Energy  :      -3955.77236482646867 Eh         -107642.03846 eV
One Electron Energy:      -7122.32098295977266 Eh         -193808.20697 eV
Two Electron Energy:       3166.54861813330399 Eh           86166.16850 eV
CPCM Dielectric    :         -0.01362544217836 Eh              -0.37077 eV

Virial components:
Potential Energy   :      -2322.40760352922234 Eh          -63195.92371 eV
Kinetic Energy     :       1156.89715313761894 Eh           31480.77199 eV
Virial Ratio       :          2.00744517110326

DFT components:
N(Alpha)           :      109.999955057837 electrons
N(Beta)            :      109.999955057837 electrons
N(Total)           :      219.999910115674 electrons
E(X)               :     -125.746338385374 Eh       
E(C)               :       -7.329363388037 Eh       
E(XC)              :     -133.075701773411 Eh       

CPCM Solvation Model Properties:
Surface-charge          :         -0.03328358399571
Corrected charge        :          0.00000000000000
Outlying charge corr.   :          0.00003886790362 Eh               0.00106 eV
Free-energy (cav+disp)  :  This term is not implemented in the current solvation scheme

---------------
SCF CONVERGENCE
---------------

  Last Energy change         ...    2.5029e-08  Tolerance :   1.0000e-07
  Last MAX-Density change    ...    3.4884e-06  Tolerance :   1.0000e-05
  Last RMS-Density change    ...    2.7926e-08  Tolerance :   1.0000e-06
  Last DIIS Error            ...    3.2075e-06  Tolerance :   1.0000e-07


----------------
ORBITAL ENERGIES
----------------

  NO   OCC          E(Eh)            E(eV) 
   0   2.0000     -19.212388      -522.7957 
   1   2.0000     -10.300518      -280.2913 
   2   2.0000     -10.270558      -279.4761 
   3   2.0000     -10.268465      -279.4191 
   4   2.0000     -10.263934      -279.2958 
   5   2.0000     -10.257591      -279.1232 
   6   2.0000     -10.257128      -279.1106 
   7   2.0000     -10.252159      -278.9754 
   8   2.0000     -10.251249      -278.9507 
   9   2.0000     -10.249453      -278.9018 
  10   2.0000     -10.248247      -278.8690 
  11   2.0000     -10.247717      -278.8546 
  12   2.0000     -10.246169      -278.8124 
  13   2.0000     -10.244762      -278.7742 
  14   2.0000     -10.244538      -278.7681 
  15   2.0000     -10.243759      -278.7469 
  16   2.0000     -10.243031      -278.7270 
  17   2.0000     -10.242770      -278.7200 
  18   2.0000     -10.241843      -278.6947 
  19   2.0000     -10.241514      -278.6858 
  20   2.0000     -10.240110      -278.6476 
  21   2.0000     -10.234290      -278.4892 
  22   2.0000     -10.233970      -278.4805 
  23   2.0000     -10.233153      -278.4582 
  24   2.0000     -10.227204      -278.2964 
  25   2.0000     -10.225143      -278.2403 
  26   2.0000     -10.224519      -278.2233 
  27   2.0000     -10.222194      -278.1600 
  28   2.0000     -10.220770      -278.1213 
  29   2.0000      -1.043175       -28.3862 
  30   2.0000      -0.901717       -24.5370 
  31   2.0000      -0.882330       -24.0094 
  32   2.0000      -0.860352       -23.4114 
  33   2.0000      -0.846068       -23.0227 
  34   2.0000      -0.822594       -22.3839 
  35   2.0000      -0.814552       -22.1651 
  36   2.0000      -0.796054       -21.6617 
  37   2.0000      -0.795155       -21.6373 
  38   2.0000      -0.777076       -21.1453 
  39   2.0000      -0.758279       -20.6338 
  40   2.0000      -0.740319       -20.1451 
  41   2.0000      -0.731057       -19.8931 
  42   2.0000      -0.715415       -19.4674 
  43   2.0000      -0.703095       -19.1322 
  44   2.0000      -0.702386       -19.1129 
  45   2.0000      -0.696211       -18.9449 
  46   2.0000      -0.672471       -18.2989 
  47   2.0000      -0.670656       -18.2495 
  48   2.0000      -0.633529       -17.2392 
  49   2.0000      -0.622374       -16.9356 
  50   2.0000      -0.612630       -16.6705 
  51   2.0000      -0.606838       -16.5129 
  52   2.0000      -0.596739       -16.2381 
  53   2.0000      -0.578136       -15.7319 
  54   2.0000      -0.562065       -15.2946 
  55   2.0000      -0.541127       -14.7248 
  56   2.0000      -0.532110       -14.4795 
  57   2.0000      -0.529408       -14.4059 
  58   2.0000      -0.515224       -14.0200 
  59   2.0000      -0.510028       -13.8786 
  60   2.0000      -0.500493       -13.6191 
  61   2.0000      -0.492103       -13.3908 
  62   2.0000      -0.486919       -13.2497 
  63   2.0000      -0.481752       -13.1091 
  64   2.0000      -0.475797       -12.9471 
  65   2.0000      -0.473445       -12.8831 
  66   2.0000      -0.465235       -12.6597 
  67   2.0000      -0.459355       -12.4997 
  68   2.0000      -0.456891       -12.4326 
  69   2.0000      -0.453677       -12.3452 
  70   2.0000      -0.451054       -12.2738 
  71   2.0000      -0.441548       -12.0151 
  72   2.0000      -0.439694       -11.9647 
  73   2.0000      -0.433111       -11.7855 
  74   2.0000      -0.431096       -11.7307 
  75   2.0000      -0.421028       -11.4568 
  76   2.0000      -0.416984       -11.3467 
  77   2.0000      -0.412984       -11.2379 
  78   2.0000      -0.410005       -11.1568 
  79   2.0000      -0.407707       -11.0943 
  80   2.0000      -0.402012       -10.9393 
  81   2.0000      -0.399516       -10.8714 
  82   2.0000      -0.395514       -10.7625 
  83   2.0000      -0.391179       -10.6445 
  84   2.0000      -0.382946       -10.4205 
  85   2.0000      -0.380871       -10.3640 
  86   2.0000      -0.375207       -10.2099 
  87   2.0000      -0.373284       -10.1576 
  88   2.0000      -0.365139        -9.9359 
  89   2.0000      -0.363840        -9.9006 
  90   2.0000      -0.360689        -9.8148 
  91   2.0000      -0.356888        -9.7114 
  92   2.0000      -0.355283        -9.6677 
  93   2.0000      -0.346013        -9.4155 
  94   2.0000      -0.340941        -9.2775 
  95   2.0000      -0.339191        -9.2299 
  96   2.0000      -0.338654        -9.2153 
  97   2.0000      -0.333060        -9.0630 
  98   2.0000      -0.331359        -9.0167 
  99   2.0000      -0.329756        -8.9731 
 100   2.0000      -0.327253        -8.9050 
 101   2.0000      -0.325606        -8.8602 
 102   2.0000      -0.319218        -8.6864 
 103   2.0000      -0.316058        -8.6004 
 104   2.0000      -0.310576        -8.4512 
 105   2.0000      -0.301317        -8.1993 
 106   2.0000      -0.276569        -7.5258 
 107   2.0000      -0.275035        -7.4841 
 108   2.0000      -0.255841        -6.9618 
 109   2.0000      -0.221171        -6.0184 
 110   0.0000      -0.031732        -0.8635 
 111   0.0000       0.019290         0.5249 
 112   0.0000       0.029544         0.8039 
 113   0.0000       0.080670         2.1951 
 114   0.0000       0.089531         2.4363 
 115   0.0000       0.102137         2.7793 
 116   0.0000       0.104226         2.8361 
 117   0.0000       0.107612         2.9283 
 118   0.0000       0.109971         2.9925 
 119   0.0000       0.113193         3.0801 
 120   0.0000       0.118096         3.2136 
*Only the first 10 virtual orbitals were printed.

                    ********************************
                    * MULLIKEN POPULATION ANALYSIS *
                    ********************************

-----------------------
MULLIKEN ATOMIC CHARGES
-----------------------
   0 C :    0.078135
   1 C :   -0.500754
   2 C :   -0.073901
   3 H :    0.223021
   4 H :    0.219975
   5 C :    0.138211
   6 C :   -0.479612
   7 C :   -0.439783
   8 H :    0.225315
   9 H :    0.207504
  10 H :    0.208712
  11 H :    0.227907
  12 O :   -0.488351
  13 H :    0.247176
  14 C :   -0.280194
  15 C :   -0.513794
  16 H :    0.201076
  17 H :    0.196936
  18 C :   -0.259231
  19 H :    0.220219
  20 C :    0.152633
  21 H :    0.220153
  22 C :   -0.479951
  23 C :   -0.427777
  24 H :    0.211798
  25 H :    0.207046
  26 C :   -0.396675
  27 H :    0.208484
  28 H :    0.217434
  29 C :    0.003898
  30 H :    0.223253
  31 H :    0.194542
  32 C :   -0.229798
  33 H :    0.227803
  34 C :   -0.433985
  35 H :    0.341121
  36 C :   -0.418990
  37 H :    0.208101
  38 H :    0.198277
  39 C :   -0.199990
  40 H :    0.210543
  41 H :    0.204580
  42 H :    0.209520
  43 C :   -0.241480
  44 C :   -0.629597
  45 H :    0.205299
  46 H :    0.209045
  47 H :    0.202355
  48 H :    0.219514
  49 C :   -0.621592
  50 C :   -0.179904
  51 C :   -0.180431
  52 H :    0.217477
  53 H :    0.213949
  54 C :   -0.222823
  55 C :   -0.642301
  56 C :   -0.202866
  57 H :    0.224790
  58 H :    0.220525
  59 C :   -0.609981
  60 C :   -0.614303
  61 H :    0.195958
  62 H :    0.212168
  63 H :    0.201447
  64 H :    0.200254
  65 H :    0.197675
  66 H :    0.204167
  67 H :    0.203150
  68 H :    0.200148
  69 H :    0.195543
  70 H :    0.209153
  71 H :    0.197416
  72 H :    0.204657
Sum of atomic charges:    0.0000000

--------------------------------
MULLIKEN REDUCED ORBITAL CHARGES
--------------------------------
  0 C s       :     3.354364  s :     3.354364
      pz      :     0.988207  p :     2.567502
      px      :     0.814638
      py      :     0.764657

  1 C s       :     3.377930  s :     3.377930
      pz      :     1.145806  p :     3.122824
      px      :     0.866497
      py      :     1.110521

  2 C s       :     3.312648  s :     3.312648
      pz      :     0.706043  p :     2.761253
      px      :     1.135476
      py      :     0.919734

  3 H s       :     0.776979  s :     0.776979

  4 H s       :     0.780025  s :     0.780025

  5 C s       :     3.341347  s :     3.341347
      pz      :     0.895770  p :     2.520442
      px      :     0.855596
      py      :     0.769077

  6 C s       :     3.367279  s :     3.367279
      pz      :     1.144672  p :     3.112333
      px      :     0.879883
      py      :     1.087778

  7 C s       :     3.338592  s :     3.338592
      pz      :     1.174450  p :     3.101191
      px      :     0.975796
      py      :     0.950944

  8 H s       :     0.774685  s :     0.774685

  9 H s       :     0.792496  s :     0.792496

 10 H s       :     0.791288  s :     0.791288

 11 H s       :     0.772093  s :     0.772093

 12 O s       :     3.684944  s :     3.684944
      pz      :     1.414227  p :     4.803407
      px      :     1.478339
      py      :     1.910841

 13 H s       :     0.752824  s :     0.752824

 14 C s       :     3.394042  s :     3.394042
      pz      :     0.970792  p :     2.886152
      px      :     0.828089
      py      :     1.087271

 15 C s       :     3.384882  s :     3.384882
      pz      :     0.991958  p :     3.128911
      px      :     0.993504
      py      :     1.143449

 16 H s       :     0.798924  s :     0.798924

 17 H s       :     0.803064  s :     0.803064

 18 C s       :     3.396813  s :     3.396813
      pz      :     1.001224  p :     2.862417
      px      :     0.771330
      py      :     1.089864

 19 H s       :     0.779781  s :     0.779781

 20 C s       :     3.351740  s :     3.351740
      pz      :     0.930451  p :     2.495627
      px      :     0.766566
      py      :     0.798609

 21 H s       :     0.779847  s :     0.779847

 22 C s       :     3.372839  s :     3.372839
      pz      :     1.129906  p :     3.107112
      px      :     1.091659
      py      :     0.885547

 23 C s       :     3.327626  s :     3.327626
      pz      :     1.115542  p :     3.100151
      px      :     0.880757
      py      :     1.103852

 24 H s       :     0.788202  s :     0.788202

 25 H s       :     0.792954  s :     0.792954

 26 C s       :     3.349771  s :     3.349771
      pz      :     1.162150  p :     3.046905
      px      :     0.977900
      py      :     0.906854

 27 H s       :     0.791516  s :     0.791516

 28 H s       :     0.782566  s :     0.782566

 29 C s       :     3.317740  s :     3.317740
      pz      :     0.873366  p :     2.678362
      px      :     0.903029
      py      :     0.901968

 30 H s       :     0.776747  s :     0.776747

 31 H s       :     0.805458  s :     0.805458

 32 C s       :     3.362282  s :     3.362282
      pz      :     1.098396  p :     2.867516
      px      :     0.858568
      py      :     0.910552

 33 H s       :     0.772197  s :     0.772197

 34 C s       :     3.343933  s :     3.343933
      pz      :     1.188820  p :     3.090052
      px      :     0.941223
      py      :     0.960009

 35 H s       :     0.658879  s :     0.658879

 36 C s       :     3.338369  s :     3.338369
      pz      :     1.177929  p :     3.080621
      px      :     0.923996
      py      :     0.978696

 37 H s       :     0.791899  s :     0.791899

 38 H s       :     0.801723  s :     0.801723

 39 C s       :     3.342487  s :     3.342487
      pz      :     1.083046  p :     2.857502
      px      :     0.856911
      py      :     0.917546

 40 H s       :     0.789457  s :     0.789457

 41 H s       :     0.795420  s :     0.795420

 42 H s       :     0.790480  s :     0.790480

 43 C s       :     3.347772  s :     3.347772
      pz      :     1.061105  p :     2.893708
      px      :     0.879356
      py      :     0.953247

 44 C s       :     3.366350  s :     3.366350
      pz      :     0.945913  p :     3.263247
      px      :     1.166262
      py      :     1.151072

 45 H s       :     0.794701  s :     0.794701

 46 H s       :     0.790955  s :     0.790955

 47 H s       :     0.797645  s :     0.797645

 48 H s       :     0.780486  s :     0.780486

 49 C s       :     3.348635  s :     3.348635
      pz      :     1.155567  p :     3.272956
      px      :     1.149349
      py      :     0.968040

 50 C s       :     3.349918  s :     3.349918
      pz      :     0.854892  p :     2.829987
      px      :     0.997668
      py      :     0.977427

 51 C s       :     3.351246  s :     3.351246
      pz      :     0.857582  p :     2.829185
      px      :     0.993535
      py      :     0.978067

 52 H s       :     0.782523  s :     0.782523

 53 H s       :     0.786051  s :     0.786051

 54 C s       :     3.340837  s :     3.340837
      pz      :     0.921288  p :     2.881986
      px      :     0.903656
      py      :     1.057041

 55 C s       :     3.352016  s :     3.352016
      pz      :     1.092063  p :     3.290285
      px      :     1.045455
      py      :     1.152768

 56 C s       :     3.311838  s :     3.311838
      pz      :     0.953052  p :     2.891028
      px      :     1.055654
      py      :     0.882322

 57 H s       :     0.775210  s :     0.775210

 58 H s       :     0.779475  s :     0.779475

 59 C s       :     3.341846  s :     3.341846
      pz      :     1.078382  p :     3.268135
      px      :     1.065971
      py      :     1.123782

 60 C s       :     3.344637  s :     3.344637
      pz      :     1.139675  p :     3.269666
      px      :     1.137392
      py      :     0.992599

 61 H s       :     0.804042  s :     0.804042

 62 H s       :     0.787832  s :     0.787832

 63 H s       :     0.798553  s :     0.798553

 64 H s       :     0.799746  s :     0.799746

 65 H s       :     0.802325  s :     0.802325

 66 H s       :     0.795833  s :     0.795833

 67 H s       :     0.796850  s :     0.796850

 68 H s       :     0.799852  s :     0.799852

 69 H s       :     0.804457  s :     0.804457

 70 H s       :     0.790847  s :     0.790847

 71 H s       :     0.802584  s :     0.802584

 72 H s       :     0.795343  s :     0.795343


------------------------
MULLIKEN OVERLAP CHARGES
------------------------
B(  0-C ,  1-C ) :   0.5249 B(  0-C ,  2-C ) :  -0.1805 B(  0-C ,  3-H ) :  -0.0795 
B(  0-C ,  4-H ) :  -0.0862 B(  0-C ,  5-C ) :   0.4158 B(  0-C ,  6-C ) :  -0.1418 
B(  0-C , 14-C ) :   0.9499 B(  0-C , 15-C ) :  -0.2022 B(  0-C , 18-C ) :  -0.1863 
B(  0-C , 19-H ) :  -0.0751 B(  1-C ,  2-C ) :   0.5265 B(  1-C ,  3-H ) :   0.8091 
B(  1-C ,  4-H ) :   0.7736 B(  1-C ,  5-C ) :  -0.1411 B(  1-C ,  7-C ) :  -0.1576 
B(  1-C , 12-O ) :  -0.1099 B(  1-C , 13-H ) :  -0.0573 B(  1-C , 14-C ) :  -0.1140 
B(  2-C ,  3-H ) :  -0.0590 B(  2-C ,  4-H ) :  -0.0537 B(  2-C ,  6-C ) :  -0.1577 
B(  2-C ,  7-C ) :   0.5149 B(  2-C , 10-H ) :  -0.0625 B(  2-C , 11-H ) :  -0.0698 
B(  2-C , 12-O ) :   0.6966 B(  2-C , 13-H ) :   0.8216 B(  2-C , 35-H ) :  -0.1151 
B(  5-C ,  6-C ) :   0.5305 B(  5-C ,  7-C ) :  -0.1574 B(  5-C ,  8-H ) :  -0.0729 
B(  5-C ,  9-H ) :  -0.0939 B(  5-C , 14-C ) :  -0.1989 B(  5-C , 15-C ) :   1.0626 
B(  5-C , 16-H ) :  -0.0995 B(  5-C , 17-H ) :  -0.0951 B(  6-C ,  7-C ) :   0.5528 
B(  6-C ,  8-H ) :   0.8228 B(  6-C ,  9-H ) :   0.7936 B(  6-C , 10-H ) :  -0.0741 
B(  6-C , 11-H ) :  -0.0561 B(  6-C , 15-C ) :  -0.1298 B(  7-C ,  9-H ) :  -0.0777 
B(  7-C , 10-H ) :   0.7762 B(  7-C , 11-H ) :   0.8043 B(  7-C , 12-O ) :  -0.1080 
B(  7-C , 13-H ) :  -0.0830 B( 12-O , 35-H ) :   0.6663 B( 14-C , 18-C ) :   0.6114 
B( 14-C , 19-H ) :   0.8211 B( 14-C , 20-C ) :  -0.1942 B( 14-C , 21-H ) :  -0.0742 
B( 15-C , 16-H ) :   0.8136 B( 15-C , 17-H ) :   0.8065 B( 18-C , 19-H ) :  -0.0600 
B( 18-C , 20-C ) :   0.9201 B( 18-C , 21-H ) :   0.8331 B( 18-C , 22-C ) :  -0.1508 
B( 18-C , 32-C ) :  -0.1494 B( 20-C , 21-H ) :  -0.0829 B( 20-C , 22-C ) :   0.5328 
B( 20-C , 23-C ) :  -0.1714 B( 20-C , 24-H ) :  -0.0673 B( 20-C , 25-H ) :  -0.0924 
B( 20-C , 29-C ) :  -0.1238 B( 20-C , 32-C ) :   0.5180 B( 20-C , 33-H ) :  -0.0921 
[...]
        0.0000         1.5923        0.0000
        0.0000         0.0000        1.5923

 Diagonalized JT*J matrix:
 
 J[55,60](FC)             1.592            1.592            1.592  iso=      1.592
                ---------------  ---------------  ---------------  ---------------
 J[55,60](Total)          1.592            1.592            1.592  iso=      1.592



-----------------------------------------------------------
 NUCLEUS A = C   56 NUCLEUS B = C   59 
 ( 13C  gnA =  1.405  13C  gnB =  1.405) r(AB) =     1.5304
-----------------------------------------------------------

Fermi-contact contribution to J (Hz):
       26.9017         0.0000        0.0000
        0.0000        26.9017        0.0000
        0.0000         0.0000       26.9017

Total spin-spin coupling tensor J (Hz):
       26.9017         0.0000        0.0000
        0.0000        26.9017        0.0000
        0.0000         0.0000       26.9017

 Diagonalized JT*J matrix:
 
 J[56,59](FC)            26.902           26.902           26.902  iso=     26.902
                ---------------  ---------------  ---------------  ---------------
 J[56,59](Total)         26.902           26.902           26.902  iso=     26.902



-----------------------------------------------------------
 NUCLEUS A = C   56 NUCLEUS B = C   60 
 ( 13C  gnA =  1.405  13C  gnB =  1.405) r(AB) =     1.5300
-----------------------------------------------------------

Fermi-contact contribution to J (Hz):
       26.7891         0.0000        0.0000
        0.0000        26.7891        0.0000
        0.0000         0.0000       26.7891

Total spin-spin coupling tensor J (Hz):
       26.7891         0.0000        0.0000
        0.0000        26.7891        0.0000
        0.0000         0.0000       26.7891

 Diagonalized JT*J matrix:
 
 J[56,60](FC)            26.789           26.789           26.789  iso=     26.789
                ---------------  ---------------  ---------------  ---------------
 J[56,60](Total)         26.789           26.789           26.789  iso=     26.789



-----------------------------------------------------------
 NUCLEUS A = C   59 NUCLEUS B = C   60 
 ( 13C  gnA =  1.405  13C  gnB =  1.405) r(AB) =     2.5180
-----------------------------------------------------------

Fermi-contact contribution to J (Hz):
       -0.8183         0.0000        0.0000
        0.0000        -0.8183        0.0000
        0.0000         0.0000       -0.8183

Total spin-spin coupling tensor J (Hz):
       -0.8183         0.0000        0.0000
        0.0000        -0.8183        0.0000
        0.0000         0.0000       -0.8183

 Diagonalized JT*J matrix:
 
 J[59,60](FC)            -0.818           -0.818           -0.818  iso=     -0.818
                ---------------  ---------------  ---------------  ---------------
 J[59,60](Total)         -0.818           -0.818           -0.818  iso=     -0.818



-----------------------------------------------------------------------------
                SUMMARY OF ISOTROPIC COUPLING CONSTANTS J (Hz)                
-----------------------------------------------------------------------------
                  0 C        1 C        2 C        5 C        6 C        7 C  
      0 C        0.000     33.143     -3.796     41.274     -0.911      2.281
      1 C       33.143      0.000     23.405     -1.217      1.445     -0.683
      2 C       -3.796     23.405      0.000      2.292     -2.786     25.994
      5 C       41.274     -1.217      2.292      0.000     30.432     -2.793
      6 C       -0.911      1.445     -2.786     30.432      0.000     24.831
      7 C        2.281     -0.683     25.994     -2.793     24.831      0.000
     14 C       69.358     -0.382      2.839     -3.009      2.170     -0.620
     15 C       -3.416      2.414     -0.872     64.601     -1.088      2.594
     18 C       -2.404      4.173     -1.115      3.184     -0.818      0.192
     20 C        6.824     -1.106      1.103     -1.381      0.609     -0.103
     22 C       -0.930      0.329     -0.335      0.424     -0.182      0.038
     23 C        0.810     -0.282      0.280     -0.335      0.150      0.000
     26 C       -0.089      0.038      0.000      0.046      0.000      0.000
     29 C        1.136     -0.356      0.000     -0.434      0.201      0.000
     32 C       -1.123      0.545     -0.379      0.470     -0.214      0.044
     34 C        0.020     -0.014      0.013     -0.014      0.005     -0.001
     36 C       -0.015      0.000      0.000      0.016     -0.008      0.000
     39 C       -0.072      0.000      0.000      0.031      0.000      0.000
     43 C        0.000      0.000      0.000      0.000      0.000      0.000
     44 C        0.014     -0.005      0.000     -0.004     -0.002      0.000
     49 C        0.000      0.000      0.000      0.000      0.000      0.000
     50 C        0.000      0.000      0.000      0.000      0.000      0.000
     51 C        0.000      0.000      0.000      0.000      0.000      0.000
     54 C        0.000      0.000      0.000      0.000      0.000      0.000
     55 C        0.000      0.000      0.000      0.000      0.000      0.000
     56 C        0.000      0.000      0.000      0.000      0.000      0.000
     59 C        0.000      0.000      0.000      0.000      0.000      0.000
     60 C        0.000      0.000      0.000      0.000      0.000      0.000
                 14 C       15 C       18 C       20 C       22 C       23 C  
      0 C       69.358     -3.416     -2.404      6.824     -0.930      0.810
      1 C       -0.382      2.414      4.173     -1.106      0.329     -0.282
      2 C        2.839     -0.872     -1.115      1.103     -0.335      0.280
      5 C       -3.009     64.601      3.184     -1.381      0.424     -0.335
      6 C        2.170     -1.088     -0.818      0.609     -0.182      0.150
      7 C       -0.620      2.594      0.192     -0.103      0.038      0.000
     14 C        0.000      3.105     54.044     -2.661      3.788     -0.900
     15 C        3.105      0.000     -1.153      1.011     -0.274      0.249
     18 C       54.044     -1.153      0.000     69.929     -2.171      2.362
     20 C       -2.661      1.011     69.929      0.000     32.165     -2.932
     22 C        3.788     -0.274     -2.171     32.165      0.000     24.372
     23 C       -0.900      0.249      2.362     -2.932     24.372      0.000
     26 C        0.131     -0.032     -0.351      1.046     -1.938     25.459
     29 C       -1.091      0.319      2.272     -2.389      1.071     -2.195
     32 C        4.381     -0.316     -1.270     36.912     -0.257      1.543
     34 C        0.075      0.004      2.466     -1.339      1.588     -0.263
     36 C        0.018     -0.014     -0.141      3.573      0.057      0.168
     39 C        0.261     -0.023     -0.039      2.958     -0.337      2.565
     43 C        0.009      0.017      0.286      0.177      0.002     -0.113
     44 C        0.001      0.026     -0.046      0.685     -0.135      0.603
     49 C       -0.001      0.000     -0.010     -0.031      0.140      0.037
     50 C        0.000      0.000      0.030      0.140     -0.008      0.136
     51 C        0.000      0.000     -0.006      0.039     -0.002     -0.007
     54 C        0.000      0.000      0.000      0.000      0.000      0.000
     55 C        0.000      0.000      0.000      0.000      0.000      0.000
     56 C        0.000      0.000      0.000      0.000      0.000      0.000
     59 C        0.000      0.000      0.000      0.000      0.000      0.000
     60 C        0.000      0.000      0.000      0.000      0.000      0.000
                 26 C       29 C       32 C       34 C       36 C       39 C  
      0 C       -0.089      1.136     -1.123      0.020     -0.015     -0.072
      1 C        0.038     -0.356      0.545     -0.014      0.000      0.000
      2 C        0.000      0.000     -0.379      0.013      0.000      0.000
      5 C        0.046     -0.434      0.470     -0.014      0.016      0.031
      6 C        0.000      0.201     -0.214      0.005     -0.008      0.000
      7 C        0.000      0.000      0.044     -0.001      0.000      0.000
     14 C        0.131     -1.091      4.381      0.075      0.018      0.261
     15 C       -0.032      0.319     -0.316      0.004     -0.014     -0.023
     18 C       -0.351      2.272     -1.270      2.466     -0.141     -0.039
     20 C        1.046     -2.389     36.912     -1.339      3.573      2.958
     22 C       -1.938      1.071     -0.257      1.588      0.057     -0.337
     23 C       25.459     -2.195      1.543     -0.263      0.168      2.565
     26 C        0.000     27.870     -0.954      2.295      3.034     -0.573
     29 C       27.870      0.000     23.258      0.986      0.508     29.132
     32 C       -0.954     23.258      0.000     27.921      1.358      3.544
     34 C        2.295      0.986     27.921      0.000     25.834      0.009
     36 C        3.034      0.508      1.358     25.834      0.000     26.339
     39 C       -0.573     29.132      3.544      0.009     26.339      0.000
     43 C       -0.009     -0.713      2.752      1.633      0.221     30.600
     44 C       -0.571     27.185     -0.940      0.869      0.244     -1.245
     49 C        0.377      0.255     -0.005      0.004      3.228     -1.062
     50 C       -0.090      3.311      0.013     -0.067      0.489     -1.649
     51 C        0.021     -0.116      0.034      0.011      0.110      1.990
     54 C        0.004      0.002     -0.003     -0.001      0.033     -0.115
     55 C       -0.003      0.060      0.002     -0.000      0.015      0.099
     56 C        0.002     -0.029      0.003     -0.003     -0.048      0.061
     59 C        0.000      0.000      0.000      0.000     -0.000     -0.007
     60 C       -0.000     -0.000      0.000      0.001      0.002     -0.002
                 43 C       44 C       49 C       50 C       51 C       54 C  
      0 C        0.000      0.014      0.000      0.000      0.000      0.000
      1 C        0.000     -0.005      0.000      0.000      0.000      0.000
      2 C        0.000      0.000      0.000      0.000      0.000      0.000
      5 C        0.000     -0.004      0.000      0.000      0.000      0.000
      6 C        0.000     -0.002      0.000      0.000      0.000      0.000
      7 C        0.000      0.000      0.000      0.000      0.000      0.000
     14 C        0.009      0.001     -0.001      0.000      0.000      0.000
     15 C        0.017      0.026      0.000      0.000      0.000      0.000
     18 C        0.286     -0.046     -0.010      0.030     -0.006      0.000
     20 C        0.177      0.685     -0.031      0.140      0.039      0.000
     22 C        0.002     -0.135      0.140     -0.008     -0.002      0.000
     23 C       -0.113      0.603      0.037      0.136     -0.007      0.000
     26 C       -0.009     -0.571      0.377     -0.090      0.021      0.004
     29 C       -0.713     27.185      0.255      3.311     -0.116      0.002
     32 C        2.752     -0.940     -0.005      0.013      0.034     -0.003
     34 C        1.633      0.869      0.004     -0.067      0.011     -0.001
     36 C        0.221      0.244      3.228      0.489      0.110      0.033
     39 C       30.600     -1.245     -1.062     -1.649      1.990     -0.115
     43 C        0.000      1.438     24.959     35.539     -1.605      3.361
     44 C        1.438      0.000     -0.052     -0.161      0.126      0.021
     49 C       24.959     -0.052      0.000     -3.314      3.476     -1.029
     50 C       35.539     -0.161     -3.314      0.000     68.884     -1.791
     51 C       -1.605      0.126      3.476     68.884      0.000     36.714
     54 C        3.361      0.021     -1.029     -1.791     36.714      0.000
     55 C       -0.021     -0.003      0.049      2.781     -1.710     27.748
     56 C       -0.670      0.020      1.471      3.324     -1.453     25.490
     59 C        0.179      0.000      0.012      0.392      3.736     -0.341
     60 C       -0.006     -0.001     -0.061     -0.092      0.509     -1.317
                 55 C       56 C       59 C       60 C  
      0 C        0.000      0.000      0.000      0.000
      1 C        0.000      0.000      0.000      0.000
      2 C        0.000      0.000      0.000      0.000
      5 C        0.000      0.000      0.000      0.000
      6 C        0.000      0.000      0.000      0.000
      7 C        0.000      0.000      0.000      0.000
     14 C        0.000      0.000      0.000      0.000
     15 C        0.000      0.000      0.000      0.000
     18 C        0.000      0.000      0.000      0.000
     20 C        0.000      0.000      0.000      0.000
     22 C        0.000      0.000      0.000      0.000
     23 C        0.000      0.000      0.000      0.000
     26 C       -0.003      0.002      0.000     -0.000
     29 C        0.060     -0.029      0.000     -0.000
     32 C        0.002      0.003      0.000      0.000
     34 C       -0.000     -0.003      0.000      0.001
     36 C        0.015     -0.048     -0.000      0.002
     39 C        0.099      0.061     -0.007     -0.002
     43 C       -0.021     -0.670      0.179     -0.006
     44 C       -0.003      0.020      0.000     -0.001
     49 C        0.049      1.471      0.012     -0.061
     50 C        2.781      3.324      0.392     -0.092
     51 C       -1.710     -1.453      3.736      0.509
     54 C       27.748     25.490     -0.341     -1.317
     55 C        0.000     -1.716      0.858      1.592
     56 C       -1.716      0.000     26.902     26.789
     59 C        0.858     26.902      0.000     -0.818
     60 C        1.592     26.789     -0.818      0.000

NMR spin-spin coupling calculation done in   0.3 sec 

Maximum memory used throughout the entire PROP-calculation: 34.2 MB

--------------------------------
SUGGESTED CITATIONS FOR THIS RUN
--------------------------------

Below you find a list of papers that are relevant to this ORCA run
We neither can nor want to force you to cite these papers, but we appreciate if you do
You receive ORCA, which is the product of decades of hard work by many enthusiastic individuals, for free
The only thing we kindly ask in return is that you cite our papers,
We deeply appreciate it, if you show your appreciation for ORCA by not just citing the generic ORCA reference.

Please note that relegating all ORCA citations to the supporting information does *not* help us.
SI sections are not indexed - citations you put there will not count into any citation statistics
But we need these citations in order to attract the funding resources that allow us to do what we are doing

Therefore, if you are a happy ORCA user, please consider citing a few of the papers listed below in the main body of your paper

In addition to the list printed below, the program has created the file inpJ.bibtex that contains the list in bibtex format
You can import this file easily into all common literature databanks and citation aid programs


List of essential papers. We consider these as the minimum necessary citations

  1. Neese,F.
     Software update: the ORCA program system, version 5.0
     WIRES Comput. Molec. Sci., 2022 12(1)e1606
     doi.org/10.1002/wcms.1606

List of papers to cite with high priority. The work reported in these papers was absolutely
necessary for this run to complete.
Our perspective: the developers of density functionals and basis sets usually get cited in chemistry papers
Good! But without the algorithms to do something with them, the functionals or basis sets would not do anything.
Hence, in our opinion, the algorithm design and method developments papers are equally worthy of getting cited

  1. Neese,F.
     An improvement of the resolution of the identity approximation for the formation of the Coulomb matrix
     J. Comp. Chem., 2003 24(14)1740-1747
     doi.org/10.1002/jcc.10318
  2. Neese,F.; Wennmohs,F.; Hansen,A.; Becker,U.
     Efficient, approximate and parallel Hartree-Fock and hybrid DFT calculations. A 'chain-of-spheres' algorithm for the Hartree-Fock exchange
     Chem. Phys., 2009 356(1-3)98-109
     doi.org/10.1016/j.chemphys.2008.10.036
  3. Stoychev,G.L.; Auer,A.A.; Izsak,R.; Neese,F.
     Self-Consistent Field Calculation of Nuclear Magnetic Resonance Chemical Shielding Constants Using Gauge-Including Atomic Orbitals and Approximate Two-Electron Integrals
     J. Chem. Theory Comput., 2018 14(2)619-637
     doi.org/10.1021/acs.jctc.7b01006
  4. Garcia-Rates,M.; Neese,F.
     Effect of the Solute Cavity on the Solvation Energy and its Derivatives within the Framework of the Gaussian Charge Scheme
     J. Comput. Chem., 2020 41 922-939
     doi.org/10.1002/jcc.26139
  5. Helmich-Paris,B.; de Souza,B.; Neese,F.; Izsák,R.
     An improved chain of spheres for exchange algorithm
     J. Chem. Phys., 2021 155 104109
     doi.org/doi: 10.1063/5.0058766.
  6. Neese,F.
     The SHARK Integral Generation and Digestion System
     J. Comp. Chem., 2022  1-16
     doi.org/10.1002/jcc.26942
  7. Grimme,S.; Bannwarth,C.; Dohm,S.; Hansen,A.; Pisarek,J.; Pracht,P.; Seibert,J.; Neese,F.
     Fully Automated Quantum-Chemistry-Based Computation of Spin-Spin-Coupled Nuclear Magnetic Resonance Spectra
     Angew. Chem., Int. Ed., 2017 56 14763-14769
     doi.org/10.1002/anie.201708266
  8. Caldeweyher,E.; Bannwarth,C.; Grimme,S.
     Extension of the D3 dispersion coefficient model
     J. Chem. Phys., 2017 147 034112-XXXX
     doi.org/10.1063/1.4993215
  9. Caldeweyher,E.; Ehlert,S.; Hansen,A.; Neugebauer,H.; Spicher,S.; Bannwarth,C.; Grimme,S.
     A generally applicable atomic-charge dependent London dispersion correction
     J. Chem. Phys., 2019 150 154122-XXXX
     doi.org/10.1063/1.5090222
 10. Caldeweyher,E.; Mewes,J.; Ehlert,S.; Grimme,S.
     Extension and evaluation of the D4 London-dispersion model for periodic systems
     Phys. Chem. Chem. Phys., 2020 22(16)8499-8512
     doi.org/10.1039/D0CP00502A

List of suggested additional citations. These are papers that are important in the 'surrounding' of 
of this run, or papers that preceded the highly important papers. If you like your results we are grateful for a citation.

  1. Izsak,R.; Neese,F.
     An overlap fitted chain of spheres exchange method
     J. Chem. Phys., 2011 135 144105
     doi.org/10.1063/1.3646921
  2. Izsak,R.; Hansen,A.; Neese,F.
     The resolution of identity and chain of spheres approximations for the LPNO-CCSD singles Fock term
     Molec. Phys., 2012 110 2413-2417
     doi.org/10.1080/00268976.2012.687466
  3. Neese,F.
     The ORCA program system
     WIRES Comput. Molec. Sci., 2012 2(1)73-78
     doi.org/10.1002/wcms.81
  4. Izsak,R.; Neese,F.; Klopper,W.
     Robust fitting techniques in the chain of spheres approximation to the Fock exchange: The role of the complementary space
     J. Chem. Phys., 2013 139 
     doi.org/10.1063/1.4819264
  5. Neese,F.
     Software update: the ORCA program system, version 4.0
     WIRES Comput. Molec. Sci., 2018 8(1)1-6
     doi.org/10.1002/wcms.1327
  6. Neese,F.; Wennmohs,F.; Becker,U.; Riplinger,C.
     The ORCA quantum chemistry program package
     J. Chem. Phys., 2020 152 Art. No. L224108
     doi.org/10.1063/5.0004608

Timings for individual modules:

Sum of individual times          ...      135.031 sec (=   2.251 min)
Startup calculation              ...        3.791 sec (=   0.063 min)   2.8 %
SCF iterations                   ...       19.363 sec (=   0.323 min)  14.3 %
Property integrals               ...        0.803 sec (=   0.013 min)   0.6 %
SCF Response                     ...      110.560 sec (=   1.843 min)  81.9 %
Property calculations            ...        0.514 sec (=   0.009 min)   0.4 %
                             ****ORCA TERMINATED NORMALLY****
TOTAL RUN TIME: 0 days 0 hours 2 minutes 15 seconds 329 msec
