
                                 *****************
                                 * O   R   C   A *
                                 *****************

                                            #,                                       
                                            ###                                      
                                            ####                                     
                                            #####                                    
                                            ######                                   
                                           ########,                                 
                                     ,,################,,,,,                         
                               ,,#################################,,                 
                          ,,##########################################,,             
                       ,#########################################, ''#####,          
                    ,#############################################,,   '####,        
                  ,##################################################,,,,####,       
                ,###########''''           ''''###############################       
              ,#####''   ,,,,##########,,,,          '''####'''          '####       
            ,##' ,,,,###########################,,,                        '##       
           ' ,,###''''                  '''############,,,                           
         ,,##''                                '''############,,,,        ,,,,,,###''
      ,#''                                            '''#######################'''  
     '                                                          ''''####''''         
             ,#######,   #######,   ,#######,      ##                                
            ,#'     '#,  ##    ##  ,#'     '#,    #''#        ,####,   ,####,        
            ##       ##  ##   ,#'  ##            #'  '#       #'       #'  '#        
            ##       ##  #######   ##           ,######,      #####,   #    #        
            '#,     ,#'  ##    ##  '#,     ,#' ,#      #,     #,   #   #,  ,#        
             '#######'   ##     ##  '#######'  #'      '#     '####' # '####'        



                #########################################################
                #                        -***-                          #
                #          Department of theory and spectroscopy        #
                #                                                       #
                #                      Frank Neese                      #
                #                                                       #
                #     Directorship, Architecture, Infrastructure        #
                #                    SHARK, DRIVERS                     #
                #        Core code/Algorithms in most modules           #
                #                                                       #
                #        Max Planck Institute fuer Kohlenforschung      #
                #                Kaiser Wilhelm Platz 1                 #
                #                 D-45470 Muelheim/Ruhr                 #
                #                      Germany                          #
                #                                                       #
                #                  All rights reserved                  #
                #                        -***-                          #
                #########################################################


                         Program Version 6.0.0  -   RELEASE  -


 With contributions from (in alphabetic order):
   Daniel Aravena         : Magnetic Suceptibility
   Michael Atanasov       : Ab Initio Ligand Field Theory (pilot matlab implementation)
   Alexander A. Auer      : GIAO ZORA, VPT2 properties, NMR spectrum
   Ute Becker             : All parallelization in ORCA, NUMFREQ, NUMCALC
   Giovanni Bistoni       : ED, misc. LED, open-shell LED, HFLD
   Martin Brehm           : Molecular dynamics
   Dmytro Bykov           : pre 5.0 version of the SCF Hessian
   Marcos Casanova-Páez   : Triplet and SCS-CIS(D). UHF-(DLPNO)-IP/EA/STEOM-CCSD. UHF-CVS-IP/STEOM-CCSD
   Vijay G. Chilkuri      : MRCI spin determinant printing, contributions to CSF-ICE
   Pauline Colinet        : FMM embedding
   Dipayan Datta          : RHF DLPNO-CCSD density
   Achintya Kumar Dutta   : EOM-CC, STEOM-CC
   Nicolas Foglia         : Exact transition moments, OPA infrastructure, MCD improvements
   Dmitry Ganyushin       : Spin-Orbit,Spin-Spin,Magnetic field MRCI
   Miquel Garcia          : C-PCM and meta-GGA Hessian, CCSD/C-PCM, Gaussian charge scheme
   Tiago L. C. Gouveia    : GS-ROHF, GS-ROCIS
   Yang Guo               : DLPNO-NEVPT2, F12-NEVPT2, CIM, IAO-localization
   Andreas Hansen         : Spin unrestricted coupled pair/coupled cluster methods
   Ingolf Harden          : AUTO-CI MPn and infrastructure 
   Benjamin Helmich-Paris : MC-RPA, TRAH-(SCF,CASSCF), AVAS, COSX integrals, SCF dyn. polar.
   Lee Huntington         : MR-EOM, pCC
   Robert Izsak           : Overlap fitted RIJCOSX, COSX-SCS-MP3, EOM
   Riya Kayal             : Wick's Theorem for AUTO-CI, AUTO-CI UHF-CCSDT
   Emily Kempfer          : AUTO-CI, RHF CISDT and CCSDT
   Christian Kollmar      : KDIIS, OOCD, Brueckner-CCSD(T), CCSD density, CASPT2, CASPT2-K, improved NEVPT2
   Axel Koslowski         : Symmetry handling
   Simone Kossmann        : Meta GGA functionals, TD-DFT gradient, OOMP2, (MP2 Hessian; deprecated post 5.0)
   Lucas Lang             : DCDCAS
   Marvin Lechner         : AUTO-CI (C++ implementation), FIC-MRCC
   Spencer Leger          : CASSCF response
   Dagmar Lenk            : GEPOL surface, SMD, ORCA-2-JSON
   Dimitrios Liakos       : Extrapolation schemes; Compound Job, initial MDCI parallelization
   Dimitrios Manganas     : Further ROCIS development; embedding schemes. LFT, Crystal Embedding
   Dimitrios Pantazis     : SARC Basis sets
   Anastasios Papadopoulos: AUTO-CI, single reference methods and gradients
   Taras Petrenko         : pre 6.0 DFT Hessian and TD-DFT gradient, (ASA, deprecated), ECA, 1-Electron XAS/XES, NRVS
   Peter Pinski           : DLPNO-MP2, DLPNO-MP2 Gradient
   Christoph Reimann      : Effective Core Potentials
   Marius Retegan         : Local ZFS, SOC
   Christoph Riplinger    : Optimizer, TS searches, QM/MM, DLPNO-CCSD(T), (RO)-DLPNO pert. Triples
   Michael Roemelt        : Original ROCIS implementation
   Masaaki Saitow         : Open-shell DLPNO-CCSD energy and density
   Barbara Sandhoefer     : DKH picture change effects
   Kantharuban Sivalingam : CASSCF convergence/infrastructure, NEVPT2 and variants, FIC-MRCI
   Bernardo de Souza      : ESD, SOC TD-DFT
   Georgi Stoychev        : AutoAux, RI-MP2 NMR, DLPNO-MP2 response, X2C
   Van Anh Tran           : RI-MP2 g-tensors
   Willem Van den Heuvel  : Paramagnetic NMR
   Zikuan Wang            : NOTCH, Electric field optimization 
   Frank Wennmohs         : Technical directorship and infrastructure
   Hang Xu                : AUTO-CI-Response properties 


 We gratefully acknowledge several colleagues who have allowed us to
 interface, adapt or use parts of their codes:
   Stefan Grimme, W. Hujo, H. Kruse, P. Pracht,  : VdW corrections, initial TS optimization,
                  C. Bannwarth, S. Ehlert,         DFT functionals, gCP, sTDA/sTD-DF
                  L. Wittmann, M. Mueller
   Ed Valeev, F. Pavosevic, A. Kumar             : LibInt (2-el integral package), F12 methods
   Garnet Chan, S. Sharma, J. Yang, R. Olivares  : DMRG
   Ulf Ekstrom                                   : XCFun DFT Library
   Mihaly Kallay                                 : mrcc  (arbitrary order and MRCC methods)
   Frank Weinhold                                : gennbo (NPA and NBO analysis)
   Simon Mueller                                 : openCOSMO-RS
   Christopher J. Cramer and Donald G. Truhlar   : smd solvation model
   Lars Goerigk                                  : TD-DFT with DH, B97 family of functionals
   V. Asgeirsson, H. Jonsson                     : NEB implementation
   FAccTs GmbH                                   : IRC, NEB, NEB-TS, DLPNO-Multilevel, CI-OPT
                                                   MM, QMMM, 2- and 3-layer-ONIOM, Crystal-QMMM,
                                                   LR-CPCM, SF, NACMEs, symmetry and pop. for TD-DFT,
                                                   nearIR, NL-DFT gradient (VV10), updates on ESD,
                                                   ML-optimized integration grids, MBIS, APM,
                                                   GOAT, DOCKER, SOLVATOR, interface openCOSMO-RS
   S Lehtola, MJT Oliveira, MAL Marques          : LibXC Library
   Liviu Ungur et al                             : ANISO software


 Your calculation uses the libint2 library for the computation of 2-el integrals
 For citations please refer to: http://libint.valeyev.net

 Your ORCA version has been built with support for libXC version: 6.2.2
 For citations please refer to: https://libxc.gitlab.io

 This ORCA versions uses:
   CBLAS   interface :  Fast vector & matrix operations
   LAPACKE interface :  Fast linear algebra routines
   SCALAPACK package :  Parallel linear algebra routines
   Shared memory     :  Shared parallel matrices
   BLAS/LAPACK       :  OpenBLAS 0.3.27  USE64BITINT DYNAMIC_ARCH NO_AFFINITY Zen SINGLE_THREADED
        Core in use  :  Zen
   Copyright (c) 2011-2014, The OpenBLAS Project


NOTE: MaxCore=8000 MB was set to SCF,MP2,MDCI,CIPSI,MRCI and CIS
      => If you want to overwrite this, your respective input block should be placed after the MaxCore statement
Your calculation utilizes the atom-pairwise dispersion correction
based on EEQ partial charges (D4)


================================================================================

----- Orbital basis set information -----
Your calculation utilizes the basis: def2-SVP
   F. Weigend and R. Ahlrichs, Phys. Chem. Chem. Phys. 7, 3297 (2005).

----- AuxJ basis set information -----
Your calculation utilizes the auxiliary basis: def2/J
   F. Weigend, Phys. Chem. Chem. Phys. 8, 1057 (2006).

================================================================================
                                        WARNINGS
                       Please study these warnings very carefully!
================================================================================

WARNING: Old DensityContainer found on disk!
         Will remove this file - 
         If you want to keep old densities, please start your calculation with a different basename. 


================================================================================
                                       INPUT FILE
================================================================================
NAME = inpS
|  1> ! wb97x-d4
|  2> ! def2-svp
|  3> ! def2/J RIJCOSX
|  4> ! DEFGRID2
|  5> ! scfconv7
|  6> ! smallprint printgap noloewdin
|  7> ! NOSOSCF
|  8> %MaxCore 8000
|  9> %output
| 10>        print[P_BondOrder_M] 1
| 11>        print[P_Mayer] 1
| 12>        print[P_basis] 2
| 13> end
| 14> %pal
| 15>     nprocs 4
| 16> end
| 17> ! CPCM(chloroform)
| 18> *xyz 0 1
| 19> C   -5.1830085600   0.1286260900  -0.7137122800
| 20> C   -6.6009663400  -0.3418598000  -0.9341649800
| 21> C   -7.5864406600   0.5550274100  -0.1740543500
| 22> H   -6.7185651400  -1.3836478200  -0.6150603200
| 23> H   -6.8511118100  -0.2844573500  -2.0039384300
| 24> C   -4.9679261600   1.5560542700  -1.0404072900
| 25> C   -5.9704913900   2.4980089100  -0.4115187100
| 26> C   -7.4144340300   2.0123887400  -0.6042460000
| 27> H   -5.8461525700   3.5084624100  -0.8151374000
| 28> H   -5.7600212600   2.5553058200   0.6673698900
| 29> H   -7.6910822900   2.0936428000  -1.6643481400
| 30> H   -8.1036585900   2.6461229400  -0.0342528000
| 31> O   -7.4251651000   0.3970797300   1.2454271400
| 32> H   -8.6130189500   0.2307251200  -0.3850532300
| 33> C   -4.2433481600  -0.6947040800  -0.1909090200
| 34> C   -3.9966367500   1.9811743500  -1.8554996600
| 35> H   -3.2965840900   1.2863620700  -2.3117795300
| 36> H   -3.8864888000   3.0369527100  -2.0918735300
| 37> C   -2.8909021100  -0.3280007300   0.1612693000
| 38> H   -4.5567386600  -1.7188831300   0.0079676500
| 39> C   -1.9233144800  -1.1590530300   0.6042916900
| 40> H   -2.6481055100   0.7281972200   0.0690208600
| 41> C   -2.0569139000  -2.6501112200   0.7801015700
| 42> C   -0.9486530500  -3.4133094800   0.0295231100
| 43> H   -3.0368442000  -3.0193829800   0.4660229800
| 44> H   -1.9574328400  -2.8737899700   1.8544076300
| 45> C    0.4549837100  -2.8843922500   0.3522759500
| 46> H   -1.1333670400  -3.3433542700  -1.0499425200
| 47> H   -1.0083785300  -4.4778883400   0.2870686500
| 48> C    0.5646149800  -1.3722560100   0.1137862700
| 49> H    1.1888404000  -3.4368052300  -0.2434653500
| 50> H    0.6834889900  -3.0854961900   1.4098946900
| 51> C   -0.5494532200  -0.6822150000   0.9634247000
| 52> H   -0.3616504100  -1.0256002300   1.9978742500
| 53> C   -0.1888587000   0.7976351200   0.9062809200
| 54> H   -6.4758865200   0.3661782000   1.4313067900
| 55> C    1.3584205600   0.7888291200   0.9658116000
| 56> H   -0.6404656300   1.3670357900   1.7254897800
| 57> H   -0.5387246100   1.2454308200  -0.0305671200
| 58> C    1.8221689000  -0.6802922700   0.7131908500
| 59> H    1.7154951900   1.1503635600   1.9337973700
| 60> H    1.7893892200   1.4548457400   0.2088741200
| 61> H    1.9996246700  -1.1697655000   1.6840831300
| 62> C    3.1311448800  -0.7380951300  -0.0863741900
| 63> C    0.3975131600  -1.0331053500  -1.3746069300
| 64> H    0.6101251900   0.0216725500  -1.5746534000
| 65> H   -0.6242992600  -1.2300343300  -1.7138621300
| 66> H    1.0776191100  -1.6316507600  -1.9898235600
| 67> H    2.9678546900  -0.1897014100  -1.0280036500
| 68> C    3.5816129600  -2.1633106900  -0.4577860900
| 69> C    4.3003185400  -0.0738241200   0.6089481100
| 70> C    4.4249500400   0.1854923500   1.9102917100
| 71> H    5.1449330200   0.1289185200  -0.0514413500
| 72> H    3.5907292200  -0.0325945200   2.5788827000
| 73> C    5.6366063700   0.7411517000   2.6132274300
| 74> C    6.7943480400   1.0849838000   1.6780973300
| 75> C    6.0391493700  -0.2095080900   3.7764860500
| 76> H    5.3147805300   1.6770293300   3.1018008400
| 77> H    5.1145877300  -0.3977342500   4.3439349600
| 78> C    7.0382568600   0.4415947400   4.7356430500
| 79> C    6.5646603300  -1.5582211700   3.2807710400
| 80> H    7.1553739500   0.2034334800   1.1374994400
| 81> H    7.6351036000   1.5066595500   2.2364244300
| 82> H    6.4840023600   1.8262352300   0.9342385700
| 83> H    6.6833829400   1.4206936400   5.0777322300
| 84> H    8.0166871200   0.5813127800   4.2622172700
| 85> H    7.1897388000  -0.1909997900   5.6173960900
| 86> H    5.8697635800  -2.0234400800   2.5728048800
| 87> H    6.7078912000  -2.2461221000   4.1212821500
| 88> H    7.5324952000  -1.4434169900   2.7792278500
| 89> H    2.9075212600  -2.6343803400  -1.1773783400
| 90> H    3.6309808800  -2.7921332600   0.4391421100
| 91> H    4.5820017100  -2.1411844300  -0.9045688800
| 92> *
| 93> %eprnmr
| 94>  Nuclei = all C { shift }
| 95>  origin giao
| 96>  giao_2el giao_2el_same_as_scf
| 97>  giao_1el giao_1el_analytic
| 98> end
| 99> 
|100>                          ****END OF INPUT****
================================================================================

                       ****************************
                       * Single Point Calculation *
                       ****************************

---------------------------------
CARTESIAN COORDINATES (ANGSTROEM)
---------------------------------
  C     -5.183009    0.128626   -0.713712
  C     -6.600966   -0.341860   -0.934165
  C     -7.586441    0.555027   -0.174054
  H     -6.718565   -1.383648   -0.615060
  H     -6.851112   -0.284457   -2.003938
  C     -4.967926    1.556054   -1.040407
  C     -5.970491    2.498009   -0.411519
  C     -7.414434    2.012389   -0.604246
  H     -5.846153    3.508462   -0.815137
  H     -5.760021    2.555306    0.667370
  H     -7.691082    2.093643   -1.664348
  H     -8.103659    2.646123   -0.034253
  O     -7.425165    0.397080    1.245427
  H     -8.613019    0.230725   -0.385053
  C     -4.243348   -0.694704   -0.190909
  C     -3.996637    1.981174   -1.855500
  H     -3.296584    1.286362   -2.311780
  H     -3.886489    3.036953   -2.091874
  C     -2.890902   -0.328001    0.161269
  H     -4.556739   -1.718883    0.007968
  C     -1.923314   -1.159053    0.604292
  H     -2.648106    0.728197    0.069021
  C     -2.056914   -2.650111    0.780102
  C     -0.948653   -3.413309    0.029523
  H     -3.036844   -3.019383    0.466023
  H     -1.957433   -2.873790    1.854408
  C      0.454984   -2.884392    0.352276
  H     -1.133367   -3.343354   -1.049943
  H     -1.008379   -4.477888    0.287069
  C      0.564615   -1.372256    0.113786
  H      1.188840   -3.436805   -0.243465
  H      0.683489   -3.085496    1.409895
  C     -0.549453   -0.682215    0.963425
  H     -0.361650   -1.025600    1.997874
  C     -0.188859    0.797635    0.906281
  H     -6.475887    0.366178    1.431307
  C      1.358421    0.788829    0.965812
  H     -0.640466    1.367036    1.725490
  H     -0.538725    1.245431   -0.030567
  C      1.822169   -0.680292    0.713191
  H      1.715495    1.150364    1.933797
  H      1.789389    1.454846    0.208874
  H      1.999625   -1.169766    1.684083
  C      3.131145   -0.738095   -0.086374
  C      0.397513   -1.033105   -1.374607
  H      0.610125    0.021673   -1.574653
  H     -0.624299   -1.230034   -1.713862
  H      1.077619   -1.631651   -1.989824
  H      2.967855   -0.189701   -1.028004
  C      3.581613   -2.163311   -0.457786
  C      4.300319   -0.073824    0.608948
  C      4.424950    0.185492    1.910292
  H      5.144933    0.128919   -0.051441
  H      3.590729   -0.032595    2.578883
  C      5.636606    0.741152    2.613227
  C      6.794348    1.084984    1.678097
  C      6.039149   -0.209508    3.776486
  H      5.314781    1.677029    3.101801
  H      5.114588   -0.397734    4.343935
  C      7.038257    0.441595    4.735643
  C      6.564660   -1.558221    3.280771
  H      7.155374    0.203433    1.137499
  H      7.635104    1.506660    2.236424
  H      6.484002    1.826235    0.934239
  H      6.683383    1.420694    5.077732
  H      8.016687    0.581313    4.262217
  H      7.189739   -0.191000    5.617396
  H      5.869764   -2.023440    2.572805
  H      6.707891   -2.246122    4.121282
  H      7.532495   -1.443417    2.779228
  H      2.907521   -2.634380   -1.177378
  H      3.630981   -2.792133    0.439142
  H      4.582002   -2.141184   -0.904569

----------------------------
CARTESIAN COORDINATES (A.U.)
----------------------------
  NO LB      ZA    FRAG     MASS         X           Y           Z
   0 C     6.0000    0    12.011   -9.794467    0.243068   -1.348721
   1 C     6.0000    0    12.011  -12.474019   -0.646021   -1.765316
   2 C     6.0000    0    12.011  -14.336295    1.048850   -0.328915
   3 H     1.0000    0     1.008  -12.696248   -2.614715   -1.162296
   4 H     1.0000    0     1.008  -12.946725   -0.537546   -3.786895
   5 C     6.0000    0    12.011   -9.388020    2.940516   -1.966085
   6 C     6.0000    0    12.011  -11.282594    4.720553   -0.777658
   7 C     6.0000    0    12.011  -14.011250    3.802864   -1.141859
   8 H     1.0000    0     1.008  -11.047627    6.630033   -1.540386
   9 H     1.0000    0     1.008  -10.884863    4.828828    1.261146
  10 H     1.0000    0     1.008  -14.534039    3.956412   -3.145162
  11 H     1.0000    0     1.008  -15.313695    5.000448   -0.064728
  12 O     8.0000    0    15.999  -14.031529    0.750372    2.353516
  13 H     1.0000    0     1.008  -16.276247    0.436007   -0.727645
  14 C     6.0000    0    12.011   -8.018766   -1.312800   -0.360766
  15 C     6.0000    0    12.011   -7.552549    3.743877   -3.506386
  16 H     1.0000    0     1.008   -6.229641    2.430872   -4.368630
  17 H     1.0000    0     1.008   -7.344399    5.739009   -3.953068
  18 C     6.0000    0    12.011   -5.463013   -0.619832    0.304755
  19 H     1.0000    0     1.008   -8.610988   -3.248218    0.015057
  20 C     6.0000    0    12.011   -3.634538   -2.190293    1.141946
  21 H     1.0000    0     1.008   -5.004194    1.376093    0.130431
  22 C     6.0000    0    12.011   -3.887004   -5.007984    1.474178
  23 C     6.0000    0    12.011   -1.792694   -6.450220    0.055791
  24 H     1.0000    0     1.008   -5.738804   -5.705807    0.880656
  25 H     1.0000    0     1.008   -3.699012   -5.430676    3.504323
  26 C     6.0000    0    12.011    0.859795   -5.450711    0.665705
  27 H     1.0000    0     1.008   -2.141753   -6.318024   -1.984104
  28 H     1.0000    0     1.008   -1.905559   -8.461983    0.542481
  29 C     6.0000    0    12.011    1.066968   -2.593188    0.215025
  30 H     1.0000    0     1.008    2.246583   -6.494621   -0.460083
  31 H     1.0000    0     1.008    1.291607   -5.830743    2.664315
  32 C     6.0000    0    12.011   -1.038316   -1.289200    1.820609
  33 H     1.0000    0     1.008   -0.683420   -1.938104    3.775435
  34 C     6.0000    0    12.011   -0.356891    1.507312    1.712623
  35 H     1.0000    0     1.008  -12.237652    0.691977    2.704778
  36 C     6.0000    0    12.011    2.567043    1.490671    1.825119
  37 H     1.0000    0     1.008   -1.210305    2.583323    3.260703
  38 H     1.0000    0     1.008   -1.018042    2.353523   -0.057763
  39 C     6.0000    0    12.011    3.443400   -1.285566    1.347735
  40 H     1.0000    0     1.008    3.241816    2.173872    3.654347
  41 H     1.0000    0     1.008    3.381456    2.749260    0.394715
  42 H     1.0000    0     1.008    3.778743   -2.210536    3.182456
  43 C     6.0000    0    12.011    5.917006   -1.394798   -0.163224
  44 C     6.0000    0    12.011    0.751191   -1.952286   -2.597631
  45 H     1.0000    0     1.008    1.152970    0.040955   -2.975664
  46 H     1.0000    0     1.008   -1.179755   -2.324428   -3.238730
  47 H     1.0000    0     1.008    2.036405   -3.083373   -3.760222
  48 H     1.0000    0     1.008    5.608433   -0.358484   -1.942645
  49 C     6.0000    0    12.011    6.768268   -4.088065   -0.865090
  50 C     6.0000    0    12.011    8.126424   -0.139507    1.150745
  51 C     6.0000    0    12.011    8.361944    0.350530    3.609928
  52 H     1.0000    0     1.008    9.722514    0.243621   -0.097210
  53 H     1.0000    0     1.008    6.785495   -0.061595    4.873382
  54 C     6.0000    0    12.011   10.651642    1.400574    4.938284
  55 C     6.0000    0    12.011   12.839457    2.050322    3.171144
  56 C     6.0000    0    12.011   11.412338   -0.395913    7.136524
  57 H     1.0000    0     1.008   10.043480    3.169126    5.861554
  58 H     1.0000    0     1.008    9.665170   -0.751609    8.208847
  59 C     6.0000    0    12.011   13.300378    0.834493    8.949068
  60 C     6.0000    0    12.011   12.405410   -2.944611    6.199759
  61 H     1.0000    0     1.008   13.521697    0.384434    2.149562
  62 H     1.0000    0     1.008   14.428255    2.847174    4.226230
  63 H     1.0000    0     1.008   12.252989    3.451084    1.765455
  64 H     1.0000    0     1.008   12.629763    2.684722    9.595523
  65 H     1.0000    0     1.008   15.149343    1.098522    8.054423
  66 H     1.0000    0     1.008   13.586637   -0.360937   10.615340
  67 H     1.0000    0     1.008   11.092246   -3.823748    4.861897
  68 H     1.0000    0     1.008   12.676077   -4.244556    7.788095
  69 H     1.0000    0     1.008   14.234353   -2.727663    5.251980
  70 H     1.0000    0     1.008    5.494419   -4.978257   -2.224923
  71 H     1.0000    0     1.008    6.861559   -5.276367    0.829858
  72 H     1.0000    0     1.008    8.658728   -4.046252   -1.709387

--------------------------------
INTERNAL COORDINATES (ANGSTROEM)
--------------------------------
 C      0   0   0     0.000000000000     0.00000000     0.00000000
 C      1   0   0     1.510152519280     0.00000000     0.00000000
 C      2   1   0     1.534058171218   110.40781630     0.00000000
 H      2   1   3     1.095892120790   110.75778268   237.86579545
 H      2   1   3     1.100128643274   109.82774214   118.70906954
 C      1   2   3     1.480047728084   113.87226453   305.87566832
 C      6   1   2     1.512586007564   114.36254443    50.07832913
 C      3   2   1     1.529232873919   110.21408530    56.77260026
 H      7   6   1     1.095164126850   110.24849344   188.65225322
 H      7   6   1     1.100718502946   108.25237416    71.98419857
 H      8   3   2     1.098614140297   108.27699008    64.65224559
 H      8   3   2     1.096148611459   109.50989776   181.58576985
 O      3   2   1     1.437318675981   110.67170580   292.69894942
 H      3   2   1     1.097066765589   109.45076201   177.18446505
 C      1   2   3     1.354310704686   121.22653097   122.37077947
 C      6   1   2     1.337350280229   123.13800316   232.06201819
 H     16   6   1     1.086751651013   121.36614160   358.96717939
 H     16   6   1     1.087507757560   120.97353978   178.39355585
 C     15   1   2     1.444856821329   126.10403744   185.18726792
 H     15   1   2     1.089361400922   116.25895434     3.12052951
 C     19  15   1     1.350237973509   126.47965953   184.43347228
 H     19  15   1     1.087664503989   115.76836018     5.40312936
 C     21  19  15     1.507319622673   125.70413848     1.92514673
 C     23  21  19     1.540805542671   111.67926662   126.12549444
 H     23  21  19     1.093284220268   112.33716915     2.35023163
 H     23  21  19     1.101844896096   107.85045621   244.67272233
 C     24  23  21     1.534313848579   112.63074486    51.00659379
 H     24  23  21     1.097387368188   109.05850976   288.83049544
 H     24  23  21     1.096916125916   109.09795316   172.90479467
 C     27  24  23     1.534748302214   111.85799317   306.05659623
 H     27  24  23     1.094812056225   108.95403631   182.46681383
 H     27  24  23     1.100552069132   109.21433090    65.97065363
 C     21  19  15     1.497947191144   122.68235269   180.84006419
 H     33  21  19     1.106015001309   106.32831196   125.39426808
 C     33  21  19     1.524221177228   121.13467869     2.86644784
 H     13   3   2     0.967799551192   107.65278975    42.18254123
 C     35  33  21     1.548449080830   103.26379547   194.86276312
 H     35  33  21     1.095111454841   112.28452125    73.16136639
 H     35  33  21     1.095724141365   110.68893676   313.42241123
 C     30  27  24     1.555487553697   115.85971648   166.36345878
 H     37  35  33     1.093254724947   111.00987674   251.86025109
 H     37  35  33     1.096479125495   111.26956693   133.58841905
 H     40  30  27     1.101683444805   105.79393231   321.95406481
 C     40  30  27     1.534947406275   118.16159214    82.67887890
 C     30  27  24     1.535662888212   111.12679444   294.68023020
 H     45  30  27     1.094430849249   111.64584524   187.84258728
 H     45  30  27     1.094520778952   111.23946624    67.95206480
 H     45  30  27     1.095122008219   110.86719275   307.88495871
 H     44  40  30     1.101846358720   107.46007029    63.95003660
 C     44  40  30     1.540164823331   114.19771054   305.02813931
 C     44  40  30     1.513834906072   113.75600540   181.91747979
 C     51  44  40     1.332769000115   127.30671237    20.84411161
 H     51  44  40     1.091142720628   113.66410127   195.78678879
 H     52  51  44     1.091100440517   119.20472926   355.85608047
 C     52  51  44     1.506979429761   127.04088877   174.45338046
 C     55  52  51     1.527433989202   114.00738612     2.94574683
 C     55  52  51     1.555302388661   109.36565455   234.63758188
 H     55  52  51     1.103695060506   106.54079032   121.38158453
 H     57  55  52     1.101018428060   105.82072040   310.39311294
 C     57  55  52     1.530402830126   112.18966983   193.64875190
 C     57  55  52     1.530007226252   112.66743327    67.88074805
 H     56  55  52     1.095315823430   111.76651313   299.11931674
 H     56  55  52     1.093805055942   110.90908199   178.55168995
 H     56  55  52     1.095031496534   110.69826896    59.09200623
 H     60  57  55     1.096172961786   111.36118912    51.74675375
 H     60  57  55     1.095891816537   111.49113131   290.96890848
 H     60  57  55     1.095723980335   110.42486755   171.74901861
 H     61  57  55     1.095685270088   111.45649271   308.01056494
 H     61  57  55     1.095528045122   110.47776805   187.70121418
 H     61  57  55     1.096097580861   111.05109724    68.46228041
 H     50  44  40     1.092757631600   112.16573298    67.63331227
 H     50  44  40     1.096510470548   110.27863266   306.43616381
 H     50  44  40     1.095847655447   110.28175188   187.61847430

---------------------------
INTERNAL COORDINATES (A.U.)
---------------------------
 C      0   0   0     0.000000000000     0.00000000     0.00000000
 C      1   0   0     2.853774681891     0.00000000     0.00000000
 C      2   1   0     2.898949817106   110.40781630     0.00000000
 H      2   1   3     2.070935980616   110.75778268   237.86579545
 H      2   1   3     2.078941847871   109.82774214   118.70906954
 C      1   2   3     2.796884871211   113.87226453   305.87566832
 C      6   1   2     2.858373308296   114.36254443    50.07832913
 C      3   2   1     2.889831326695   110.21408530    56.77260026
 H      7   6   1     2.069560271441   110.24849344   188.65225322
 H      7   6   1     2.080056521108   108.25237416    71.98419857
 H      8   3   2     2.076079852014   108.27699008    64.65224559
 H      8   3   2     2.071420677735   109.50989776   181.58576985
 O      3   2   1     2.716138664774   110.67170580   292.69894942
 H      3   2   1     2.073155737590   109.45076201   177.18446505
 C      1   2   3     2.559276332094   121.22653097   122.37077947
 C      6   1   2     2.527225774756   123.13800316   232.06201819
 H     16   6   1     2.053662996001   121.36614160   358.96717939
 H     16   6   1     2.055091830302   120.97353978   178.39355585
 C     15   1   2     2.730383695039   126.10403744   185.18726792
 H     15   1   2     2.058594708608   116.25895434     3.12052951
 C     19  15   1     2.551579985553   126.47965953   184.43347228
 H     19  15   1     2.055388038127   115.76836018     5.40312936
 C     21  19  15     2.848421283138   125.70413848     1.92514673
 C     23  21  19     2.911700501276   111.67926662   126.12549444
 H     23  21  19     2.066007762845   112.33716915     2.35023163
 H     23  21  19     2.082185095681   107.85045621   244.67272233
 C     24  23  21     2.899432977298   112.63074486    51.00659379
 H     24  23  21     2.073761588700   109.05850976   288.83049544
 H     24  23  21     2.072871069863   109.09795316   172.90479467
 C     27  24  23     2.900253975686   111.85799317   306.05659623
 H     27  24  23     2.068894954381   108.95403631   182.46681383
 H     27  24  23     2.079742006780   109.21433090    65.97065363
 C     21  19  15     2.830709954338   122.68235269   180.84006419
 H     33  21  19     2.090065452483   106.32831196   125.39426808
 C     33  21  19     2.880360592484   121.13467869     2.86644784
 H     13   3   2     1.828876104285   107.65278975    42.18254123
 C     35  33  21     2.926144695091   103.26379547   194.86276312
 H     35  33  21     2.069460735769   112.28452125    73.16136639
 H     35  33  21     2.070618545506   110.68893676   313.42241123
 C     30  27  24     2.939445481211   115.85971648   166.36345878
 H     37  35  33     2.065952024765   111.00987674   251.86025109
 H     37  35  33     2.072045258748   111.26956693   133.58841905
 H     40  30  27     2.081879996956   105.79393231   321.95406481
 C     40  30  27     2.900630227833   118.16159214    82.67887890
 C     30  27  24     2.901982292747   111.12679444   294.68023020
 H     45  30  27     2.068174577596   111.64584524   187.84258728
 H     45  30  27     2.068344520105   111.23946624    67.95206480
 H     45  30  27     2.069480678764   110.86719275   307.88495871
 H     44  40  30     2.082187859640   107.46007029    63.95003660
 C     44  40  30     2.910489717195   114.19771054   305.02813931
 C     44  40  30     2.860733384446   113.75600540   181.91747979
 C     51  44  40     2.518568409997   127.30671237    20.84411161
 H     51  44  40     2.061960915008   113.66410127   195.78678879
 H     52  51  44     2.061881017179   119.20472926   355.85608047
 C     52  51  44     2.847778411701   127.04088877   174.45338046
 C     55  52  51     2.886431927235   114.00738612     2.94574683
 C     55  52  51     2.939095570004   109.36565455   234.63758188
 H     55  52  51     2.085681399718   106.54079032   121.38158453
 H     57  55  52     2.080623297434   105.82072040   310.39311294
 C     57  55  52     2.892042223516   112.18966983   193.64875190
 C     57  55  52     2.891294640536   112.66743327    67.88074805
 H     56  55  52     2.069846936433   111.76651313   299.11931674
 H     56  55  52     2.066991999628   110.90908199   178.55168995
 H     56  55  52     2.069309636466   110.69826896    59.09200623
 H     60  57  55     2.071466693185   111.36118912    51.74675375
 H     60  57  55     2.070935405661   111.49113131   290.96890848
 H     60  57  55     2.070618241203   110.42486755   171.74901861
 H     61  57  55     2.070545089437   111.45649271   308.01056494
 H     61  57  55     2.070247977311   110.47776805   187.70121418
 H     61  57  55     2.071324243880   111.05109724    68.46228041
 H     50  44  40     2.065012654476   112.16573298    67.63331227
 H     50  44  40     2.072104492313   110.27863266   306.43616381
 H     50  44  40     2.070851953294   110.28175188   187.61847430

---------------------
BASIS SET INFORMATION
---------------------
There are 3 groups of distinct atoms

 Group   1 Type C   : 7s4p1d contracted to 3s2p1d pattern {511/31/1}
 Group   2 Type H   : 4s1p contracted to 2s1p pattern {31/1}
 Group   3 Type O   : 7s4p1d contracted to 3s2p1d pattern {511/31/1}

Atom   0C    basis set group =>   1
Atom   1C    basis set group =>   1
Atom   2C    basis set group =>   1
Atom   3H    basis set group =>   2
Atom   4H    basis set group =>   2
Atom   5C    basis set group =>   1
Atom   6C    basis set group =>   1
Atom   7C    basis set group =>   1
Atom   8H    basis set group =>   2
Atom   9H    basis set group =>   2
Atom  10H    basis set group =>   2
Atom  11H    basis set group =>   2
Atom  12O    basis set group =>   3
Atom  13H    basis set group =>   2
Atom  14C    basis set group =>   1
Atom  15C    basis set group =>   1
Atom  16H    basis set group =>   2
Atom  17H    basis set group =>   2
Atom  18C    basis set group =>   1
Atom  19H    basis set group =>   2
Atom  20C    basis set group =>   1
Atom  21H    basis set group =>   2
Atom  22C    basis set group =>   1
Atom  23C    basis set group =>   1
Atom  24H    basis set group =>   2
Atom  25H    basis set group =>   2
Atom  26C    basis set group =>   1
Atom  27H    basis set group =>   2
Atom  28H    basis set group =>   2
Atom  29C    basis set group =>   1
Atom  30H    basis set group =>   2
Atom  31H    basis set group =>   2
Atom  32C    basis set group =>   1
Atom  33H    basis set group =>   2
Atom  34C    basis set group =>   1
Atom  35H    basis set group =>   2
Atom  36C    basis set group =>   1
Atom  37H    basis set group =>   2
Atom  38H    basis set group =>   2
Atom  39C    basis set group =>   1
Atom  40H    basis set group =>   2
Atom  41H    basis set group =>   2
Atom  42H    basis set group =>   2
Atom  43C    basis set group =>   1
Atom  44C    basis set group =>   1
Atom  45H    basis set group =>   2
Atom  46H    basis set group =>   2
Atom  47H    basis set group =>   2
Atom  48H    basis set group =>   2
Atom  49C    basis set group =>   1
Atom  50C    basis set group =>   1
Atom  51C    basis set group =>   1
Atom  52H    basis set group =>   2
Atom  53H    basis set group =>   2
Atom  54C    basis set group =>   1
Atom  55C    basis set group =>   1
Atom  56C    basis set group =>   1
Atom  57H    basis set group =>   2
Atom  58H    basis set group =>   2
Atom  59C    basis set group =>   1
Atom  60C    basis set group =>   1
Atom  61H    basis set group =>   2
Atom  62H    basis set group =>   2
Atom  63H    basis set group =>   2
Atom  64H    basis set group =>   2
Atom  65H    basis set group =>   2
Atom  66H    basis set group =>   2
Atom  67H    basis set group =>   2
Atom  68H    basis set group =>   2
Atom  69H    basis set group =>   2
Atom  70H    basis set group =>   2
Atom  71H    basis set group =>   2
Atom  72H    basis set group =>   2

-------------------------
BASIS SET IN INPUT FORMAT
-------------------------

 # Basis set for element : H 
 NewGTO H 
 S 3 
   1      13.0107010000      0.0334854848
   2       1.9622572000      0.2347218709
   3       0.4445379600      0.8137702853
 S 1 
   1       0.1219496200      1.0000000000
 P 1 
   1       0.8000000000      1.0000000000
  end;

 # Basis set for element : C 
 NewGTO C 
 S 5 
   1    1238.4016938000      0.0055173650
   2     186.2900499200      0.0410888285
   3      42.2511763460      0.1822538213
   4      11.6765579320      0.4682845944
   5       3.5930506482      0.4457581734
 S 1 
   1       0.4024514736      1.0000000000
 S 1 
   1       0.1309018267      1.0000000000
 P 3 
   1       9.4680970621      0.0568883320
   2       2.0103545142      0.3129405934
   3       0.5477100471      0.7606501651
 P 1 
   1       0.1526861379      1.0000000000
 D 1 
   1       0.8000000000      1.0000000000
  end;

 # Basis set for element : O 
 NewGTO O 
 S 5 
   1    2266.1767785000     -0.0053893504
   2     340.8701019100     -0.0402347214
   3      77.3631351670     -0.1800818421
   4      21.4796449400     -0.4682885766
   5       6.6589433124     -0.4469261716
 S 1 
   1       0.8097597567      1.0000000000
 S 1 
   1       0.2553077223      1.0000000000
 P 3 
   1      17.7215043170      0.0626302488
   2       3.8635505440      0.3333113849
   3       1.0480920883      0.7414863830
 P 1 
   1       0.2764154441      1.0000000000
 D 1 
   1       1.2000000000      1.0000000000
  end;

---------------------------------
AUXILIARY/J BASIS SET INFORMATION
---------------------------------
There are 3 groups of distinct atoms

 Group   1 Type C   : 12s5p4d2f1g contracted to 6s4p3d1f1g pattern {711111/2111/211/2/1}
 Group   2 Type H   : 5s2p1d contracted to 3s1p1d pattern {311/2/1}
 Group   3 Type O   : 12s5p4d2f1g contracted to 6s4p3d1f1g pattern {711111/2111/211/2/1}

Atom   0C    basis set group =>   1
Atom   1C    basis set group =>   1
Atom   2C    basis set group =>   1
Atom   3H    basis set group =>   2
Atom   4H    basis set group =>   2
Atom   5C    basis set group =>   1
Atom   6C    basis set group =>   1
Atom   7C    basis set group =>   1
Atom   8H    basis set group =>   2
Atom   9H    basis set group =>   2
Atom  10H    basis set group =>   2
Atom  11H    basis set group =>   2
Atom  12O    basis set group =>   3
Atom  13H    basis set group =>   2
Atom  14C    basis set group =>   1
Atom  15C    basis set group =>   1
Atom  16H    basis set group =>   2
Atom  17H    basis set group =>   2
Atom  18C    basis set group =>   1
Atom  19H    basis set group =>   2
Atom  20C    basis set group =>   1
Atom  21H    basis set group =>   2
Atom  22C    basis set group =>   1
Atom  23C    basis set group =>   1
Atom  24H    basis set group =>   2
Atom  25H    basis set group =>   2
Atom  26C    basis set group =>   1
Atom  27H    basis set group =>   2
Atom  28H    basis set group =>   2
Atom  29C    basis set group =>   1
Atom  30H    basis set group =>   2
Atom  31H    basis set group =>   2
Atom  32C    basis set group =>   1
Atom  33H    basis set group =>   2
Atom  34C    basis set group =>   1
Atom  35H    basis set group =>   2
Atom  36C    basis set group =>   1
Atom  37H    basis set group =>   2
Atom  38H    basis set group =>   2
Atom  39C    basis set group =>   1
Atom  40H    basis set group =>   2
Atom  41H    basis set group =>   2
Atom  42H    basis set group =>   2
Atom  43C    basis set group =>   1
Atom  44C    basis set group =>   1
Atom  45H    basis set group =>   2
Atom  46H    basis set group =>   2
Atom  47H    basis set group =>   2
Atom  48H    basis set group =>   2
Atom  49C    basis set group =>   1
Atom  50C    basis set group =>   1
Atom  51C    basis set group =>   1
Atom  52H    basis set group =>   2
Atom  53H    basis set group =>   2
Atom  54C    basis set group =>   1
Atom  55C    basis set group =>   1
Atom  56C    basis set group =>   1
Atom  57H    basis set group =>   2
Atom  58H    basis set group =>   2
Atom  59C    basis set group =>   1
Atom  60C    basis set group =>   1
Atom  61H    basis set group =>   2
Atom  62H    basis set group =>   2
Atom  63H    basis set group =>   2
Atom  64H    basis set group =>   2
Atom  65H    basis set group =>   2
Atom  66H    basis set group =>   2
Atom  67H    basis set group =>   2
Atom  68H    basis set group =>   2
Atom  69H    basis set group =>   2
Atom  70H    basis set group =>   2
Atom  71H    basis set group =>   2
Atom  72H    basis set group =>   2

-------------------------------------
AUXILIARY/J BASIS SET IN INPUT FORMAT
-------------------------------------

 # Auxiliary/J basis set for element : H 
 NewAuxJGTO H 
 S 3 
   1      15.6752927000      0.1007184237
   2       3.6063578000      0.3404257499
   3       1.2080016000      0.6491996172
 S 1 
   1       0.4726794000      1.0000000000
 S 1 
   1       0.2018100000      1.0000000000
 P 2 
   1       2.0281365000      0.5596620919
   2       0.5358730000      0.5596620919
 D 1 
   1       2.2165124000      1.0000000000
  end;

 # Auxiliary/J basis set for element : C 
 NewAuxJGTO C 
 S 7 
   1    1861.0916331000      0.0134602335
   2     642.9939764000      0.0299160374
   3     235.1105725000      0.1008649584
   4      90.7028894000      0.2370970548
   5      36.7794552000      0.3924037254
   6      15.6046273000      0.3195862154
   7       6.8907294000      0.0530104441
 S 1 
   1       3.1478850000     -1.0000000000
 S 1 
   1       1.4777287000      1.0000000000
 S 1 
   1       0.7076466000      1.0000000000
 S 1 
   1       0.3430122000      1.0000000000
 S 1 
   1       0.1669453000      1.0000000000
 P 2 
   1      13.5472892000     -0.6769313712
   2       5.4669419000     -0.3779500978
 P 1 
   1       2.1751721000      1.0000000000
 P 1 
   1       0.8582194000      1.0000000000
 P 1 
   1       0.3376720000      1.0000000000
 D 2 
   1       5.9287253000     -0.3533329857
   2       1.9809209000     -0.7456525731
 D 1 
   1       0.8055417000     -1.0000000000
 D 1 
   1       0.3531244000     -1.0000000000
 F 2 
   1       1.6755626000      0.6311076882
   2       0.5997536000      0.4968166032
 G 1 
   1       1.0024600000     -1.0000000000
  end;

 # Auxiliary/J basis set for element : O 
 NewAuxJGTO O 
 S 7 
   1    2876.8216605000      0.0168151159
   2    1004.7443032000      0.0340137548
   3     369.7579954000      0.1194951309
   4     142.9442404000      0.2664627624
   5      57.8366425000      0.4202764046
   6      24.3864983000      0.2765077335
   7      10.6622662000      0.0057008815
 S 1 
   1       4.8070437000     -1.0000000000
 S 1 
   1       2.2210770000      1.0000000000
 S 1 
   1       1.0447795000      1.0000000000
 S 1 
   1       0.4968425000      1.0000000000
 S 1 
   1       0.2371384000      1.0000000000
 P 2 
   1      64.2613382000     -0.2731534179
   2      16.3006076000     -0.8168011598
 P 1 
   1       4.3550542000      1.0000000000
 P 1 
   1       1.2019554000      1.0000000000
 P 1 
   1       0.3354196000      1.0000000000
 D 2 
   1       9.2146611000     -0.4661230638
   2       2.8435251000     -0.6600908911
 D 1 
   1       0.9955759000     -1.0000000000
 D 1 
   1       0.3649441000     -1.0000000000
 F 2 
   1       2.6420115000      0.5931563945
   2       0.7345613000      0.5931563945
 G 1 
   1       1.3931000000     -1.0000000000
  end;


Checking for AutoStart:
The File: inpS.gbw exists
Trying to determine its content:
     ... Fine, the file contains calculation information
     ... Fine, the calculation information was read
     ... Fine, the file contains a basis set
     ... Fine, the basis set was read
     ... Fine, the file contains a geometry
     ... Fine, the geometry was read
     ... Fine, the file contains a set of orbitals
     ... Fine, the orbitals can be read
     => possible old guess file was deleted
     => GBW file was renamed to GES file
     => GES file is set as startup file
     => Guess is set to MORead
     ... now leaving AutoStart



           ************************************************************
           *        Program running with 4 parallel MPI-processes     *
           *              working on a common directory               *
           ************************************************************
------------------------------------------------------------------------------
                             ORCA STARTUP CALCULATIONS
                           -- RI-GTO INTEGRALS CHOSEN --
------------------------------------------------------------------------------
------------------------------------------------------------------------------
                   ___                                                        
                  /   \      - P O W E R E D   B Y -                         
                 /     \                                                     
                 |  |  |   _    _      __       _____    __    __             
                 |  |  |  | |  | |    /  \     |  _  \  |  |  /  |          
                  \  \/   | |  | |   /    \    | | | |  |  | /  /          
                 / \  \   | |__| |  /  /\  \   | |_| |  |  |/  /          
                |  |  |   |  __  | /  /__\  \  |    /   |      \           
                |  |  |   | |  | | |   __   |  |    \   |  |\   \          
                \     /   | |  | | |  |  |  |  | |\  \  |  | \   \       
                 \___/    |_|  |_| |__|  |__|  |_| \__\ |__|  \__/        
                                                                              
                      - O R C A' S   B I G   F R I E N D -                    
                                      &                                       
                       - I N T E G R A L  F E E D E R -                       
                                                                              
 v1 FN, 2020, v2 2021, v3 2022-2024                                           
------------------------------------------------------------------------------


----------------------
SHARK INTEGRAL PACKAGE
----------------------

Number of atoms                             ...     73
Number of basis functions                   ...    626
Number of shells                            ...    306
Maximum angular momentum                    ...      2
Integral batch strategy                     ... SHARK/LIBINT Hybrid
RI-J (if used) integral strategy            ... SPLIT-RIJ (Revised 2003 algorithm where possible)
Printlevel                                  ...      1
Contraction scheme used                     ... SEGMENTED contraction
Prescreening option                         ... SCHWARTZ
   Thresh                                   ... 3.000e-11
   Tcut                                     ... 1.000e-12
   Tpresel                                  ... 1.000e-12 
Coulomb Range Separation                    ... NOT USED
Exchange Range Separation                   ... Long Range
   Mu parameter                             ... 3.000e-01
   Scaling (regular/separated)              ... 1.670e-01 8.330e-01
Multipole approximations                    ... NOT USED
Finite Nucleus Model                        ... NOT USED
CABS basis                                  ... NOT available
Auxiliary Coulomb fitting basis             ... AVAILABLE
   # of basis functions in Aux-J            ...   1905
   # of shells in Aux-J                     ...    655
   Maximum angular momentum in Aux-J        ...      4
Auxiliary J/K fitting basis                 ... NOT available
Auxiliary Correlation fitting basis         ... NOT available
Auxiliary 'external' fitting basis          ... NOT available

Checking pre-screening integrals            ... done (  0.0 sec) Dimension = 306
Check shell pair data                       ... done (  0.0 sec)
Shell pair information
Shell pair cut-off parameter TPreSel        ...   1.0e-12
Total number of shell pairs                 ...     46971
Shell pairs after pre-screening             ...     27647
Total number of primitive shell pairs       ...    162105
Primitive shell pairs kept                  ...     61046
          la=0 lb=0:   9676 shell pairs
          la=1 lb=0:  10607 shell pairs
          la=1 lb=1:   2928 shell pairs
          la=2 lb=0:   2769 shell pairs
          la=2 lb=1:   1470 shell pairs
          la=2 lb=2:    197 shell pairs

Calculating one electron integrals          ... done (  0.1 sec)
Calculating RI/J V-Matrix + Cholesky decomp.... done (  0.2 sec)
Calculating Nuclear repulsion               ... done (  0.0 sec) ENN=   2790.275590064611 Eh

Diagonalization of the overlap matrix:
Smallest eigenvalue                        ... 4.521e-04
Time for diagonalization                   ...    0.046 sec
Threshold for overlap eigenvalues          ... 1.000e-07
Number of eigenvalues below threshold      ... 0
Time for construction of square roots      ...    0.025 sec
Total time needed                          ...    0.074 sec

-------------------
DFT GRID GENERATION
-------------------

General Integration Accuracy     IntAcc      ... 4.388
Radial Grid Type                 RadialGrid  ... OptM3 with GC (2021)
Angular Grid (max. ang.)         AngularGrid ... 4 (Lebedev-302)
Angular grid pruning method      GridPruning ... 4 (adaptive)
Weight generation scheme         WeightScheme... mBecke (2022)
Basis function cutoff            BFCut       ... 1.0000e-11
Integration weight cutoff        WCut        ... 1.0000e-14
Partially contracted basis set               ... off
Rotationally invariant grid construction     ... off
Angular grids for H and He will be reduced by one unit

Total number of grid points                  ...   309811
Total number of batches                      ...     4880
Average number of points per batch           ...       63
Average number of grid points per atom       ...     4244

--------------------
COSX GRID GENERATION
--------------------

GRIDX 1
-------
General Integration Accuracy     IntAcc      ... 3.816
Radial Grid Type                 RadialGrid  ... OptM3 with GC (2021)
Angular Grid (max. ang.)         AngularGrid ... 1 (Lebedev-50)
Angular grid pruning method      GridPruning ... 4 (adaptive)
Weight generation scheme         WeightScheme... mBecke (2022)
Basis function cutoff            BFCut       ... 1.0000e-11
Integration weight cutoff        WCut        ... 1.0000e-14
Partially contracted basis set               ... on
Rotationally invariant grid construction     ... off
Angular grids for H and He will be reduced by one unit

Total number of grid points                  ...    39398
Total number of batches                      ...      354
Average number of points per batch           ...      111
Average number of grid points per atom       ...      540
UseSFitting                                  ... on

GRIDX 2
-------
General Integration Accuracy     IntAcc      ... 4.020
Radial Grid Type                 RadialGrid  ... OptM3 with GC (2021)
Angular Grid (max. ang.)         AngularGrid ... 2 (Lebedev-110)
Angular grid pruning method      GridPruning ... 4 (adaptive)
Weight generation scheme         WeightScheme... mBecke (2022)
Basis function cutoff            BFCut       ... 1.0000e-11
Integration weight cutoff        WCut        ... 1.0000e-14
Partially contracted basis set               ... on
Rotationally invariant grid construction     ... off
Angular grids for H and He will be reduced by one unit

Total number of grid points                  ...    81424
Total number of batches                      ...      676
Average number of points per batch           ...      120
Average number of grid points per atom       ...     1115
UseSFitting                                  ... on

GRIDX 3
-------
General Integration Accuracy     IntAcc      ... 4.338
Radial Grid Type                 RadialGrid  ... OptM3 with GC (2021)
Angular Grid (max. ang.)         AngularGrid ... 3 (Lebedev-194)
Angular grid pruning method      GridPruning ... 4 (adaptive)
Weight generation scheme         WeightScheme... mBecke (2022)
Basis function cutoff            BFCut       ... 1.0000e-11
Integration weight cutoff        WCut        ... 1.0000e-14
Partially contracted basis set               ... on
Rotationally invariant grid construction     ... off
Angular grids for H and He will be reduced by one unit

Total number of grid points                  ...   176108
Total number of batches                      ...     1418
Average number of points per batch           ...      124
Average number of grid points per atom       ...     2412
UseSFitting                                  ... on
Initializing property integral containers    ... done (  0.0 sec)

SHARK setup successfully completed in   4.4 seconds

Maximum memory used throughout the entire STARTUP-calculation: 96.0 MB


           ************************************************************
           *        Program running with 4 parallel MPI-processes     *
           *              working on a common directory               *
           ************************************************************
-------------------------------------------------------------------------------
                                 ORCA GUESS
                   Start orbitals & Density for SCF / CASSCF
-------------------------------------------------------------------------------

------------
SCF SETTINGS
------------
Hamiltonian:
 Density Functional     Method          .... DFT(GTOs)
 Exchange Functional    Exchange        .... WB97X-V
 Correlation Functional Correlation     .... WB97X-V
 Gradients option       PostSCFGGA      .... off
 Hybrid DFT is turned on
   Fraction HF Exchange ScalHFX         ....  0.167000
   Scaling of DF-GGA-X  ScalDFX         ....  0.000000
   Scaling of DF-GGA-C  ScalDFC         ....  1.000000
   Scaling of DF-LDA-C  ScalLDAC        ....  1.000000
   Perturbative correction              ....  0.000000
 Long-range corrected/Screened/Range-Separated Hybrid DFT is turned on
   Amount of maximum screened exact exchange              ....  0.833000
   Range separation parameter mu (erf(mu*r12)/r12)        ....  0.300000
 RI-approximation to the Coulomb term is turned on
   Number of AuxJ basis functions       .... 1905
   RIJ-COSX (HFX calculated with COS-X)).... on


General Settings:
 Integral files         IntName         .... inpS
 Hartree-Fock type      HFTyp           .... RHF
 Total Charge           Charge          ....    0
 Multiplicity           Mult            ....    1
 Number of Electrons    NEL             ....  220
 Basis Dimension        Dim             ....  626
 Nuclear Repulsion      ENuc            ....   2790.2755900646 Eh

Convergence Acceleration:
 AO-DIIS                CNVDIIS         .... on
   Start iteration      DIISMaxIt       ....    12
   Startup error        DIISStart       ....  0.200000
   # of expansion vecs  DIISMaxEq       ....     5
   Bias factor          DIISBfac        ....   1.050
   Max. coefficient     DIISMaxC        ....  10.000
 MO-DIIS                CNVKDIIS        .... off
 Trust-Rad. Augm. Hess. CNVTRAH         .... auto
   Auto Start mean grad. ratio tolernc. ....  1.125000
   Auto Start start iteration           ....     1
   Auto Start num. interpolation iter.  ....    10
   Max. Number of Micro iterations      ....    24
   Max. Number of Macro iterations      .... Maxiter - #DIIS iter
   Number of Davidson start vectors     ....     2
   Converg. threshold    (grad. norm)   ....   1.000e-04
   Grad. Scal. Fac. for Micro threshold ....   0.100
   Minimum threshold for Micro iter.    ....   1.000e-02
   NR start threshold (gradient norm)   ....   1.000e-04
   Initial trust radius                 ....   0.400
   Minimum AH scaling param. (alpha)    ....   1.000
   Maximum AH scaling param. (alpha)    .... 1000.000
   Quad. conv. algorithm                .... NR
   White noise on init. David. guess    .... on
   Maximum white noise                  ....   0.010
   Pseudo random numbers                .... off
   Inactive MOs                         .... canonical
   Orbital update algorithm             .... Taylor
   Preconditioner                       .... Diag
   Full preconditioner red. dimension   ....   250
 SOSCF                  CNVSOSCF        .... off
 Level Shifting         CNVShift        .... on
   Level shift para.    LevelShift      ....    0.2500
   Turn off err/grad.   ShiftErr        ....    0.0010
 Zerner damping         CNVZerner       .... off
 Static damping         CNVDamp         .... on
   Fraction old density DampFac         ....    0.7000
   Max. Damping (<1)    DampMax         ....    0.9800
   Min. Damping (>=0)   DampMin         ....    0.0000
   Turn off err/grad.   DampErr         ....    0.1000

SCF Procedure:
 Maximum # iterations   MaxIter         ....   125
 SCF integral mode      SCFMode         .... Direct
   Integral package                     .... SHARK and LIBINT hybrid scheme
 Reset frequency        DirectResetFreq ....    20
 Integral Threshold     Thresh          ....  3.000e-11 Eh
 Primitive CutOff       TCut            ....  1.000e-12 Eh

Convergence Tolerance:
 Convergence Check Mode ConvCheckMode   .... Total+1el-Energy
 Convergence forced     ConvForced      .... 0
 Energy Change          TolE            ....  1.000e-07 Eh
 1-El. energy change                    ....  1.000e-04 Eh
 DIIS Error             TolErr          ....  1.000e-07

---------------------
INITIAL GUESS: MOREAD
---------------------
Guess MOs are being read from file: inpS.ges
Input Geometry matches current geometry (good)
Input basis set matches current basis set (good)
Occupation numbers will be reassigned to an Aufbau configuration
MOs were renormalized
MOs were reorthogonalized (Cholesky)
                      ------------------
                      INITIAL GUESS DONE (   0.2 sec)
                      ------------------
             **** ENERGY FILE WAS UPDATED (inpS.en.tmp) ****
Finished Guess after   0.4 sec
Maximum memory used throughout the entire GUESS-calculation: 52.6 MB


           ************************************************************
           *        Program running with 4 parallel MPI-processes     *
           *              working on a common directory               *
           ************************************************************

-------------------------------------------------------------------------------------------
                                      ORCA LEAN-SCF
                              memory conserving SCF solver
-------------------------------------------------------------------------------------------

--------------------
CPCM SOLVATION MODEL
--------------------
CPCM parameters:
  Epsilon                                         ...       4.8030
  Refrac                                          ...       1.4459
  Rsolv                                           ...       1.3000
  Surface type                                    ... GAUSSIAN VDW
  Discretization scheme                           ... Constant charge density
    Threshold for H atoms                         ...       5.0000 (charges/Ang^2)
    Threshold for non-H atoms                     ...       5.0000 (charges/Ang^2)
  Epsilon function type                           ...         CPCM
Solvent:                                          ... CHLOROFORM
Radii:
  Scheme                                          ... Element-dependent radii
  Radius for C  used is    3.8550 Bohr (=   2.0400 Ang.)
  Radius for H  used is    2.4944 Bohr (=   1.3200 Ang.)
  Radius for O  used is    3.4469 Bohr (=   1.8240 Ang.)
Calculating surface                               ...        done! (  0.0s)
Cavity surface points                             ...         5355
Cavity Volume                                     ...    3597.7663
Cavity Surface-area                               ...    1781.1670
Calculating surface distance matrix               ...        done! (  0.2s)
Performing Cholesky decomposition & store         ...        done! (  1.0s)
Overall time for CPCM initialization              ...                 1.2s

----------------------------------------D-I-I-S--------------------------------------------
Iteration    Energy (Eh)           Delta-E    RMSDP     MaxDP     DIISErr   Damp  Time(sec)
-------------------------------------------------------------------------------------------
               ***  Starting incremental Fock matrix formation  ***
    1    -1168.3605215611296444     0.00e+00  3.08e-08  1.96e-06  4.33e-06  0.700  23.6

  HOMO= 109 E= -7.965 eV LUMO=  8.074 eV gap=  16.039 eV
    2    -1168.3605215445290924     1.66e-08  2.66e-08  1.24e-06  2.28e-06  0.700   4.9
                 **** Energy Check signals convergence ****

  HOMO= 109 E= -7.965 eV LUMO=  8.074 eV gap=  16.039 eV

               *****************************************************
               *                     SUCCESS                       *
               *           SCF CONVERGED AFTER   2 CYCLES          *
               *****************************************************

Recomputing exchange energy using gridx3       ... done (   41.323 sec)
Old exchange energy                            :    -56.783037593 Eh
New exchange energy                            :    -56.783009942 Eh
Exchange energy change after final integration :      0.000027651 Eh
Total energy after final integration           :  -1168.360493893 Eh
             **** ENERGY FILE WAS UPDATED (inpS.en.tmp) ****

----------------
TOTAL SCF ENERGY
----------------

Total Energy       :      -1168.36049389304321 Eh          -31792.70535 eV

Components:
Nuclear Repulsion  :       2790.27559006461115 Eh           75927.25887 eV
Electronic Energy  :      -3958.62683122034969 Eh         -107719.71244 eV
One Electron Energy:      -7125.59264800260371 Eh         -193897.23350 eV
Two Electron Energy:       3166.96581678225402 Eh           86177.52106 eV
CPCM Dielectric    :         -0.00928038879048 Eh              -0.25253 eV

Virial components:
Potential Energy   :      -2321.65840421593748 Eh          -63175.53696 eV
Kinetic Energy     :       1153.29791032289404 Eh           31382.83161 eV
Virial Ratio       :          2.01306044469111

DFT components:
N(Alpha)           :      109.999999263745 electrons
N(Beta)            :      109.999999263745 electrons
N(Total)           :      219.999998527489 electrons
E(X)               :     -111.769920502869 Eh       
E(C)               :       -8.953005722003 Eh       
E(XC)              :     -120.722926224872 Eh       

CPCM Solvation Model Properties:
Surface-charge          :         -0.04176993948509
Corrected charge        :          0.00000000000000
Outlying charge corr.   :          0.00006121511065 Eh               0.00167 eV
Free-energy (cav+disp)  :  This term is not implemented in the current solvation scheme

---------------
SCF CONVERGENCE
---------------

  Last Energy change         ...   -1.6601e-08  Tolerance :   1.0000e-07
  Last MAX-Density change    ...    1.2449e-06  Tolerance :   1.0000e-05
  Last RMS-Density change    ...    2.6591e-08  Tolerance :   1.0000e-06
  Last DIIS Error            ...    2.2815e-06  Tolerance :   1.0000e-07


----------------
ORBITAL ENERGIES
----------------

  NO   OCC          E(Eh)            E(eV) 
   0   2.0000     -19.212282      -522.7928 
   1   2.0000     -10.330302      -281.1018 
   2   2.0000     -10.294230      -280.1202 
   3   2.0000     -10.292070      -280.0615 
   4   2.0000     -10.287559      -279.9387 
   5   2.0000     -10.286598      -279.9126 
   6   2.0000     -10.285407      -279.8802 
   7   2.0000     -10.284141      -279.8457 
   8   2.0000     -10.283366      -279.8246 
   9   2.0000     -10.282967      -279.8138 
  10   2.0000     -10.282510      -279.8013 
  11   2.0000     -10.281712      -279.7796 
  12   2.0000     -10.279251      -279.7127 
  13   2.0000     -10.278060      -279.6802 
  14   2.0000     -10.277434      -279.6632 
  15   2.0000     -10.277210      -279.6571 
  16   2.0000     -10.276915      -279.6491 
  17   2.0000     -10.276737      -279.6442 
  18   2.0000     -10.273525      -279.5568 
  19   2.0000     -10.273032      -279.5434 
  20   2.0000     -10.272343      -279.5247 
  21   2.0000     -10.271810      -279.5102 
  22   2.0000     -10.270835      -279.4836 
  23   2.0000     -10.270528      -279.4753 
  24   2.0000     -10.269990      -279.4606 
  25   2.0000     -10.268633      -279.4237 
  26   2.0000     -10.268563      -279.4218 
  27   2.0000     -10.267001      -279.3793 
  28   2.0000     -10.266804      -279.3739 
  29   2.0000      -1.130804       -30.7708 
  30   2.0000      -0.998687       -27.1757 
  31   2.0000      -0.977295       -26.5935 
  32   2.0000      -0.957707       -26.0605 
  33   2.0000      -0.942680       -25.6516 
  34   2.0000      -0.917653       -24.9706 
  35   2.0000      -0.911008       -24.7898 
  36   2.0000      -0.890058       -24.2197 
  37   2.0000      -0.888061       -24.1654 
  38   2.0000      -0.872871       -23.7520 
  39   2.0000      -0.853364       -23.2212 
  40   2.0000      -0.833449       -22.6793 
  41   2.0000      -0.825768       -22.4703 
  42   2.0000      -0.809388       -22.0246 
  43   2.0000      -0.800371       -21.7792 
  44   2.0000      -0.797510       -21.7014 
  45   2.0000      -0.791592       -21.5403 
  46   2.0000      -0.768071       -20.9003 
  47   2.0000      -0.760277       -20.6882 
  48   2.0000      -0.725779       -19.7494 
  49   2.0000      -0.713022       -19.4023 
  50   2.0000      -0.704375       -19.1670 
  51   2.0000      -0.698734       -19.0135 
  52   2.0000      -0.688831       -18.7440 
  53   2.0000      -0.668763       -18.1980 
  54   2.0000      -0.653309       -17.7774 
  55   2.0000      -0.630962       -17.1693 
  56   2.0000      -0.622564       -16.9408 
  57   2.0000      -0.619636       -16.8611 
  58   2.0000      -0.607372       -16.5274 
  59   2.0000      -0.602942       -16.4069 
  60   2.0000      -0.589606       -16.0440 
  61   2.0000      -0.584668       -15.9096 
  62   2.0000      -0.580115       -15.7857 
  63   2.0000      -0.570259       -15.5175 
  64   2.0000      -0.566565       -15.4170 
  65   2.0000      -0.561070       -15.2675 
  66   2.0000      -0.555553       -15.1174 
  67   2.0000      -0.549953       -14.9650 
  68   2.0000      -0.546776       -14.8785 
  69   2.0000      -0.544720       -14.8226 
  70   2.0000      -0.538968       -14.6661 
  71   2.0000      -0.531004       -14.4494 
  72   2.0000      -0.528484       -14.3808 
  73   2.0000      -0.519837       -14.1455 
  74   2.0000      -0.519504       -14.1364 
  75   2.0000      -0.508573       -13.8390 
  76   2.0000      -0.505789       -13.7632 
  77   2.0000      -0.501945       -13.6586 
  78   2.0000      -0.498904       -13.5759 
  79   2.0000      -0.496593       -13.5130 
  80   2.0000      -0.489079       -13.3085 
  81   2.0000      -0.488006       -13.2793 
  82   2.0000      -0.485054       -13.1990 
  83   2.0000      -0.479816       -13.0565 
  84   2.0000      -0.470714       -12.8088 
  85   2.0000      -0.467385       -12.7182 
  86   2.0000      -0.462257       -12.5786 
  87   2.0000      -0.459834       -12.5127 
  88   2.0000      -0.453556       -12.3419 
  89   2.0000      -0.450911       -12.2699 
  90   2.0000      -0.448982       -12.2174 
  91   2.0000      -0.444529       -12.0962 
  92   2.0000      -0.441122       -12.0035 
  93   2.0000      -0.434971       -11.8362 
  94   2.0000      -0.428884       -11.6705 
  95   2.0000      -0.424623       -11.5546 
  96   2.0000      -0.422619       -11.5001 
  97   2.0000      -0.419287       -11.4094 
  98   2.0000      -0.416732       -11.3399 
  99   2.0000      -0.413368       -11.2483 
 100   2.0000      -0.410558       -11.1719 
 101   2.0000      -0.409268       -11.1367 
 102   2.0000      -0.405814       -11.0428 
 103   2.0000      -0.400347       -10.8940 
 104   2.0000      -0.392121       -10.6701 
 105   2.0000      -0.381356       -10.3772 
 106   2.0000      -0.372658       -10.1405 
 107   2.0000      -0.355311        -9.6685 
 108   2.0000      -0.336462        -9.1556 
 109   2.0000      -0.292707        -7.9650 
 110   0.0000       0.046715         1.2712 
 111   0.0000       0.099536         2.7085 
 112   0.0000       0.110431         3.0050 
 113   0.0000       0.131177         3.5695 
 114   0.0000       0.141138         3.8406 
 115   0.0000       0.144243         3.9250 
 116   0.0000       0.149530         4.0689 
 117   0.0000       0.153765         4.1842 
 118   0.0000       0.161139         4.3848 
 119   0.0000       0.164007         4.4629 
 120   0.0000       0.168856         4.5948 
*Only the first 10 virtual orbitals were printed.

                    ********************************
                    * MULLIKEN POPULATION ANALYSIS *
                    ********************************

-----------------------
MULLIKEN ATOMIC CHARGES
-----------------------
   0 C :   -0.174127
   1 C :    0.141671
   2 C :    0.068438
   3 H :    0.017423
   4 H :    0.030545
   5 C :   -0.171516
   6 C :    0.096385
   7 C :    0.024100
   8 H :    0.013666
   9 H :    0.027266
  10 H :    0.019807
  11 H :    0.022543
  12 O :   -0.359322
  13 H :    0.018128
  14 C :   -0.008059
  15 C :   -0.045599
  16 H :    0.035139
  17 H :    0.029355
  18 C :   -0.062636
  19 H :   -0.002679
  20 C :   -0.114016
  21 H :    0.003254
  22 C :    0.114821
  23 C :   -0.001645
  24 H :    0.014412
  25 H :    0.017213
  26 C :    0.106602
  27 H :    0.012999
  28 H :    0.015445
  29 C :   -0.420730
  30 H :    0.009082
  31 H :   -0.002218
  32 C :   -0.038417
  33 H :    0.010134
  34 C :    0.109235
  35 H :    0.179099
  36 C :    0.071550
  37 H :    0.007578
  38 H :    0.015248
  39 C :   -0.037494
  40 H :    0.010733
  41 H :    0.000304
  42 H :   -0.000584
  43 C :    0.002201
  44 C :    0.095203
  45 H :    0.020314
  46 H :    0.024187
  47 H :    0.016559
  48 H :    0.006129
  49 C :    0.047890
  50 C :   -0.098589
  51 C :   -0.062610
  52 H :    0.009484
  53 H :    0.014151
  54 C :   -0.053175
  55 C :    0.042803
  56 C :   -0.188500
  57 H :    0.011228
  58 H :    0.012716
  59 C :    0.038903
  60 C :    0.023263
  61 H :    0.023799
  62 H :    0.018768
  63 H :    0.023348
  64 H :    0.015657
  65 H :    0.018953
  66 H :    0.018954
  67 H :    0.017239
  68 H :    0.018825
  69 H :    0.017815
  70 H :    0.030659
  71 H :    0.017496
  72 H :    0.013199
Sum of atomic charges:   -0.0000000

--------------------------------
MULLIKEN REDUCED ORBITAL CHARGES
--------------------------------
  0 C s       :     3.102464  s :     3.102464
      pz      :     1.013912  p :     3.028614
      px      :     1.003221
      py      :     1.011481
      dz2     :     0.005757  d :     0.043049
      dxz     :     0.006370
      dyz     :     0.005886
      dx2y2   :     0.013585
      dxy     :     0.011449

  1 C s       :     2.939997  s :     2.939997
      pz      :     0.991307  p :     2.883928
      px      :     0.928707
      py      :     0.963914
      dz2     :     0.008409  d :     0.034403
      dxz     :     0.006143
      dyz     :     0.003656
      dx2y2   :     0.009705
      dxy     :     0.006491

  2 C s       :     3.084838  s :     3.084838
      pz      :     0.732655  p :     2.776050
      px      :     1.047987
      py      :     0.995408
      dz2     :     0.023288  d :     0.070674
      dxz     :     0.011472
      dyz     :     0.017278
      dx2y2   :     0.010846
      dxy     :     0.007790

  3 H s       :     0.959921  s :     0.959921
      pz      :     0.005161  p :     0.022656
      px      :     0.003622
      py      :     0.013873

  4 H s       :     0.946145  s :     0.946145
      pz      :     0.014619  p :     0.023310
      px      :     0.004350
      py      :     0.004341

  5 C s       :     3.109176  s :     3.109176
      pz      :     0.972959  p :     3.017525
      px      :     0.991385
      py      :     1.053182
      dz2     :     0.009135  d :     0.044815
      dxz     :     0.005619
      dyz     :     0.008372
      dx2y2   :     0.011374
      dxy     :     0.010316

  6 C s       :     2.954623  s :     2.954623
      pz      :     1.005142  p :     2.913551
      px      :     0.941307
      py      :     0.967102
      dz2     :     0.009171  d :     0.035441
      dxz     :     0.005767
      dyz     :     0.004156
      dx2y2   :     0.008702
      dxy     :     0.007643

  7 C s       :     3.002197  s :     3.002197
      pz      :     0.985063  p :     2.938918
      px      :     0.982991
      py      :     0.970864
      dz2     :     0.008117  d :     0.034785
      dxz     :     0.005767
      dyz     :     0.004259
      dx2y2   :     0.008275
      dxy     :     0.008367

  8 H s       :     0.963500  s :     0.963500
      pz      :     0.005866  p :     0.022834
      px      :     0.003695
      py      :     0.013272

  9 H s       :     0.949340  s :     0.949340
      pz      :     0.014624  p :     0.023394
      px      :     0.004320
      py      :     0.004450

 10 H s       :     0.957367  s :     0.957367
      pz      :     0.014343  p :     0.022826
      px      :     0.004443
      py      :     0.004040

 11 H s       :     0.954826  s :     0.954826
      pz      :     0.007440  p :     0.022631
      px      :     0.008003
      py      :     0.007189

 12 O s       :     3.713312  s :     3.713312
      pz      :     1.382014  p :     4.633880
      px      :     1.360071
      py      :     1.891796
      dz2     :     0.005273  d :     0.012130
      dxz     :     0.001503
      dyz     :     0.001566
      dx2y2   :     0.003207
      dxy     :     0.000581

 13 H s       :     0.961523  s :     0.961523
      pz      :     0.002031  p :     0.020349
      px      :     0.013697
      py      :     0.004621

 14 C s       :     3.194417  s :     3.194417
      pz      :     0.992539  p :     2.777286
      px      :     0.876393
      py      :     0.908354
      dz2     :     0.004719  d :     0.036356
      dxz     :     0.007480
      dyz     :     0.003280
      dx2y2   :     0.010877
      dxy     :     0.010001

 15 C s       :     3.123548  s :     3.123548
      pz      :     1.010896  p :     2.895784
      px      :     0.977811
      py      :     0.907078
      dz2     :     0.005081  d :     0.026267
      dxz     :     0.004122
      dyz     :     0.004145
      dx2y2   :     0.006730
      dxy     :     0.006190

 16 H s       :     0.940319  s :     0.940319
      pz      :     0.006376  p :     0.024541
      px      :     0.009137
      py      :     0.009029

 17 H s       :     0.946031  s :     0.946031
      pz      :     0.004978  p :     0.024614
      px      :     0.004274
      py      :     0.015362

 18 C s       :     3.200682  s :     3.200682
      pz      :     1.028345  p :     2.826779
      px      :     0.889755
      py      :     0.908679
      dz2     :     0.004123  d :     0.035175
      dxz     :     0.006695
      dyz     :     0.003198
      dx2y2   :     0.011833
      dxy     :     0.009327

 19 H s       :     0.978355  s :     0.978355
      pz      :     0.004701  p :     0.024324
      px      :     0.004663
      py      :     0.014960

 20 C s       :     3.099450  s :     3.099450
      pz      :     0.960500  p :     2.970462
      px      :     0.978812
      py      :     1.031150
      dz2     :     0.005267  d :     0.044104
      dxz     :     0.006908
      dyz     :     0.006865
      dx2y2   :     0.013593
      dxy     :     0.011471

 21 H s       :     0.972214  s :     0.972214
      pz      :     0.004614  p :     0.024532
      px      :     0.004197
      py      :     0.015721

 22 C s       :     2.925089  s :     2.925089
      pz      :     1.001589  p :     2.924570
      px      :     0.977605
      py      :     0.945375
      dz2     :     0.009908  d :     0.035520
      dxz     :     0.004076
      dyz     :     0.005027
      dx2y2   :     0.009503
      dxy     :     0.007006

 23 C s       :     3.000625  s :     3.000625
      pz      :     1.012965  p :     2.964548
      px      :     0.961141
      py      :     0.990442
      dz2     :     0.010492  d :     0.036473
      dxz     :     0.006663
      dyz     :     0.002810
      dx2y2   :     0.010107
      dxy     :     0.006399

 24 H s       :     0.962376  s :     0.962376
      pz      :     0.005367  p :     0.023211
      px      :     0.012782
      py      :     0.005062

 25 H s       :     0.959509  s :     0.959509
      pz      :     0.014324  p :     0.023278
      px      :     0.004507
      py      :     0.004448

 26 C s       :     2.969767  s :     2.969767
      pz      :     0.970957  p :     2.888298
      px      :     0.976209
      py      :     0.941133
      dz2     :     0.008298  d :     0.035332
      dxz     :     0.005803
      dyz     :     0.004868
      dx2y2   :     0.008200
      dxy     :     0.008164

 27 H s       :     0.964153  s :     0.964153
      pz      :     0.014387  p :     0.022848
      px      :     0.003879
      py      :     0.004582

 28 H s       :     0.961913  s :     0.961913
      pz      :     0.004992  p :     0.022642
      px      :     0.003716
      py      :     0.013934

 29 C s       :     3.260190  s :     3.260190
      pz      :     1.055802  p :     3.109546
      px      :     0.997561
      py      :     1.056183
      dz2     :     0.012062  d :     0.050994
      dxz     :     0.010347
      dyz     :     0.009092
      dx2y2   :     0.010336
      dxy     :     0.009157

 30 H s       :     0.967861  s :     0.967861
      pz      :     0.007704  p :     0.023057
      px      :     0.008920
      py      :     0.006433

 31 H s       :     0.979689  s :     0.979689
      pz      :     0.013963  p :     0.022529
      px      :     0.004446
      py      :     0.004120

 32 C s       :     3.032487  s :     3.032487
      pz      :     0.995889  p :     2.962099
      px      :     0.939273
      py      :     1.026937
      dz2     :     0.009648  d :     0.043832
      dxz     :     0.006663
      dyz     :     0.006971
      dx2y2   :     0.011114
      dxy     :     0.009435

 33 H s       :     0.968584  s :     0.968584
      pz      :     0.013363  p :     0.021283
      px      :     0.003813
      py      :     0.004107

 34 C s       :     2.906499  s :     2.906499
      pz      :     0.989743  p :     2.949268
      px      :     0.984529
      py      :     0.974996
      dz2     :     0.005815  d :     0.034998
      dxz     :     0.006055
      dyz     :     0.007668
      dx2y2   :     0.009187
      dxy     :     0.006273

 35 H s       :     0.752111  s :     0.752111
[...]
 Total          138.417          176.425          191.037  iso=     168.626

 Orientation: 
  X           0.1750371   -0.5926404    0.7862184
  Y          -0.0124225   -0.7998123   -0.6001216
  Z           0.9844835    0.0952767   -0.1473589

 --------------
 Nucleus  39C :
 --------------

Diamagnetic contribution to the shielding tensor (ppm) : 
           266.493          4.947        -5.658
             2.327        271.626         6.238
            -4.463          4.291       255.658

Paramagnetic contribution to the shielding tensor (ppm): 
          -103.489         -5.926        11.515
             7.149       -123.934         3.360
            17.810         -0.140      -124.764

Total shielding tensor (ppm): 
           163.004         -0.980         5.857
             9.476        147.692         9.598
            13.347          4.151       130.894


 Diagonalized sT*s matrix:
 
 sDSO           257.054          270.680          266.044  iso=     264.593
 sPSO          -130.315         -123.319          -98.553  iso=    -117.396
        ---------------  ---------------  ---------------
 Total          126.738          147.361          167.491  iso=     147.197

 Orientation: 
  X          -0.2109021   -0.3392258   -0.9167585
  Y          -0.2712077    0.9213402   -0.2785293
  Z           0.9391308    0.1898896   -0.2863132

 --------------
 Nucleus  43C :
 --------------

Diamagnetic contribution to the shielding tensor (ppm) : 
           260.088          0.234        -3.279
            -4.066        258.294         6.850
             0.375          7.569       240.296

Paramagnetic contribution to the shielding tensor (ppm): 
           -89.902         -8.244        -1.865
             0.020        -97.362        -4.665
            -1.019        -10.008       -92.557

Total shielding tensor (ppm): 
           170.186         -8.011        -5.144
            -4.046        160.932         2.185
            -0.643         -2.439       147.739


 Diagonalized sT*s matrix:
 
 sDSO           241.254          255.452          261.971  iso=     252.892
 sPSO           -93.944          -97.313          -88.564  iso=     -93.273
        ---------------  ---------------  ---------------
 Total          147.310          158.140          173.407  iso=     159.619

 Orientation: 
  X           0.1505312   -0.4247205    0.8927222
  Y           0.0635940   -0.8969814   -0.4374701
  Z           0.9865577    0.1226247   -0.1080140

 --------------
 Nucleus  44C :
 --------------

Diamagnetic contribution to the shielding tensor (ppm) : 
           250.514          0.646        -0.484
            -0.259        257.856        -0.782
            -0.768          3.810       270.393

Paramagnetic contribution to the shielding tensor (ppm): 
           -71.333         -4.458        -0.963
            -2.932        -79.142        -1.720
             0.165         -6.333       -76.467

Total shielding tensor (ppm): 
           179.181         -3.812        -1.446
            -3.191        178.714        -2.503
            -0.603         -2.523       193.927


 Diagonalized sT*s matrix:
 
 sDSO           255.211          253.881          269.672  iso=     259.588
 sPSO           -80.116          -71.500          -75.327  iso=     -75.648
        ---------------  ---------------  ---------------
 Total          175.095          182.381          194.345  iso=     183.940

 Orientation: 
  X           0.6647471    0.7464355   -0.0307450
  Y           0.7350379   -0.6608441   -0.1516719
  Z           0.1335309   -0.0782247    0.9879526

 --------------
 Nucleus  49C :
 --------------

Diamagnetic contribution to the shielding tensor (ppm) : 
           244.729         -6.414        -2.821
           -18.394        260.295         0.855
            -4.696          6.591       242.453

Paramagnetic contribution to the shielding tensor (ppm): 
           -75.536          0.916         1.072
            16.931        -75.181         8.896
             6.164         -0.457       -72.308

Total shielding tensor (ppm): 
           169.193         -5.498        -1.749
            -1.464        185.114         9.751
             1.468          6.134       170.146


 Diagonalized sT*s matrix:
 
 sDSO           241.628          242.043          263.807  iso=     249.159
 sPSO           -75.511          -72.782          -74.732  iso=     -74.342
        ---------------  ---------------  ---------------
 Total          166.117          169.261          189.075  iso=     174.818

 Orientation: 
  X           0.4319961    0.8884239   -0.1551848
  Y           0.4158223   -0.0435188    0.9084040
  Z          -0.8002944    0.4569563    0.3882265

 --------------
 Nucleus  50C :
 --------------

Diamagnetic contribution to the shielding tensor (ppm) : 
           268.858          9.379         2.123
            18.486        235.349         5.794
            -0.844         10.811       272.045

Paramagnetic contribution to the shielding tensor (ppm): 
          -278.432        -72.340        39.412
           -80.215        -94.727        -5.820
            30.249         -7.703      -211.014

Total shielding tensor (ppm): 
            -9.574        -62.961        41.535
           -61.729        140.622        -0.026
            29.405          3.109        61.032


 Diagonalized sT*s matrix:
 
 sDSO           272.916          274.257          229.079  iso=     258.751
 sPSO          -312.647         -206.640          -64.886  iso=    -194.725
        ---------------  ---------------  ---------------
 Total          -39.731           67.617          164.193  iso=      64.026

 Orientation: 
  X           0.9352280    0.0908817    0.3421828
  Y           0.3243721    0.1673771   -0.9310036
  Z          -0.1418848    0.9816952    0.1270563

 --------------
 Nucleus  51C :
 --------------

Diamagnetic contribution to the shielding tensor (ppm) : 
           267.218         14.111        -0.636
             3.396        258.965         3.162
             4.031         -4.676       284.849

Paramagnetic contribution to the shielding tensor (ppm): 
          -272.487        -74.582        36.216
           -70.789       -129.232       -19.514
            28.275         -8.261      -218.834

Total shielding tensor (ppm): 
            -5.269        -60.471        35.580
           -67.393        129.733       -16.352
            32.306        -12.937        66.015


 Diagonalized sT*s matrix:
 
 sDSO           272.123          282.048          256.861  iso=     270.344
 sPSO          -309.225         -216.940          -94.388  iso=    -206.851
        ---------------  ---------------  ---------------
 Total          -37.102           65.108          162.473  iso=      63.493

 Orientation: 
  X           0.9093666    0.0741862    0.4093273
  Y           0.3639444    0.3347046   -0.8692050
  Z          -0.2014868    0.9393983    0.2773696

 --------------
 Nucleus  54C :
 --------------

Diamagnetic contribution to the shielding tensor (ppm) : 
           256.321          3.490         0.699
             7.599        238.769        -1.906
            -4.603         -4.450       258.126

Paramagnetic contribution to the shielding tensor (ppm): 
           -97.261         -6.091         7.283
           -10.354        -73.455        -3.937
            20.191          1.146      -104.523

Total shielding tensor (ppm): 
           159.060         -2.601         7.983
            -2.755        165.314        -5.843
            15.588         -3.303       153.604


 Diagonalized sT*s matrix:
 
 sDSO           258.012          247.803          247.402  iso=     251.072
 sPSO          -113.954          -85.980          -75.304  iso=     -91.746
        ---------------  ---------------  ---------------
 Total          144.058          161.823          172.098  iso=     159.326

 Orientation: 
  X          -0.5947783   -0.5238406    0.6097785
  Y           0.0979414   -0.8001044   -0.5918112
  Z           0.7979011   -0.2922739    0.5271904

 --------------
 Nucleus  55C :
 --------------

Diamagnetic contribution to the shielding tensor (ppm) : 
           257.797          3.613        -1.521
            16.176        228.983         6.145
           -17.906         -1.136       239.097

Paramagnetic contribution to the shielding tensor (ppm): 
           -66.706         -2.823        -1.590
           -13.980        -42.203        -7.647
            15.468         -0.639       -54.938

Total shielding tensor (ppm): 
           191.091          0.790        -3.112
             2.196        186.781        -1.502
            -2.437         -1.775       184.158


 Diagonalized sT*s matrix:
 
 sDSO           237.670          224.616          263.592  iso=     241.959
 sPSO           -54.801          -38.173          -70.873  iso=     -54.616
        ---------------  ---------------  ---------------
 Total          182.869          186.443          192.719  iso=     187.343

 Orientation: 
  X           0.2603206   -0.3909169   -0.8828461
  Y           0.2863812    0.9044861   -0.3160550
  Z           0.9220732   -0.1705549    0.3474076

 --------------
 Nucleus  56C :
 --------------

Diamagnetic contribution to the shielding tensor (ppm) : 
           241.981         -3.683         7.089
            -3.007        243.302         2.957
            12.065         -1.066       247.241

Paramagnetic contribution to the shielding tensor (ppm): 
           -78.463          7.727        -0.120
             4.277        -81.000       -13.015
           -10.800         -2.622       -74.349

Total shielding tensor (ppm): 
           163.517          4.044         6.969
             1.271        162.302       -10.058
             1.265         -3.688       172.893


 Diagonalized sT*s matrix:
 
 sDSO           242.544          240.257          249.723  iso=     244.175
 sPSO           -86.196          -74.681          -72.935  iso=     -77.937
        ---------------  ---------------  ---------------
 Total          156.348          165.576          176.788  iso=     166.237

 Orientation: 
  X          -0.5286058    0.8258540    0.1963190
  Y           0.7358487    0.5611051   -0.3790615
  Z           0.4232051    0.0559130    0.9043070

 --------------
 Nucleus  59C :
 --------------

Diamagnetic contribution to the shielding tensor (ppm) : 
           240.592          4.530        11.590
             9.667        217.488        10.303
            20.512         -0.261       238.209

Paramagnetic contribution to the shielding tensor (ppm): 
           -69.726          1.200         5.863
            -6.886        -39.032         1.114
            -8.738         14.644       -60.635

Total shielding tensor (ppm): 
           170.866          5.731        17.453
             2.781        178.456        11.416
            11.774         14.383       177.573


 Diagonalized sT*s matrix:
 
 sDSO           223.646          222.941          249.702  iso=     232.096
 sPSO           -65.849          -51.682          -51.862  iso=     -56.464
        ---------------  ---------------  ---------------
 Total          157.797          171.258          197.840  iso=     175.632

 Orientation: 
  X           0.6742480    0.5827890    0.4535930
  Y           0.2893812   -0.7735810    0.5637650
  Z          -0.6794470    0.2488562    0.6902336

 --------------
 Nucleus  60C :
 --------------

Diamagnetic contribution to the shielding tensor (ppm) : 
           245.548         -7.846         3.819
           -27.430        242.766       -10.458
             0.255          2.877       236.035

Paramagnetic contribution to the shielding tensor (ppm): 
           -68.952          2.514        -3.498
            26.815        -50.802        20.757
             1.857          4.817       -57.962

Total shielding tensor (ppm): 
           176.596         -5.331         0.321
            -0.615        191.964        10.299
             2.112          7.694       178.073


 Diagonalized sT*s matrix:
 
 sDSO           233.045          249.695          241.609  iso=     241.450
 sPSO           -60.784          -71.936          -44.996  iso=     -59.239
        ---------------  ---------------  ---------------
 Total          172.261          177.760          196.613  iso=     182.211

 Orientation: 
  X           0.5016028    0.8592403   -0.1005019
  Y           0.4202842   -0.1404973    0.8964495
  Z          -0.7561453    0.4919010    0.4315990



--------------------------------
CHEMICAL SHIELDING SUMMARY (ppm)
--------------------------------


  Nucleus  Element    Isotropic     Anisotropy
  -------  -------  ------------   ------------
      0       C           61.325        152.001 
      1       C          154.506         12.030 
      2       C          132.353         50.787 
      5       C           50.754        177.620 
      6       C          167.923         31.869 
      7       C          164.910         17.272 
     14       C           71.885        133.140 
     15       C           83.883        119.467 
     18       C           79.922        133.599 
     20       C           51.978        175.817 
     22       C          169.267          6.928 
     23       C          174.322         12.967 
     26       C          158.762         23.967 
     29       C          154.443         16.743 
     32       C          143.071         27.538 
     34       C          174.102         23.229 
     36       C          168.626         33.616 
     39       C          147.197         30.441 
     43       C          159.619         20.683 
     44       C          183.940         15.608 
     49       C          174.818         21.386 
     50       C           64.026        150.250 
     51       C           63.493        148.470 
     54       C          159.326         19.158 
     55       C          187.343          8.064 
     56       C          166.237         15.826 
     59       C          175.632         33.313 
     60       C          182.211         21.603 


NMR shielding tensor and spin rotation calculation done in   1.0 sec 

Maximum memory used throughout the entire PROP-calculation: 52.0 MB

--------------------------------
SUGGESTED CITATIONS FOR THIS RUN
--------------------------------

Below you find a list of papers that are relevant to this ORCA run
We neither can nor want to force you to cite these papers, but we appreciate if you do
You receive ORCA, which is the product of decades of hard work by many enthusiastic individuals, for free
The only thing we kindly ask in return is that you cite our papers,
We deeply appreciate it, if you show your appreciation for ORCA by not just citing the generic ORCA reference.

Please note that relegating all ORCA citations to the supporting information does *not* help us.
SI sections are not indexed - citations you put there will not count into any citation statistics
But we need these citations in order to attract the funding resources that allow us to do what we are doing

Therefore, if you are a happy ORCA user, please consider citing a few of the papers listed below in the main body of your paper

In addition to the list printed below, the program has created the file inpS.bibtex that contains the list in bibtex format
You can import this file easily into all common literature databanks and citation aid programs


List of essential papers. We consider these as the minimum necessary citations

  1. Neese,F.
     Software update: the ORCA program system, version 5.0
     WIRES Comput. Molec. Sci., 2022 12(1)e1606
     doi.org/10.1002/wcms.1606

List of papers to cite with high priority. The work reported in these papers was absolutely
necessary for this run to complete.
Our perspective: the developers of density functionals and basis sets usually get cited in chemistry papers
Good! But without the algorithms to do something with them, the functionals or basis sets would not do anything.
Hence, in our opinion, the algorithm design and method developments papers are equally worthy of getting cited

  1. Neese,F.
     An improvement of the resolution of the identity approximation for the formation of the Coulomb matrix
     J. Comp. Chem., 2003 24(14)1740-1747
     doi.org/10.1002/jcc.10318
  2. Neese,F.; Wennmohs,F.; Hansen,A.; Becker,U.
     Efficient, approximate and parallel Hartree-Fock and hybrid DFT calculations. A 'chain-of-spheres' algorithm for the Hartree-Fock exchange
     Chem. Phys., 2009 356(1-3)98-109
     doi.org/10.1016/j.chemphys.2008.10.036
  3. Stoychev,G.L.; Auer,A.A.; Izsak,R.; Neese,F.
     Self-Consistent Field Calculation of Nuclear Magnetic Resonance Chemical Shielding Constants Using Gauge-Including Atomic Orbitals and Approximate Two-Electron Integrals
     J. Chem. Theory Comput., 2018 14(2)619-637
     doi.org/10.1021/acs.jctc.7b01006
  4. Garcia-Rates,M.; Neese,F.
     Effect of the Solute Cavity on the Solvation Energy and its Derivatives within the Framework of the Gaussian Charge Scheme
     J. Comput. Chem., 2020 41 922-939
     doi.org/10.1002/jcc.26139
  5. Helmich-Paris,B.; de Souza,B.; Neese,F.; Izsák,R.
     An improved chain of spheres for exchange algorithm
     J. Chem. Phys., 2021 155 104109
     doi.org/doi: 10.1063/5.0058766.
  6. Neese,F.
     The SHARK Integral Generation and Digestion System
     J. Comp. Chem., 2022  1-16
     doi.org/10.1002/jcc.26942
  7. Caldeweyher,E.; Bannwarth,C.; Grimme,S.
     Extension of the D3 dispersion coefficient model
     J. Chem. Phys., 2017 147 034112-XXXX
     doi.org/10.1063/1.4993215
  8. Caldeweyher,E.; Ehlert,S.; Hansen,A.; Neugebauer,H.; Spicher,S.; Bannwarth,C.; Grimme,S.
     A generally applicable atomic-charge dependent London dispersion correction
     J. Chem. Phys., 2019 150 154122-XXXX
     doi.org/10.1063/1.5090222
  9. Caldeweyher,E.; Mewes,J.; Ehlert,S.; Grimme,S.
     Extension and evaluation of the D4 London-dispersion model for periodic systems
     Phys. Chem. Chem. Phys., 2020 22(16)8499-8512
     doi.org/10.1039/D0CP00502A

List of suggested additional citations. These are papers that are important in the 'surrounding' of 
of this run, or papers that preceded the highly important papers. If you like your results we are grateful for a citation.

  1. Izsak,R.; Neese,F.
     An overlap fitted chain of spheres exchange method
     J. Chem. Phys., 2011 135 144105
     doi.org/10.1063/1.3646921
  2. Izsak,R.; Hansen,A.; Neese,F.
     The resolution of identity and chain of spheres approximations for the LPNO-CCSD singles Fock term
     Molec. Phys., 2012 110 2413-2417
     doi.org/10.1080/00268976.2012.687466
  3. Neese,F.
     The ORCA program system
     WIRES Comput. Molec. Sci., 2012 2(1)73-78
     doi.org/10.1002/wcms.81
  4. Izsak,R.; Neese,F.; Klopper,W.
     Robust fitting techniques in the chain of spheres approximation to the Fock exchange: The role of the complementary space
     J. Chem. Phys., 2013 139 
     doi.org/10.1063/1.4819264
  5. Neese,F.
     Software update: the ORCA program system, version 4.0
     WIRES Comput. Molec. Sci., 2018 8(1)1-6
     doi.org/10.1002/wcms.1327
  6. Neese,F.; Wennmohs,F.; Becker,U.; Riplinger,C.
     The ORCA quantum chemistry program package
     J. Chem. Phys., 2020 152 Art. No. L224108
     doi.org/10.1063/5.0004608

Timings for individual modules:

Sum of individual times          ...      178.756 sec (=   2.979 min)
Startup calculation              ...        4.600 sec (=   0.077 min)   2.6 %
SCF iterations                   ...       72.456 sec (=   1.208 min)  40.5 %
Property integrals               ...       61.786 sec (=   1.030 min)  34.6 %
SCF Response                     ...       38.548 sec (=   0.642 min)  21.6 %
Property calculations            ...        1.367 sec (=   0.023 min)   0.8 %
                             ****ORCA TERMINATED NORMALLY****
TOTAL RUN TIME: 0 days 0 hours 2 minutes 59 seconds 56 msec
