
                                 *****************
                                 * O   R   C   A *
                                 *****************

                                            #,                                       
                                            ###                                      
                                            ####                                     
                                            #####                                    
                                            ######                                   
                                           ########,                                 
                                     ,,################,,,,,                         
                               ,,#################################,,                 
                          ,,##########################################,,             
                       ,#########################################, ''#####,          
                    ,#############################################,,   '####,        
                  ,##################################################,,,,####,       
                ,###########''''           ''''###############################       
              ,#####''   ,,,,##########,,,,          '''####'''          '####       
            ,##' ,,,,###########################,,,                        '##       
           ' ,,###''''                  '''############,,,                           
         ,,##''                                '''############,,,,        ,,,,,,###''
      ,#''                                            '''#######################'''  
     '                                                          ''''####''''         
             ,#######,   #######,   ,#######,      ##                                
            ,#'     '#,  ##    ##  ,#'     '#,    #''#        ,####,   ,####,        
            ##       ##  ##   ,#'  ##            #'  '#       #'       #'  '#        
            ##       ##  #######   ##           ,######,      #####,   #    #        
            '#,     ,#'  ##    ##  '#,     ,#' ,#      #,     #,   #   #,  ,#        
             '#######'   ##     ##  '#######'  #'      '#     '####' # '####'        



                #########################################################
                #                        -***-                          #
                #          Department of theory and spectroscopy        #
                #                                                       #
                #                      Frank Neese                      #
                #                                                       #
                #     Directorship, Architecture, Infrastructure        #
                #                    SHARK, DRIVERS                     #
                #        Core code/Algorithms in most modules           #
                #                                                       #
                #        Max Planck Institute fuer Kohlenforschung      #
                #                Kaiser Wilhelm Platz 1                 #
                #                 D-45470 Muelheim/Ruhr                 #
                #                      Germany                          #
                #                                                       #
                #                  All rights reserved                  #
                #                        -***-                          #
                #########################################################


                         Program Version 6.0.0  -   RELEASE  -


 With contributions from (in alphabetic order):
   Daniel Aravena         : Magnetic Suceptibility
   Michael Atanasov       : Ab Initio Ligand Field Theory (pilot matlab implementation)
   Alexander A. Auer      : GIAO ZORA, VPT2 properties, NMR spectrum
   Ute Becker             : All parallelization in ORCA, NUMFREQ, NUMCALC
   Giovanni Bistoni       : ED, misc. LED, open-shell LED, HFLD
   Martin Brehm           : Molecular dynamics
   Dmytro Bykov           : pre 5.0 version of the SCF Hessian
   Marcos Casanova-Páez   : Triplet and SCS-CIS(D). UHF-(DLPNO)-IP/EA/STEOM-CCSD. UHF-CVS-IP/STEOM-CCSD
   Vijay G. Chilkuri      : MRCI spin determinant printing, contributions to CSF-ICE
   Pauline Colinet        : FMM embedding
   Dipayan Datta          : RHF DLPNO-CCSD density
   Achintya Kumar Dutta   : EOM-CC, STEOM-CC
   Nicolas Foglia         : Exact transition moments, OPA infrastructure, MCD improvements
   Dmitry Ganyushin       : Spin-Orbit,Spin-Spin,Magnetic field MRCI
   Miquel Garcia          : C-PCM and meta-GGA Hessian, CCSD/C-PCM, Gaussian charge scheme
   Tiago L. C. Gouveia    : GS-ROHF, GS-ROCIS
   Yang Guo               : DLPNO-NEVPT2, F12-NEVPT2, CIM, IAO-localization
   Andreas Hansen         : Spin unrestricted coupled pair/coupled cluster methods
   Ingolf Harden          : AUTO-CI MPn and infrastructure 
   Benjamin Helmich-Paris : MC-RPA, TRAH-(SCF,CASSCF), AVAS, COSX integrals, SCF dyn. polar.
   Lee Huntington         : MR-EOM, pCC
   Robert Izsak           : Overlap fitted RIJCOSX, COSX-SCS-MP3, EOM
   Riya Kayal             : Wick's Theorem for AUTO-CI, AUTO-CI UHF-CCSDT
   Emily Kempfer          : AUTO-CI, RHF CISDT and CCSDT
   Christian Kollmar      : KDIIS, OOCD, Brueckner-CCSD(T), CCSD density, CASPT2, CASPT2-K, improved NEVPT2
   Axel Koslowski         : Symmetry handling
   Simone Kossmann        : Meta GGA functionals, TD-DFT gradient, OOMP2, (MP2 Hessian; deprecated post 5.0)
   Lucas Lang             : DCDCAS
   Marvin Lechner         : AUTO-CI (C++ implementation), FIC-MRCC
   Spencer Leger          : CASSCF response
   Dagmar Lenk            : GEPOL surface, SMD, ORCA-2-JSON
   Dimitrios Liakos       : Extrapolation schemes; Compound Job, initial MDCI parallelization
   Dimitrios Manganas     : Further ROCIS development; embedding schemes. LFT, Crystal Embedding
   Dimitrios Pantazis     : SARC Basis sets
   Anastasios Papadopoulos: AUTO-CI, single reference methods and gradients
   Taras Petrenko         : pre 6.0 DFT Hessian and TD-DFT gradient, (ASA, deprecated), ECA, 1-Electron XAS/XES, NRVS
   Peter Pinski           : DLPNO-MP2, DLPNO-MP2 Gradient
   Christoph Reimann      : Effective Core Potentials
   Marius Retegan         : Local ZFS, SOC
   Christoph Riplinger    : Optimizer, TS searches, QM/MM, DLPNO-CCSD(T), (RO)-DLPNO pert. Triples
   Michael Roemelt        : Original ROCIS implementation
   Masaaki Saitow         : Open-shell DLPNO-CCSD energy and density
   Barbara Sandhoefer     : DKH picture change effects
   Kantharuban Sivalingam : CASSCF convergence/infrastructure, NEVPT2 and variants, FIC-MRCI
   Bernardo de Souza      : ESD, SOC TD-DFT
   Georgi Stoychev        : AutoAux, RI-MP2 NMR, DLPNO-MP2 response, X2C
   Van Anh Tran           : RI-MP2 g-tensors
   Willem Van den Heuvel  : Paramagnetic NMR
   Zikuan Wang            : NOTCH, Electric field optimization 
   Frank Wennmohs         : Technical directorship and infrastructure
   Hang Xu                : AUTO-CI-Response properties 


 We gratefully acknowledge several colleagues who have allowed us to
 interface, adapt or use parts of their codes:
   Stefan Grimme, W. Hujo, H. Kruse, P. Pracht,  : VdW corrections, initial TS optimization,
                  C. Bannwarth, S. Ehlert,         DFT functionals, gCP, sTDA/sTD-DF
                  L. Wittmann, M. Mueller
   Ed Valeev, F. Pavosevic, A. Kumar             : LibInt (2-el integral package), F12 methods
   Garnet Chan, S. Sharma, J. Yang, R. Olivares  : DMRG
   Ulf Ekstrom                                   : XCFun DFT Library
   Mihaly Kallay                                 : mrcc  (arbitrary order and MRCC methods)
   Frank Weinhold                                : gennbo (NPA and NBO analysis)
   Simon Mueller                                 : openCOSMO-RS
   Christopher J. Cramer and Donald G. Truhlar   : smd solvation model
   Lars Goerigk                                  : TD-DFT with DH, B97 family of functionals
   V. Asgeirsson, H. Jonsson                     : NEB implementation
   FAccTs GmbH                                   : IRC, NEB, NEB-TS, DLPNO-Multilevel, CI-OPT
                                                   MM, QMMM, 2- and 3-layer-ONIOM, Crystal-QMMM,
                                                   LR-CPCM, SF, NACMEs, symmetry and pop. for TD-DFT,
                                                   nearIR, NL-DFT gradient (VV10), updates on ESD,
                                                   ML-optimized integration grids, MBIS, APM,
                                                   GOAT, DOCKER, SOLVATOR, interface openCOSMO-RS
   S Lehtola, MJT Oliveira, MAL Marques          : LibXC Library
   Liviu Ungur et al                             : ANISO software


 Your calculation uses the libint2 library for the computation of 2-el integrals
 For citations please refer to: http://libint.valeyev.net

 Your ORCA version has been built with support for libXC version: 6.2.2
 For citations please refer to: https://libxc.gitlab.io

 This ORCA versions uses:
   CBLAS   interface :  Fast vector & matrix operations
   LAPACKE interface :  Fast linear algebra routines
   SCALAPACK package :  Parallel linear algebra routines
   Shared memory     :  Shared parallel matrices
   BLAS/LAPACK       :  OpenBLAS 0.3.27  USE64BITINT DYNAMIC_ARCH NO_AFFINITY Zen SINGLE_THREADED
        Core in use  :  Zen
   Copyright (c) 2011-2014, The OpenBLAS Project


NOTE: MaxCore=8000 MB was set to SCF,MP2,MDCI,CIPSI,MRCI and CIS
      => If you want to overwrite this, your respective input block should be placed after the MaxCore statement
Your calculation utilizes the atom-pairwise dispersion correction
based on EEQ partial charges (D4)


================================================================================

----- Orbital basis set information -----
Your calculation utilizes the basis: pcJ-0
   F. Jensen, Theor. Chem. Acc. 126, 371 (2010).

----- AuxJ basis set information -----
Your calculation utilizes the auxiliary basis: def2/J
   F. Weigend, Phys. Chem. Chem. Phys. 8, 1057 (2006).

================================================================================
                                        WARNINGS
                       Please study these warnings very carefully!
================================================================================

WARNING: Old DensityContainer found on disk!
         Will remove this file - 
         If you want to keep old densities, please start your calculation with a different basename. 


================================================================================
                                       INPUT FILE
================================================================================
NAME = inpJ
|  1> ! pbe0
|  2> ! D4
|  3> ! pcJ-0
|  4> ! def2/J RIJCOSX
|  5> ! DEFGRID2
|  6> ! scfconv7
|  7> ! smallprint printgap noloewdin
|  8> ! NOSOSCF
|  9> %MaxCore 8000
| 10> %output
| 11>        print[P_BondOrder_M] 1
| 12>        print[P_Mayer] 1
| 13>        print[P_basis] 2
| 14> end
| 15> %pal
| 16>     nprocs 4
| 17> end
| 18> ! CPCM(chloroform)
| 19> *xyz 0 1
| 20> C   -5.0083890700   0.2300521400  -0.4854652800
| 21> C   -6.4606163900  -0.1486244900  -0.6578090600
| 22> C   -7.3586375900   0.7708321700   0.1796493600
| 23> H   -6.6242064100  -1.1941060500  -0.3729950200
| 24> H   -6.7533979000  -0.0342979600  -1.7120956700
| 25> C   -4.7219533500   1.6560902500  -0.7567307400
| 26> C   -5.6430323000   2.6253505000  -0.0491268000
| 27> C   -7.1190283800   2.2323486100  -0.2031757600
| 28> H   -5.4751749900   3.6435338100  -0.4160670400
| 29> H   -5.3882204000   2.6241483500   1.0216633700
| 30> H   -7.4297174300   2.3707813300  -1.2477369200
| 31> H   -7.7478687600   2.8812850400   0.4172779500
| 32> O   -7.1459595400   0.5478361300   1.5834777600
| 33> H   -8.4105916800   0.5141477800   0.0039331800
| 34> C   -4.0951437500  -0.6722825200  -0.0541535100
| 35> C   -3.7562971300   2.0622598100  -1.5883851400
| 36> H   -3.1157261200   1.3501046500  -2.1017893600
| 37> H   -3.5924823900   3.1199161100  -1.7812350300
| 38> C   -2.7080008800  -0.4036969200   0.2493115400
| 39> H   -4.4585761700  -1.6864173000   0.1073698600
| 40> C   -1.7663419100  -1.3173292600   0.5669859100
| 41> H   -2.4128809300   0.6429640100   0.2256873800
| 42> C   -1.9706932000  -2.8099843100   0.6142553200
| 43> C   -0.9682544800  -3.5423066400  -0.2986660900
| 44> H   -2.9907694500  -3.0993795500   0.3481475000
| 45> H   -1.7979220200  -3.1433692300   1.6497864900
| 46> C    0.4842238300  -3.1200553500  -0.0411048900
| 47> H   -1.2321048900  -3.3484354700  -1.3460976000
| 48> H   -1.0679238000  -4.6241393100  -0.1472248800
| 49> C    0.6620850800  -1.5978097700  -0.1285442100
| 50> H    1.1349111600  -3.6396522400  -0.7517577600
| 51> H    0.7827503100  -3.4477086600   0.9661178200
| 52> C   -0.3468345200  -0.9516333800   0.8753307900
| 53> H   -0.1083554000  -1.4217895300   1.8469137600
| 54> C    0.0918943700   0.5071370900   0.9593982800
| 55> H   -6.1923562700   0.4649678700   1.7258850000
| 56> C    1.6342348400   0.4318517800   0.8426073000
| 57> H   -0.2415886600   0.9833912300   1.8872458100
| 58> H   -0.3254479600   1.0887805600   0.1300505500
| 59> C    1.9937981100  -1.0302319500   0.4373414100
| 60> H    2.1258757000   0.7052280700   1.7814064900
| 61> H    1.9955082500   1.1345790500   0.0820510900
| 62> H    2.2165181500  -1.6014008300   1.3532401400
| 63> C    3.2660042000  -1.0929059800  -0.4428030100
| 64> C    0.4137793400  -1.0920090000  -1.5566671500
| 65> H    0.6461553200  -0.0266907100  -1.6542093000
| 66> H   -0.6312891700  -1.2255303200  -1.8527237500
| 67> H    1.0384124300  -1.6350230100  -2.2742919300
| 68> H    3.0624578200  -0.4847257900  -1.3399500800
| 69> C    3.6230888700  -2.5071151400  -0.8969721600
| 70> C    4.3956025900  -0.4085910600   0.2926708800
| 71> C    5.4997656300  -0.9888705600   0.7649398800
| 72> H    4.2549095000   0.6589618900   0.4558803100
| 73> H    5.6500762700  -2.0579835900   0.6035497100
| 74> C    6.6215446700  -0.3193085800   1.5168451500
| 75> C    6.3937267200   1.1703953100   1.7678536400
| 76> C    7.9783024000  -0.6329748600   0.8252282700
| 77> H    6.6756136400  -0.8165384100   2.5008616100
| 78> H    7.9961657800  -1.7243600200   0.6803906600
| 79> C    9.1744517600  -0.2686889500   1.7076097700
| 80> C    8.1026348100   0.0213827800  -0.5520371700
| 81> H    6.2978600600   1.7295018700   0.8308434400
| 82> H    7.2208349800   1.6034179000   2.3377954400
| 83> H    5.4757796500   1.3287195900   2.3438933300
| 84> H    9.0824716600  -0.7089818200   2.7073078400
| 85> H    9.2712761900   0.8168798000   1.8219651800
| 86> H    10.1056935300  -0.6340213600   1.2603969200
| 87> H    7.2392338800  -0.2119873500  -1.1846520000
| 88> H    9.0058843000  -0.3297709500  -1.0630500100
| 89> H    8.1753772500   1.1117308000  -0.4657485900
| 90> H    2.8823903500  -2.8931219200  -1.6001151400
| 91> H    3.6750810700  -3.1996347100  -0.0484941400
| 92> H    4.5952056000  -2.5155110600  -1.4018029300
| 93> *
| 94> %eprnmr
| 95>  Nuclei = all C { ssfc }
| 96>  SpinSpinRThresh 8.0
| 97> end
| 98> 
| 99>                          ****END OF INPUT****
================================================================================

                       ****************************
                       * Single Point Calculation *
                       ****************************

---------------------------------
CARTESIAN COORDINATES (ANGSTROEM)
---------------------------------
  C     -5.008389    0.230052   -0.485465
  C     -6.460616   -0.148624   -0.657809
  C     -7.358638    0.770832    0.179649
  H     -6.624206   -1.194106   -0.372995
  H     -6.753398   -0.034298   -1.712096
  C     -4.721953    1.656090   -0.756731
  C     -5.643032    2.625351   -0.049127
  C     -7.119028    2.232349   -0.203176
  H     -5.475175    3.643534   -0.416067
  H     -5.388220    2.624148    1.021663
  H     -7.429717    2.370781   -1.247737
  H     -7.747869    2.881285    0.417278
  O     -7.145960    0.547836    1.583478
  H     -8.410592    0.514148    0.003933
  C     -4.095144   -0.672283   -0.054154
  C     -3.756297    2.062260   -1.588385
  H     -3.115726    1.350105   -2.101789
  H     -3.592482    3.119916   -1.781235
  C     -2.708001   -0.403697    0.249312
  H     -4.458576   -1.686417    0.107370
  C     -1.766342   -1.317329    0.566986
  H     -2.412881    0.642964    0.225687
  C     -1.970693   -2.809984    0.614255
  C     -0.968254   -3.542307   -0.298666
  H     -2.990769   -3.099380    0.348147
  H     -1.797922   -3.143369    1.649786
  C      0.484224   -3.120055   -0.041105
  H     -1.232105   -3.348435   -1.346098
  H     -1.067924   -4.624139   -0.147225
  C      0.662085   -1.597810   -0.128544
  H      1.134911   -3.639652   -0.751758
  H      0.782750   -3.447709    0.966118
  C     -0.346835   -0.951633    0.875331
  H     -0.108355   -1.421790    1.846914
  C      0.091894    0.507137    0.959398
  H     -6.192356    0.464968    1.725885
  C      1.634235    0.431852    0.842607
  H     -0.241589    0.983391    1.887246
  H     -0.325448    1.088781    0.130051
  C      1.993798   -1.030232    0.437341
  H      2.125876    0.705228    1.781406
  H      1.995508    1.134579    0.082051
  H      2.216518   -1.601401    1.353240
  C      3.266004   -1.092906   -0.442803
  C      0.413779   -1.092009   -1.556667
  H      0.646155   -0.026691   -1.654209
  H     -0.631289   -1.225530   -1.852724
  H      1.038412   -1.635023   -2.274292
  H      3.062458   -0.484726   -1.339950
  C      3.623089   -2.507115   -0.896972
  C      4.395603   -0.408591    0.292671
  C      5.499766   -0.988871    0.764940
  H      4.254910    0.658962    0.455880
  H      5.650076   -2.057984    0.603550
  C      6.621545   -0.319309    1.516845
  C      6.393727    1.170395    1.767854
  C      7.978302   -0.632975    0.825228
  H      6.675614   -0.816538    2.500862
  H      7.996166   -1.724360    0.680391
  C      9.174452   -0.268689    1.707610
  C      8.102635    0.021383   -0.552037
  H      6.297860    1.729502    0.830843
  H      7.220835    1.603418    2.337795
  H      5.475780    1.328720    2.343893
  H      9.082472   -0.708982    2.707308
  H      9.271276    0.816880    1.821965
  H     10.105694   -0.634021    1.260397
  H      7.239234   -0.211987   -1.184652
  H      9.005884   -0.329771   -1.063050
  H      8.175377    1.111731   -0.465749
  H      2.882390   -2.893122   -1.600115
  H      3.675081   -3.199635   -0.048494
  H      4.595206   -2.515511   -1.401803

----------------------------
CARTESIAN COORDINATES (A.U.)
----------------------------
  NO LB      ZA    FRAG     MASS         X           Y           Z
   0 C     6.0000    0    12.011   -9.464484    0.434736   -0.917396
   1 C     6.0000    0    12.011  -12.208796   -0.280860   -1.243079
   2 C     6.0000    0    12.011  -13.905810    1.456662    0.339488
   3 H     1.0000    0     1.008  -12.517936   -2.256533   -0.704858
   4 H     1.0000    0     1.008  -12.762073   -0.064814   -3.235392
   5 C     6.0000    0    12.011   -8.923199    3.129557   -1.430014
   6 C     6.0000    0    12.011  -10.663786    4.961193   -0.092836
   7 C     6.0000    0    12.011  -13.453014    4.218528   -0.383947
   8 H     1.0000    0     1.008  -10.346581    6.885281   -0.786253
   9 H     1.0000    0     1.008  -10.182261    4.958922    1.930664
  10 H     1.0000    0     1.008  -14.040131    4.480127   -2.357881
  11 H     1.0000    0     1.008  -14.641350    5.444840    0.788541
  12 O     8.0000    0    15.999  -13.503906    1.035260    2.992339
  13 H     1.0000    0     1.008  -15.893715    0.971598    0.007433
  14 C     6.0000    0    12.011   -7.738700   -1.270430   -0.102335
  15 C     6.0000    0    12.011   -7.098373    3.897106   -3.001613
  16 H     1.0000    0     1.008   -5.887869    2.551328   -3.971806
  17 H     1.0000    0     1.008   -6.788808    5.895787   -3.366046
  18 C     6.0000    0    12.011   -5.117380   -0.762877    0.471131
  19 H     1.0000    0     1.008   -8.425488   -3.186867    0.202900
  20 C     6.0000    0    12.011   -3.337902   -2.489392    1.071448
  21 H     1.0000    0     1.008   -4.559684    1.215026    0.426487
  22 C     6.0000    0    12.011   -3.724070   -5.310101    1.160774
  23 C     6.0000    0    12.011   -1.829736   -6.693989   -0.564397
  24 H     1.0000    0     1.008   -5.651735   -5.856979    0.657903
  25 H     1.0000    0     1.008   -3.397580   -5.940107    3.117645
  26 C     6.0000    0    12.011    0.915050   -5.896050   -0.077677
  27 H     1.0000    0     1.008   -2.328341   -6.327626   -2.543756
  28 H     1.0000    0     1.008   -2.018084   -8.738357   -0.278215
  29 C     6.0000    0    12.011    1.251159   -3.019423   -0.242913
  30 H     1.0000    0     1.008    2.144671   -6.877946   -1.420616
  31 H     1.0000    0     1.008    1.479184   -6.515225    1.825698
  32 C     6.0000    0    12.011   -0.655422   -1.798326    1.654135
  33 H     1.0000    0     1.008   -0.204762   -2.686793    3.490161
  34 C     6.0000    0    12.011    0.173655    0.958350    1.813000
  35 H     1.0000    0     1.008  -11.701857    0.878662    3.261450
  36 C     6.0000    0    12.011    3.088256    0.816082    1.592297
  37 H     1.0000    0     1.008   -0.456536    1.858340    3.566378
  38 H     1.0000    0     1.008   -0.615008    2.057497    0.245760
  39 C     6.0000    0    12.011    3.767732   -1.946856    0.826455
  40 H     1.0000    0     1.008    4.017323    1.332688    3.366370
  41 H     1.0000    0     1.008    3.770964    2.144044    0.155054
  42 H     1.0000    0     1.008    4.188612   -3.026209    2.557253
  43 C     6.0000    0    12.011    6.171853   -2.065293   -0.836776
  44 C     6.0000    0    12.011    0.781930   -2.063598   -2.941675
  45 H     1.0000    0     1.008    1.221057   -0.050438   -3.126003
  46 H     1.0000    0     1.008   -1.192964   -2.315917   -3.501140
  47 H     1.0000    0     1.008    1.962315   -3.089746   -4.297789
  48 H     1.0000    0     1.008    5.787207   -0.915999   -2.532139
  49 C     6.0000    0    12.011    6.846646   -4.737761   -1.695032
  50 C     6.0000    0    12.011    8.306485   -0.772125    0.553068
  51 C     6.0000    0    12.011   10.393051   -1.868695    1.445527
  52 H     1.0000    0     1.008    8.040614    1.245258    0.861489
  53 H     1.0000    0     1.008   10.677097   -3.889025    1.140544
  54 C     6.0000    0    12.011   12.512906   -0.603406    2.866422
  55 C     6.0000    0    12.011   12.082392    2.211727    3.340759
  56 C     6.0000    0    12.011   15.076807   -1.196149    1.559455
  57 H     1.0000    0     1.008   12.615082   -1.543034    4.725944
  58 H     1.0000    0     1.008   15.110563   -3.258568    1.285752
  59 C     6.0000    0    12.011   17.337201   -0.507749    3.226915
  60 C     6.0000    0    12.011   15.311761    0.040408   -1.043199
  61 H     1.0000    0     1.008   11.901231    3.268285    1.570067
  62 H     1.0000    0     1.008   13.645401    3.030021    4.417793
  63 H     1.0000    0     1.008   10.347724    2.510916    4.429316
  64 H     1.0000    0     1.008   17.163384   -1.339781    5.116070
  65 H     1.0000    0     1.008   17.520173    1.543679    3.443015
  66 H     1.0000    0     1.008   19.096993   -1.198127    2.381805
  67 H     1.0000    0     1.008   13.680169   -0.400598   -2.238668
  68 H     1.0000    0     1.008   17.018655   -0.623177   -2.008873
  69 H     1.0000    0     1.008   15.449224    2.100867   -0.880137
  70 H     1.0000    0     1.008    5.446928   -5.467208   -3.023779
  71 H     1.0000    0     1.008    6.944897   -6.046433   -0.091641
  72 H     1.0000    0     1.008    8.683680   -4.753627   -2.649024

--------------------------------
INTERNAL COORDINATES (ANGSTROEM)
--------------------------------
 C      0   0   0     0.000000000000     0.00000000     0.00000000
 C      1   0   0     1.510649713722     0.00000000     0.00000000
 C      2   1   0     1.534007571851   110.50187447     0.00000000
 H      2   1   3     1.095861498696   110.67110412   237.86227110
 H      2   1   3     1.100141729090   109.82323110   118.75270003
 C      1   2   3     1.479599629174   114.00297474   306.31446745
 C      6   1   2     1.512797144454   114.44942089    49.53439901
 C      3   2   1     1.529705184148   110.14165844    56.75230230
 H      7   6   1     1.095225305138   110.21908121   188.85343092
 H      7   6   1     1.100691663326   108.26347690    72.19748071
 H      8   3   2     1.098544182424   108.30408557    64.32770494
 H      8   3   2     1.096139370679   109.51858603   181.33118145
 O      3   2   1     1.437252018073   110.70827122   292.73759960
 H      3   2   1     1.096982433520   109.49236494   177.20670326
 C      1   2   3     1.354346593779   121.16814187   123.20948825
 C      6   1   2     1.337577918379   123.12182548   231.43723402
 H     16   6   1     1.086775084312   121.35045299   359.07035444
 H     16   6   1     1.087503194498   120.95296369   178.45060747
 C     15   1   2     1.445127884615   126.17823284   185.23408701
 H     15   1   2     1.089331113560   116.26430462     3.09070650
 C     19  15   1     1.349949137497   126.38392391   186.17924527
 H     19  15   1     1.087728361408   115.76680045     6.89460982
 C     21  19  15     1.507319788611   125.66299027     2.54056868
 C     23  21  19     1.540975302595   111.33608109   124.06264280
 H     23  21  19     1.093214769665   112.39644212     0.53973645
 H     23  21  19     1.101508143213   107.93480741   242.58154629
 C     24  23  21     1.534381688066   112.67925014    51.42673999
 H     24  23  21     1.097413248305   108.97092801   289.25995482
 H     24  23  21     1.096918565489   109.13513974   173.32652457
 C     27  24  23     1.535093438447   111.90121081   306.22906324
 H     27  24  23     1.094715685080   108.84896539   182.67486119
 H     27  24  23     1.100441883225   109.17779791    66.25348032
 C     21  19  15     1.497935670159   122.97293662   180.31138766
 H     33  21  19     1.105392493033   106.35197529   127.67183776
 C     33  21  19     1.525634840301   121.15072474     5.12011577
 H     13   3   2     0.967732487351   107.62793078    42.72066073
 C     35  33  21     1.548587141982   103.63706285   197.20565981
 H     35  33  21     1.094956609228   112.02430052    75.25049728
 H     35  33  21     1.095582677784   110.87761967   315.62491824
 C     30  27  24     1.554294280679   116.14501778   166.04255127
 H     37  35  33     1.094435585268   111.75078815   248.69713522
 H     37  35  33     1.096717758288   110.44052629   130.12454775
 H     40  30  27     1.102138189754   106.64581996   320.54190565
 C     40  30  27     1.548254039080   118.83444378    80.84856979
 C     30  27  24     1.535260659043   111.15822445   294.09262761
 H     45  30  27     1.094721940091   111.66380597   186.33693239
 H     45  30  27     1.094369975781   111.46305986    66.34078529
 H     45  30  27     1.095452434864   110.72271831   306.25951665
 H     44  40  30     1.102808749298   106.76663009    62.13280775
 C     44  40  30     1.527667053578   113.48747902   303.05474759
 C     44  40  30     1.511688220268   108.60911507   176.62008851
 C     51  44  40     1.333768467682   126.43645293   113.74724037
 H     51  44  40     1.089082717092   114.84162537   295.11927421
 H     52  51  44     1.091623903359   119.19195327     1.57905200
 C     52  51  44     1.507336390690   126.83188798   180.97089114
 C     55  52  51     1.527784003148   113.83546690     1.85597678
 C     55  52  51     1.554835033637   109.74925424   233.31061196
 H     55  52  51     1.103833932668   106.32250998   119.96858938
 H     57  55  52     1.101098815313   105.82045209   310.32152195
 C     57  55  52     1.530383816954   112.18129499   193.49781851
 C     57  55  52     1.529870112598   112.64847033    67.76284709
 H     56  55  52     1.095344090612   111.72924090   299.21466816
 H     56  55  52     1.093823702704   111.03039059   178.51257905
 H     56  55  52     1.095223778693   110.63100629    59.10409877
 H     60  57  55     1.096227340167   111.38406780    51.60727888
 H     60  57  55     1.095861141303   111.40911663   290.85930654
 H     60  57  55     1.095754688420   110.46115142   171.67152335
 H     61  57  55     1.095501851499   111.38890168   307.93840618
 H     61  57  55     1.095583272017   110.47594268   187.66691468
 H     61  57  55     1.096173337722   111.09867637    68.44083714
 H     50  44  40     1.091808399885   111.11113161    67.99463272
 H     50  44  40     1.096449494558   111.45175329   307.62600153
 H     50  44  40     1.095415690301   110.58162464   187.42735726

---------------------------
INTERNAL COORDINATES (A.U.)
---------------------------
 C      0   0   0     0.000000000000     0.00000000     0.00000000
 C      1   0   0     2.854714243220     0.00000000     0.00000000
 C      2   1   0     2.898854198160   110.50187447     0.00000000
 H      2   1   3     2.070878113244   110.67110412   237.86227110
 H      2   1   3     2.078966576479   109.82323110   118.75270003
 C      1   2   3     2.796038086991   114.00297474   306.31446745
 C      6   1   2     2.858772299195   114.44942089    49.53439901
 C      3   2   1     2.890723863680   110.14165844    56.75230230
 H      7   6   1     2.069675881651   110.21908121   188.85343092
 H      7   6   1     2.080005801576   108.26347690    72.19748071
 H      8   3   2     2.075947650793   108.30408557    64.32770494
 H      8   3   2     2.071403215192   109.51858603   181.33118145
 O      3   2   1     2.716012699583   110.70827122   292.73759960
 H      3   2   1     2.072996373075   109.49236494   177.20670326
 C      1   2   3     2.559344152651   121.16814187   123.20948825
 C      6   1   2     2.527655948516   123.12182548   231.43723402
 H     16   6   1     2.053707278518   121.35045299   359.07035444
 H     16   6   1     2.055083207366   120.95296369   178.45060747
 C     15   1   2     2.730895930415   126.17823284   185.23408701
 H     15   1   2     2.058537473787   116.26430462     3.09070650
 C     19  15   1     2.551034164593   126.38392391   186.17924527
 H     19  15   1     2.055508711161   115.76680045     6.89460982
 C     21  19  15     2.848421596714   125.66299027     2.54056868
 C     23  21  19     2.912021301041   111.33608109   124.06264280
 H     23  21  19     2.065876520225   112.39644212     0.53973645
 H     23  21  19     2.081548724956   107.93480741   242.58154629
 C     24  23  21     2.899561175349   112.67925014    51.42673999
 H     24  23  21     2.073810495033   108.97092801   289.25995482
 H     24  23  21     2.072875679988   109.13513974   173.32652457
 C     27  24  23     2.900906188644   111.90121081   306.22906324
 H     27  24  23     2.068712839309   108.84896539   182.67486119
 H     27  24  23     2.079533785591   109.17779791    66.25348032
 C     21  19  15     2.830688182833   122.97293662   180.31138766
 H     33  21  19     2.088889082324   106.35197529   127.67183776
 C     33  21  19     2.883032028537   121.15072474     5.12011577
 H     13   3   2     1.828749371992   107.62793078    42.72066073
 C     35  33  21     2.926405592857   103.63706285   197.20565981
 H     35  33  21     2.069168119968   112.02430052    75.25049728
 H     35  33  21     2.070351218079   110.87761967   315.62491824
 C     30  27  24     2.937190522003   116.14501778   166.04255127
 H     37  35  33     2.068183527374   111.75078815   248.69713522
 H     37  35  33     2.072496209372   110.44052629   130.12454775
 H     40  30  27     2.082739340370   106.64581996   320.54190565
 C     40  30  27     2.925776119598   118.83444378    80.84856979
 C     30  27  24     2.901222189774   111.15822445   294.09262761
 H     45  30  27     2.068724659567   111.66380597   186.33693239
 H     45  30  27     2.068059543413   111.46305986    66.34078529
 H     45  30  27     2.070105094630   110.72271831   306.25951665
 H     44  40  30     2.084006514266   106.76663009    62.13280775
 C     44  40  30     2.886872355077   113.48747902   303.05474759
 C     44  40  30     2.856676736181   108.60911507   176.62008851
 C     51  44  40     2.520457129979   126.43645293   113.74724037
 H     51  44  40     2.058068072491   114.84162537   295.11927421
 H     52  51  44     2.062870218591   119.19195327     1.57905200
 C     52  51  44     2.848452970098   126.83188798   180.97089114
 C     55  52  51     2.887093357736   113.83546690     1.85597678
 C     55  52  51     2.938212397000   109.74925424   233.31061196
 H     55  52  51     2.085943830072   106.32250998   119.96858938
 H     57  55  52     2.080775207327   105.82045209   310.32152195
 C     57  55  52     2.892006293828   112.18129499   193.49781851
 C     57  55  52     2.891035533282   112.64847033    67.76284709
 H     56  55  52     2.069900353666   111.72924090   299.21466816
 H     56  55  52     2.067027236903   111.03039059   178.51257905
 H     56  55  52     2.069672997088   110.63100629    59.10409877
 H     60  57  55     2.071569453433   111.38406780    51.60727888
 H     60  57  55     2.070877437869   111.40911663   290.85930654
 H     60  57  55     2.070676271074   110.46115142   171.67152335
 H     61  57  55     2.070198478536   111.38890168   307.93840618
 H     61  57  55     2.070352341017   110.47594268   187.66691468
 H     61  57  55     2.071467403602   111.09867637    68.44083714
 H     50  44  40     2.063218866497   111.11113161    67.99463272
 H     50  44  40     2.071989264391   111.45175329   307.62600153
 H     50  44  40     2.070035657469   110.58162464   187.42735726

---------------------
BASIS SET INFORMATION
---------------------
There are 3 groups of distinct atoms

 Group   1 Type C   : 7s4p contracted to 4s3p pattern {4111/211}
 Group   2 Type H   : 5s contracted to 3s pattern {311}
 Group   3 Type O   : 7s4p contracted to 4s3p pattern {4111/211}

Atom   0C    basis set group =>   1
Atom   1C    basis set group =>   1
Atom   2C    basis set group =>   1
Atom   3H    basis set group =>   2
Atom   4H    basis set group =>   2
Atom   5C    basis set group =>   1
Atom   6C    basis set group =>   1
Atom   7C    basis set group =>   1
Atom   8H    basis set group =>   2
Atom   9H    basis set group =>   2
Atom  10H    basis set group =>   2
Atom  11H    basis set group =>   2
Atom  12O    basis set group =>   3
Atom  13H    basis set group =>   2
Atom  14C    basis set group =>   1
Atom  15C    basis set group =>   1
Atom  16H    basis set group =>   2
Atom  17H    basis set group =>   2
Atom  18C    basis set group =>   1
Atom  19H    basis set group =>   2
Atom  20C    basis set group =>   1
Atom  21H    basis set group =>   2
Atom  22C    basis set group =>   1
Atom  23C    basis set group =>   1
Atom  24H    basis set group =>   2
Atom  25H    basis set group =>   2
Atom  26C    basis set group =>   1
Atom  27H    basis set group =>   2
Atom  28H    basis set group =>   2
Atom  29C    basis set group =>   1
Atom  30H    basis set group =>   2
Atom  31H    basis set group =>   2
Atom  32C    basis set group =>   1
Atom  33H    basis set group =>   2
Atom  34C    basis set group =>   1
Atom  35H    basis set group =>   2
Atom  36C    basis set group =>   1
Atom  37H    basis set group =>   2
Atom  38H    basis set group =>   2
Atom  39C    basis set group =>   1
Atom  40H    basis set group =>   2
Atom  41H    basis set group =>   2
Atom  42H    basis set group =>   2
Atom  43C    basis set group =>   1
Atom  44C    basis set group =>   1
Atom  45H    basis set group =>   2
Atom  46H    basis set group =>   2
Atom  47H    basis set group =>   2
Atom  48H    basis set group =>   2
Atom  49C    basis set group =>   1
Atom  50C    basis set group =>   1
Atom  51C    basis set group =>   1
Atom  52H    basis set group =>   2
Atom  53H    basis set group =>   2
Atom  54C    basis set group =>   1
Atom  55C    basis set group =>   1
Atom  56C    basis set group =>   1
Atom  57H    basis set group =>   2
Atom  58H    basis set group =>   2
Atom  59C    basis set group =>   1
Atom  60C    basis set group =>   1
Atom  61H    basis set group =>   2
Atom  62H    basis set group =>   2
Atom  63H    basis set group =>   2
Atom  64H    basis set group =>   2
Atom  65H    basis set group =>   2
Atom  66H    basis set group =>   2
Atom  67H    basis set group =>   2
Atom  68H    basis set group =>   2
Atom  69H    basis set group =>   2
Atom  70H    basis set group =>   2
Atom  71H    basis set group =>   2
Atom  72H    basis set group =>   2

-------------------------
BASIS SET IN INPUT FORMAT
-------------------------

 # Basis set for element : H 
 NewGTO H 
 S 3 
   1    1357.7500000000      0.0012928364
   2      54.3100000000      0.0588280685
   3       4.3448000000      0.9761499708
 S 1 
   1       0.6604910000      1.0000000000
 S 1 
   1       0.1366870000      1.0000000000
  end;

 # Basis set for element : C 
 NewGTO C 
 S 4 
   1  139534.0000000000      0.0001655246
   2    5581.3600000000      0.0074486101
   3     446.5090000000      0.1285821065
   4      67.4620000000      0.9218029311
 S 1 
   1      15.0674000000      1.0000000000
 S 1 
   1       3.9387600000      1.0000000000
 S 1 
   1       0.2999150000      1.0000000000
 P 2 
   1      28.3900000000      0.0816325586
   2       4.3676900000      0.9660360576
 P 1 
   1       0.8698170000      1.0000000000
 P 1 
   1       0.1889340000      1.0000000000
  end;

 # Basis set for element : O 
 NewGTO O 
 S 4 
   1  253789.0000000000      0.0001641076
   2   10151.6000000000      0.0074010921
   3     812.1250000000      0.1277711901
   4     122.6930000000      0.9223372164
 S 1 
   1      27.5608000000      1.0000000000
 S 1 
   1       7.3172600000      1.0000000000
 S 1 
   1       0.5792400000      1.0000000000
 P 2 
   1      53.4157000000      0.0793786106
   2       8.2177900000      0.9670506337
 P 1 
   1       1.6754400000      1.0000000000
 P 1 
   1       0.3506720000      1.0000000000
  end;

---------------------------------
AUXILIARY/J BASIS SET INFORMATION
---------------------------------
There are 3 groups of distinct atoms

 Group   1 Type C   : 12s5p4d2f1g contracted to 6s4p3d1f1g pattern {711111/2111/211/2/1}
 Group   2 Type H   : 5s2p1d contracted to 3s1p1d pattern {311/2/1}
 Group   3 Type O   : 12s5p4d2f1g contracted to 6s4p3d1f1g pattern {711111/2111/211/2/1}

Atom   0C    basis set group =>   1
Atom   1C    basis set group =>   1
Atom   2C    basis set group =>   1
Atom   3H    basis set group =>   2
Atom   4H    basis set group =>   2
Atom   5C    basis set group =>   1
Atom   6C    basis set group =>   1
Atom   7C    basis set group =>   1
Atom   8H    basis set group =>   2
Atom   9H    basis set group =>   2
Atom  10H    basis set group =>   2
Atom  11H    basis set group =>   2
Atom  12O    basis set group =>   3
Atom  13H    basis set group =>   2
Atom  14C    basis set group =>   1
Atom  15C    basis set group =>   1
Atom  16H    basis set group =>   2
Atom  17H    basis set group =>   2
Atom  18C    basis set group =>   1
Atom  19H    basis set group =>   2
Atom  20C    basis set group =>   1
Atom  21H    basis set group =>   2
Atom  22C    basis set group =>   1
Atom  23C    basis set group =>   1
Atom  24H    basis set group =>   2
Atom  25H    basis set group =>   2
Atom  26C    basis set group =>   1
Atom  27H    basis set group =>   2
Atom  28H    basis set group =>   2
Atom  29C    basis set group =>   1
Atom  30H    basis set group =>   2
Atom  31H    basis set group =>   2
Atom  32C    basis set group =>   1
Atom  33H    basis set group =>   2
Atom  34C    basis set group =>   1
Atom  35H    basis set group =>   2
Atom  36C    basis set group =>   1
Atom  37H    basis set group =>   2
Atom  38H    basis set group =>   2
Atom  39C    basis set group =>   1
Atom  40H    basis set group =>   2
Atom  41H    basis set group =>   2
Atom  42H    basis set group =>   2
Atom  43C    basis set group =>   1
Atom  44C    basis set group =>   1
Atom  45H    basis set group =>   2
Atom  46H    basis set group =>   2
Atom  47H    basis set group =>   2
Atom  48H    basis set group =>   2
Atom  49C    basis set group =>   1
Atom  50C    basis set group =>   1
Atom  51C    basis set group =>   1
Atom  52H    basis set group =>   2
Atom  53H    basis set group =>   2
Atom  54C    basis set group =>   1
Atom  55C    basis set group =>   1
Atom  56C    basis set group =>   1
Atom  57H    basis set group =>   2
Atom  58H    basis set group =>   2
Atom  59C    basis set group =>   1
Atom  60C    basis set group =>   1
Atom  61H    basis set group =>   2
Atom  62H    basis set group =>   2
Atom  63H    basis set group =>   2
Atom  64H    basis set group =>   2
Atom  65H    basis set group =>   2
Atom  66H    basis set group =>   2
Atom  67H    basis set group =>   2
Atom  68H    basis set group =>   2
Atom  69H    basis set group =>   2
Atom  70H    basis set group =>   2
Atom  71H    basis set group =>   2
Atom  72H    basis set group =>   2

-------------------------------------
AUXILIARY/J BASIS SET IN INPUT FORMAT
-------------------------------------

 # Auxiliary/J basis set for element : H 
 NewAuxJGTO H 
 S 3 
   1      15.6752927000      0.1007184237
   2       3.6063578000      0.3404257499
   3       1.2080016000      0.6491996172
 S 1 
   1       0.4726794000      1.0000000000
 S 1 
   1       0.2018100000      1.0000000000
 P 2 
   1       2.0281365000      0.5596620919
   2       0.5358730000      0.5596620919
 D 1 
   1       2.2165124000      1.0000000000
  end;

 # Auxiliary/J basis set for element : C 
 NewAuxJGTO C 
 S 7 
   1    1861.0916331000      0.0134602335
   2     642.9939764000      0.0299160374
   3     235.1105725000      0.1008649584
   4      90.7028894000      0.2370970548
   5      36.7794552000      0.3924037254
   6      15.6046273000      0.3195862154
   7       6.8907294000      0.0530104441
 S 1 
   1       3.1478850000     -1.0000000000
 S 1 
   1       1.4777287000      1.0000000000
 S 1 
   1       0.7076466000      1.0000000000
 S 1 
   1       0.3430122000      1.0000000000
 S 1 
   1       0.1669453000      1.0000000000
 P 2 
   1      13.5472892000     -0.6769313712
   2       5.4669419000     -0.3779500978
 P 1 
   1       2.1751721000      1.0000000000
 P 1 
   1       0.8582194000      1.0000000000
 P 1 
   1       0.3376720000      1.0000000000
 D 2 
   1       5.9287253000     -0.3533329857
   2       1.9809209000     -0.7456525731
 D 1 
   1       0.8055417000     -1.0000000000
 D 1 
   1       0.3531244000     -1.0000000000
 F 2 
   1       1.6755626000      0.6311076882
   2       0.5997536000      0.4968166032
 G 1 
   1       1.0024600000     -1.0000000000
  end;

 # Auxiliary/J basis set for element : O 
 NewAuxJGTO O 
 S 7 
   1    2876.8216605000      0.0168151159
   2    1004.7443032000      0.0340137548
   3     369.7579954000      0.1194951309
   4     142.9442404000      0.2664627624
   5      57.8366425000      0.4202764046
   6      24.3864983000      0.2765077335
   7      10.6622662000      0.0057008815
 S 1 
   1       4.8070437000     -1.0000000000
 S 1 
   1       2.2210770000      1.0000000000
 S 1 
   1       1.0447795000      1.0000000000
 S 1 
   1       0.4968425000      1.0000000000
 S 1 
   1       0.2371384000      1.0000000000
 P 2 
   1      64.2613382000     -0.2731534179
   2      16.3006076000     -0.8168011598
 P 1 
   1       4.3550542000      1.0000000000
 P 1 
   1       1.2019554000      1.0000000000
 P 1 
   1       0.3354196000      1.0000000000
 D 2 
   1       9.2146611000     -0.4661230638
   2       2.8435251000     -0.6600908911
 D 1 
   1       0.9955759000     -1.0000000000
 D 1 
   1       0.3649441000     -1.0000000000
 F 2 
   1       2.6420115000      0.5931563945
   2       0.7345613000      0.5931563945
 G 1 
   1       1.3931000000     -1.0000000000
  end;


Checking for AutoStart:
The File: inpJ.gbw exists
Trying to determine its content:
     ... Fine, the file contains calculation information
     ... Fine, the calculation information was read
     ... Fine, the file contains a basis set
     ... Fine, the basis set was read
     ... Fine, the file contains a geometry
     ... Fine, the geometry was read
     ... Fine, the file contains a set of orbitals
     ... Fine, the orbitals can be read
     => possible old guess file was deleted
     => GBW file was renamed to GES file
     => GES file is set as startup file
     => Guess is set to MORead
     ... now leaving AutoStart



           ************************************************************
           *        Program running with 4 parallel MPI-processes     *
           *              working on a common directory               *
           ************************************************************
------------------------------------------------------------------------------
                             ORCA STARTUP CALCULATIONS
                           -- RI-GTO INTEGRALS CHOSEN --
------------------------------------------------------------------------------
------------------------------------------------------------------------------
                   ___                                                        
                  /   \      - P O W E R E D   B Y -                         
                 /     \                                                     
                 |  |  |   _    _      __       _____    __    __             
                 |  |  |  | |  | |    /  \     |  _  \  |  |  /  |          
                  \  \/   | |  | |   /    \    | | | |  |  | /  /          
                 / \  \   | |__| |  /  /\  \   | |_| |  |  |/  /          
                |  |  |   |  __  | /  /__\  \  |    /   |      \           
                |  |  |   | |  | | |   __   |  |    \   |  |\   \          
                \     /   | |  | | |  |  |  |  | |\  \  |  | \   \       
                 \___/    |_|  |_| |__|  |__|  |_| \__\ |__|  \__/        
                                                                              
                      - O R C A' S   B I G   F R I E N D -                    
                                      &                                       
                       - I N T E G R A L  F E E D E R -                       
                                                                              
 v1 FN, 2020, v2 2021, v3 2022-2024                                           
------------------------------------------------------------------------------


----------------------
SHARK INTEGRAL PACKAGE
----------------------

Number of atoms                             ...     73
Number of basis functions                   ...    509
Number of shells                            ...    335
Maximum angular momentum                    ...      1
Integral batch strategy                     ... SHARK/LIBINT Hybrid
RI-J (if used) integral strategy            ... SPLIT-RIJ (Revised 2003 algorithm where possible)
Printlevel                                  ...      1
Contraction scheme used                     ... SEGMENTED contraction
Prescreening option                         ... SCHWARTZ
   Thresh                                   ... 3.000e-11
   Tcut                                     ... 1.000e-12
   Tpresel                                  ... 1.000e-12 
Coulomb Range Separation                    ... NOT USED
Exchange Range Separation                   ... NOT USED
Multipole approximations                    ... NOT USED
Finite Nucleus Model                        ... NOT USED
CABS basis                                  ... NOT available
Auxiliary Coulomb fitting basis             ... AVAILABLE
   # of basis functions in Aux-J            ...   1905
   # of shells in Aux-J                     ...    655
   Maximum angular momentum in Aux-J        ...      4
Auxiliary J/K fitting basis                 ... NOT available
Auxiliary Correlation fitting basis         ... NOT available
Auxiliary 'external' fitting basis          ... NOT available

Checking pre-screening integrals            ... done (  0.0 sec) Dimension = 335
Check shell pair data                       ... done (  0.0 sec)
Shell pair information
Shell pair cut-off parameter TPreSel        ...   1.0e-12
Total number of shell pairs                 ...     56280
Shell pairs after pre-screening             ...     21621
Total number of primitive shell pairs       ...    145865
Primitive shell pairs kept                  ...     37155
          la=0 lb=0:  10861 shell pairs
          la=1 lb=0:   8905 shell pairs
          la=1 lb=1:   1855 shell pairs

Calculating one electron integrals          ... done (  0.0 sec)
Calculating RI/J V-Matrix + Cholesky decomp.... done (  0.2 sec)
Calculating Nuclear repulsion               ... done (  0.0 sec) ENN=   2768.200775201832 Eh

Diagonalization of the overlap matrix:
Smallest eigenvalue                        ... 7.579e-03
Time for diagonalization                   ...    0.025 sec
Threshold for overlap eigenvalues          ... 1.000e-07
Number of eigenvalues below threshold      ... 0
Time for construction of square roots      ...    0.012 sec
Total time needed                          ...    0.040 sec

-------------------
DFT GRID GENERATION
-------------------

General Integration Accuracy     IntAcc      ... 4.388
Radial Grid Type                 RadialGrid  ... OptM3 with GC (2021)
Angular Grid (max. ang.)         AngularGrid ... 4 (Lebedev-302)
Angular grid pruning method      GridPruning ... 4 (adaptive)
Weight generation scheme         WeightScheme... mBecke (2022)
Basis function cutoff            BFCut       ... 1.0000e-11
Integration weight cutoff        WCut        ... 1.0000e-14
Partially contracted basis set               ... off
Rotationally invariant grid construction     ... off
Angular grids for H and He will be reduced by one unit

Total number of grid points                  ...   309853
Total number of batches                      ...     4878
Average number of points per batch           ...       63
Average number of grid points per atom       ...     4245

--------------------
COSX GRID GENERATION
--------------------

GRIDX 1
-------
General Integration Accuracy     IntAcc      ... 3.816
Radial Grid Type                 RadialGrid  ... OptM3 with GC (2021)
Angular Grid (max. ang.)         AngularGrid ... 1 (Lebedev-50)
Angular grid pruning method      GridPruning ... 4 (adaptive)
Weight generation scheme         WeightScheme... mBecke (2022)
Basis function cutoff            BFCut       ... 1.0000e-11
Integration weight cutoff        WCut        ... 1.0000e-14
Partially contracted basis set               ... on
Rotationally invariant grid construction     ... off
Angular grids for H and He will be reduced by one unit

Total number of grid points                  ...    39429
Total number of batches                      ...      352
Average number of points per batch           ...      112
Average number of grid points per atom       ...      540
UseSFitting                                  ... on

GRIDX 2
-------
General Integration Accuracy     IntAcc      ... 4.020
Radial Grid Type                 RadialGrid  ... OptM3 with GC (2021)
Angular Grid (max. ang.)         AngularGrid ... 2 (Lebedev-110)
Angular grid pruning method      GridPruning ... 4 (adaptive)
Weight generation scheme         WeightScheme... mBecke (2022)
Basis function cutoff            BFCut       ... 1.0000e-11
Integration weight cutoff        WCut        ... 1.0000e-14
Partially contracted basis set               ... on
Rotationally invariant grid construction     ... off
Angular grids for H and He will be reduced by one unit

Total number of grid points                  ...    81428
Total number of batches                      ...      677
Average number of points per batch           ...      120
Average number of grid points per atom       ...     1115
UseSFitting                                  ... on

GRIDX 3
-------
General Integration Accuracy     IntAcc      ... 4.338
Radial Grid Type                 RadialGrid  ... OptM3 with GC (2021)
Angular Grid (max. ang.)         AngularGrid ... 3 (Lebedev-194)
Angular grid pruning method      GridPruning ... 4 (adaptive)
Weight generation scheme         WeightScheme... mBecke (2022)
Basis function cutoff            BFCut       ... 1.0000e-11
Integration weight cutoff        WCut        ... 1.0000e-14
Partially contracted basis set               ... on
Rotationally invariant grid construction     ... off
Angular grids for H and He will be reduced by one unit

Total number of grid points                  ...   176255
Total number of batches                      ...     1419
Average number of points per batch           ...      124
Average number of grid points per atom       ...     2414
UseSFitting                                  ... on
Initializing property integral containers    ... done (  0.0 sec)

SHARK setup successfully completed in   3.6 seconds

Maximum memory used throughout the entire STARTUP-calculation: 85.4 MB


           ************************************************************
           *        Program running with 4 parallel MPI-processes     *
           *              working on a common directory               *
           ************************************************************
-------------------------------------------------------------------------------
                                 ORCA GUESS
                   Start orbitals & Density for SCF / CASSCF
-------------------------------------------------------------------------------

------------
SCF SETTINGS
------------
Hamiltonian:
 Density Functional     Method          .... DFT(GTOs)
 Exchange Functional    Exchange        .... PBE
   PBE kappa parameter   XKappa         ....  0.804000
   PBE mue parameter    XMuePBE         ....  0.219520
 Correlation Functional Correlation     .... PBE
   PBE beta parameter  CBetaPBE         ....  0.066725
 LDA part of GGA corr.  LDAOpt          .... PW91-LDA
 Gradients option       PostSCFGGA      .... off
 Hybrid DFT is turned on
   Fraction HF Exchange ScalHFX         ....  0.250000
   Scaling of DF-GGA-X  ScalDFX         ....  0.750000
   Scaling of DF-GGA-C  ScalDFC         ....  1.000000
   Scaling of DF-LDA-C  ScalLDAC        ....  1.000000
   Perturbative correction              ....  0.000000
   NL short-range parameter             ....  6.900000
 RI-approximation to the Coulomb term is turned on
   Number of AuxJ basis functions       .... 1905
   RIJ-COSX (HFX calculated with COS-X)).... on


General Settings:
 Integral files         IntName         .... inpJ
 Hartree-Fock type      HFTyp           .... RHF
 Total Charge           Charge          ....    0
 Multiplicity           Mult            ....    1
 Number of Electrons    NEL             ....  220
 Basis Dimension        Dim             ....  509
 Nuclear Repulsion      ENuc            ....   2768.2007752018 Eh

Convergence Acceleration:
 AO-DIIS                CNVDIIS         .... on
   Start iteration      DIISMaxIt       ....    12
   Startup error        DIISStart       ....  0.200000
   # of expansion vecs  DIISMaxEq       ....     5
   Bias factor          DIISBfac        ....   1.050
   Max. coefficient     DIISMaxC        ....  10.000
 MO-DIIS                CNVKDIIS        .... off
 Trust-Rad. Augm. Hess. CNVTRAH         .... auto
   Auto Start mean grad. ratio tolernc. ....  1.125000
   Auto Start start iteration           ....     1
   Auto Start num. interpolation iter.  ....    10
   Max. Number of Micro iterations      ....    24
   Max. Number of Macro iterations      .... Maxiter - #DIIS iter
   Number of Davidson start vectors     ....     2
   Converg. threshold    (grad. norm)   ....   1.000e-04
   Grad. Scal. Fac. for Micro threshold ....   0.100
   Minimum threshold for Micro iter.    ....   1.000e-02
   NR start threshold (gradient norm)   ....   1.000e-04
   Initial trust radius                 ....   0.400
   Minimum AH scaling param. (alpha)    ....   1.000
   Maximum AH scaling param. (alpha)    .... 1000.000
   Quad. conv. algorithm                .... NR
   White noise on init. David. guess    .... on
   Maximum white noise                  ....   0.010
   Pseudo random numbers                .... off
   Inactive MOs                         .... canonical
   Orbital update algorithm             .... Taylor
   Preconditioner                       .... Diag
   Full preconditioner red. dimension   ....   250
 SOSCF                  CNVSOSCF        .... off
 Level Shifting         CNVShift        .... on
   Level shift para.    LevelShift      ....    0.2500
   Turn off err/grad.   ShiftErr        ....    0.0010
 Zerner damping         CNVZerner       .... off
 Static damping         CNVDamp         .... on
   Fraction old density DampFac         ....    0.7000
   Max. Damping (<1)    DampMax         ....    0.9800
   Min. Damping (>=0)   DampMin         ....    0.0000
   Turn off err/grad.   DampErr         ....    0.1000

SCF Procedure:
 Maximum # iterations   MaxIter         ....   125
 SCF integral mode      SCFMode         .... Direct
   Integral package                     .... SHARK and LIBINT hybrid scheme
 Reset frequency        DirectResetFreq ....    20
 Integral Threshold     Thresh          ....  3.000e-11 Eh
 Primitive CutOff       TCut            ....  1.000e-12 Eh

Convergence Tolerance:
 Convergence Check Mode ConvCheckMode   .... Total+1el-Energy
 Convergence forced     ConvForced      .... 0
 Energy Change          TolE            ....  1.000e-07 Eh
 1-El. energy change                    ....  1.000e-04 Eh
 DIIS Error             TolErr          ....  1.000e-07

---------------------
INITIAL GUESS: MOREAD
---------------------
Guess MOs are being read from file: inpJ.ges
Input Geometry matches current geometry (good)
Input basis set matches current basis set (good)
Occupation numbers will be reassigned to an Aufbau configuration
MOs were renormalized
MOs were reorthogonalized (Cholesky)
                      ------------------
                      INITIAL GUESS DONE (   0.1 sec)
                      ------------------
             **** ENERGY FILE WAS UPDATED (inpJ.en.tmp) ****
Finished Guess after   0.2 sec
Maximum memory used throughout the entire GUESS-calculation: 36.5 MB


           ************************************************************
           *        Program running with 4 parallel MPI-processes     *
           *              working on a common directory               *
           ************************************************************

-------------------------------------------------------------------------------------------
                                      ORCA LEAN-SCF
                              memory conserving SCF solver
-------------------------------------------------------------------------------------------

--------------------
CPCM SOLVATION MODEL
--------------------
CPCM parameters:
  Epsilon                                         ...       4.8030
  Refrac                                          ...       1.4459
  Rsolv                                           ...       1.3000
  Surface type                                    ... GAUSSIAN VDW
  Discretization scheme                           ... Constant charge density
    Threshold for H atoms                         ...       5.0000 (charges/Ang^2)
    Threshold for non-H atoms                     ...       5.0000 (charges/Ang^2)
  Epsilon function type                           ...         CPCM
Solvent:                                          ... CHLOROFORM
Radii:
  Scheme                                          ... Element-dependent radii
  Radius for C  used is    3.8550 Bohr (=   2.0400 Ang.)
  Radius for H  used is    2.4944 Bohr (=   1.3200 Ang.)
  Radius for O  used is    3.4469 Bohr (=   1.8240 Ang.)
Calculating surface                               ...        done! (  0.0s)
Cavity surface points                             ...         5351
Cavity Volume                                     ...    3608.8253
Cavity Surface-area                               ...    1783.9536
Calculating surface distance matrix               ...        done! (  0.2s)
Performing Cholesky decomposition & store         ...        done! (  1.0s)
Overall time for CPCM initialization              ...                 1.2s

----------------------------------------D-I-I-S--------------------------------------------
Iteration    Energy (Eh)           Delta-E    RMSDP     MaxDP     DIISErr   Damp  Time(sec)
-------------------------------------------------------------------------------------------
               ***  Starting incremental Fock matrix formation  ***
    1    -1165.5118602896059201     0.00e+00  4.17e-08  5.83e-06  6.83e-06  0.700   6.2

  HOMO= 109 E= -6.015 eV LUMO=  5.931 eV gap=  11.946 eV
    2    -1165.5118603121572960    -2.26e-08  2.81e-08  3.49e-06  3.42e-06  0.700   2.0
                 **** Energy Check signals convergence ****

  HOMO= 109 E= -6.015 eV LUMO=  5.931 eV gap=  11.946 eV

               *****************************************************
               *                     SUCCESS                       *
               *           SCF CONVERGED AFTER   2 CYCLES          *
               *****************************************************

Recomputing exchange energy using gridx3       ... done (    8.139 sec)
Old exchange energy                            :    -42.068243939 Eh
New exchange energy                            :    -42.068197920 Eh
Exchange energy change after final integration :      0.000046020 Eh
Total energy after final integration           :  -1165.511814293 Eh
             **** ENERGY FILE WAS UPDATED (inpJ.en.tmp) ****

----------------
TOTAL SCF ENERGY
----------------

Total Energy       :      -1165.51181429264557 Eh          -31715.18884 eV

Components:
Nuclear Repulsion  :       2768.20077520183213 Eh           75326.57262 eV
Electronic Energy  :      -3933.69915471802369 Eh         -107041.39588 eV
One Electron Energy:      -7078.11960776301112 Eh         -192605.42640 eV
Two Electron Energy:       3144.42045304498743 Eh           85564.03052 eV
CPCM Dielectric    :         -0.01348079596551 Eh              -0.36683 eV

Virial components:
Potential Energy   :      -2322.40746941403449 Eh          -63195.92006 eV
Kinetic Energy     :       1156.89565512138915 Eh           31480.73123 eV
Virial Ratio       :          2.00744765453402

DFT components:
N(Alpha)           :      110.000145781396 electrons
N(Beta)            :      110.000145781396 electrons
N(Total)           :      220.000291562791 electrons
E(X)               :     -125.746913848222 Eh       
E(C)               :       -7.329184857185 Eh       
E(XC)              :     -133.076098705407 Eh       

CPCM Solvation Model Properties:
Surface-charge          :         -0.03352554212062
Corrected charge        :          0.00000000000000
Outlying charge corr.   :          0.00003919706722 Eh               0.00107 eV
Free-energy (cav+disp)  :  This term is not implemented in the current solvation scheme

---------------
SCF CONVERGENCE
---------------

  Last Energy change         ...    2.2551e-08  Tolerance :   1.0000e-07
  Last MAX-Density change    ...    3.4921e-06  Tolerance :   1.0000e-05
  Last RMS-Density change    ...    2.8091e-08  Tolerance :   1.0000e-06
  Last DIIS Error            ...    3.4201e-06  Tolerance :   1.0000e-07


----------------
ORBITAL ENERGIES
----------------

  NO   OCC          E(Eh)            E(eV) 
   0   2.0000     -19.212650      -522.8028 
   1   2.0000     -10.300580      -280.2930 
   2   2.0000     -10.270686      -279.4796 
   3   2.0000     -10.268500      -279.4201 
   4   2.0000     -10.264035      -279.2986 
   5   2.0000     -10.257733      -279.1271 
   6   2.0000     -10.257695      -279.1261 
   7   2.0000     -10.252355      -278.9808 
   8   2.0000     -10.251020      -278.9444 
   9   2.0000     -10.249095      -278.8920 
  10   2.0000     -10.248349      -278.8717 
  11   2.0000     -10.247723      -278.8547 
  12   2.0000     -10.247138      -278.8388 
  13   2.0000     -10.246875      -278.8316 
  14   2.0000     -10.245003      -278.7807 
  15   2.0000     -10.243024      -278.7268 
  16   2.0000     -10.242918      -278.7240 
  17   2.0000     -10.241924      -278.6969 
  18   2.0000     -10.241917      -278.6967 
  19   2.0000     -10.241696      -278.6907 
  20   2.0000     -10.240335      -278.6537 
  21   2.0000     -10.235965      -278.5348 
  22   2.0000     -10.235599      -278.5248 
  23   2.0000     -10.234386      -278.4918 
  24   2.0000     -10.224975      -278.2357 
  25   2.0000     -10.224474      -278.2221 
  26   2.0000     -10.224405      -278.2202 
  27   2.0000     -10.222041      -278.1559 
  28   2.0000     -10.221492      -278.1410 
  29   2.0000      -1.043424       -28.3930 
  30   2.0000      -0.902188       -24.5498 
  31   2.0000      -0.882377       -24.0107 
  32   2.0000      -0.860135       -23.4055 
  33   2.0000      -0.846685       -23.0395 
  34   2.0000      -0.822842       -22.3907 
  35   2.0000      -0.815036       -22.1783 
  36   2.0000      -0.796199       -21.6657 
  37   2.0000      -0.795329       -21.6420 
  38   2.0000      -0.776443       -21.1281 
  39   2.0000      -0.759027       -20.6542 
  40   2.0000      -0.741395       -20.1744 
  41   2.0000      -0.729238       -19.8436 
  42   2.0000      -0.715660       -19.4741 
  43   2.0000      -0.703141       -19.1334 
  44   2.0000      -0.702178       -19.1072 
  45   2.0000      -0.696593       -18.9552 
  46   2.0000      -0.674254       -18.3474 
  47   2.0000      -0.670723       -18.2513 
  48   2.0000      -0.637057       -17.3352 
  49   2.0000      -0.622681       -16.9440 
  50   2.0000      -0.613504       -16.6943 
  51   2.0000      -0.606586       -16.5060 
  52   2.0000      -0.597838       -16.2680 
  53   2.0000      -0.572839       -15.5877 
  54   2.0000      -0.556492       -15.1429 
  55   2.0000      -0.541688       -14.7401 
  56   2.0000      -0.534458       -14.5433 
  57   2.0000      -0.529710       -14.4141 
  58   2.0000      -0.515484       -14.0270 
  59   2.0000      -0.510478       -13.8908 
  60   2.0000      -0.504270       -13.7219 
  61   2.0000      -0.493791       -13.4367 
  62   2.0000      -0.487277       -13.2595 
  63   2.0000      -0.481383       -13.0991 
  64   2.0000      -0.476293       -12.9606 
  65   2.0000      -0.466674       -12.6988 
  66   2.0000      -0.465423       -12.6648 
  67   2.0000      -0.462824       -12.5941 
  68   2.0000      -0.459623       -12.5070 
  69   2.0000      -0.455063       -12.3829 
  70   2.0000      -0.451005       -12.2725 
  71   2.0000      -0.441569       -12.0157 
  72   2.0000      -0.438617       -11.9354 
  73   2.0000      -0.435224       -11.8430 
  74   2.0000      -0.431074       -11.7301 
  75   2.0000      -0.423558       -11.5256 
  76   2.0000      -0.418243       -11.3810 
  77   2.0000      -0.413391       -11.2489 
  78   2.0000      -0.412805       -11.2330 
  79   2.0000      -0.406389       -11.0584 
  80   2.0000      -0.401265       -10.9190 
  81   2.0000      -0.397581       -10.8187 
  82   2.0000      -0.397133       -10.8065 
  83   2.0000      -0.387338       -10.5400 
  84   2.0000      -0.382568       -10.4102 
  85   2.0000      -0.377163       -10.2631 
  86   2.0000      -0.375306       -10.2126 
  87   2.0000      -0.373422       -10.1613 
  88   2.0000      -0.365538        -9.9468 
  89   2.0000      -0.364527        -9.9193 
  90   2.0000      -0.360519        -9.8102 
  91   2.0000      -0.357321        -9.7232 
  92   2.0000      -0.350798        -9.5457 
  93   2.0000      -0.346446        -9.4273 
  94   2.0000      -0.343825        -9.3560 
  95   2.0000      -0.339735        -9.2447 
  96   2.0000      -0.338877        -9.2213 
  97   2.0000      -0.334738        -9.1087 
  98   2.0000      -0.333043        -9.0626 
  99   2.0000      -0.328922        -8.9504 
 100   2.0000      -0.327081        -8.9003 
 101   2.0000      -0.323697        -8.8082 
 102   2.0000      -0.321284        -8.7426 
 103   2.0000      -0.319423        -8.6919 
 104   2.0000      -0.311441        -8.4747 
 105   2.0000      -0.302558        -8.2330 
 106   2.0000      -0.276909        -7.5351 
 107   2.0000      -0.275426        -7.4947 
 108   2.0000      -0.255312        -6.9474 
 109   2.0000      -0.221050        -6.0151 
 110   0.0000      -0.032047        -0.8720 
 111   0.0000       0.019205         0.5226 
 112   0.0000       0.030881         0.8403 
 113   0.0000       0.081842         2.2270 
 114   0.0000       0.091732         2.4962 
 115   0.0000       0.098725         2.6865 
 116   0.0000       0.103850         2.8259 
 117   0.0000       0.107029         2.9124 
 118   0.0000       0.109388         2.9766 
 119   0.0000       0.111985         3.0473 
 120   0.0000       0.117130         3.1873 
*Only the first 10 virtual orbitals were printed.

                    ********************************
                    * MULLIKEN POPULATION ANALYSIS *
                    ********************************

-----------------------
MULLIKEN ATOMIC CHARGES
-----------------------
   0 C :    0.078780
   1 C :   -0.500392
   2 C :   -0.074428
   3 H :    0.222957
   4 H :    0.219739
   5 C :    0.138908
   6 C :   -0.480359
   7 C :   -0.439894
   8 H :    0.225504
   9 H :    0.207256
  10 H :    0.208923
  11 H :    0.227936
  12 O :   -0.488008
  13 H :    0.247504
  14 C :   -0.280325
  15 C :   -0.514105
  16 H :    0.201023
  17 H :    0.197003
  18 C :   -0.261050
  19 H :    0.220276
  20 C :    0.154133
  21 H :    0.219163
  22 C :   -0.478851
  23 C :   -0.427652
  24 H :    0.211952
  25 H :    0.207160
  26 C :   -0.397136
  27 H :    0.208700
  28 H :    0.217478
  29 C :    0.000644
  30 H :    0.222852
  31 H :    0.194744
  32 C :   -0.229788
  33 H :    0.228658
  34 C :   -0.430078
  35 H :    0.341046
  36 C :   -0.427542
  37 H :    0.208763
  38 H :    0.198782
  39 C :   -0.185183
  40 H :    0.211183
  41 H :    0.205740
  42 H :    0.212775
  43 C :   -0.238508
  44 C :   -0.628005
  45 H :    0.205654
  46 H :    0.209964
  47 H :    0.201717
  48 H :    0.218684
  49 C :   -0.639648
  50 C :   -0.186495
  51 C :   -0.179277
  52 H :    0.225677
  53 H :    0.214515
  54 C :   -0.221330
  55 C :   -0.643579
  56 C :   -0.202451
  57 H :    0.225051
  58 H :    0.220420
  59 C :   -0.610498
  60 C :   -0.613570
  61 H :    0.196478
  62 H :    0.212633
  63 H :    0.201106
  64 H :    0.200072
  65 H :    0.197730
  66 H :    0.204232
  67 H :    0.202070
  68 H :    0.199891
  69 H :    0.195499
  70 H :    0.214696
  71 H :    0.191925
  72 H :    0.200555
Sum of atomic charges:   -0.0000000

--------------------------------
MULLIKEN REDUCED ORBITAL CHARGES
--------------------------------
  0 C s       :     3.354221  s :     3.354221
      pz      :     1.002140  p :     2.566999
      px      :     0.809431
      py      :     0.755428

  1 C s       :     3.378026  s :     3.378026
      pz      :     1.132537  p :     3.122365
      px      :     0.872172
      py      :     1.117656

  2 C s       :     3.312717  s :     3.312717
      pz      :     0.707550  p :     2.761711
      px      :     1.145536
      py      :     0.908626

  3 H s       :     0.777043  s :     0.777043

  4 H s       :     0.780261  s :     0.780261

  5 C s       :     3.341529  s :     3.341529
      pz      :     0.891217  p :     2.519564
      px      :     0.860819
      py      :     0.767528

  6 C s       :     3.367297  s :     3.367297
      pz      :     1.132384  p :     3.113061
      px      :     0.889573
      py      :     1.091104

  7 C s       :     3.338579  s :     3.338579
      pz      :     1.182484  p :     3.101315
      px      :     0.962747
      py      :     0.956084

  8 H s       :     0.774496  s :     0.774496

  9 H s       :     0.792744  s :     0.792744

 10 H s       :     0.791077  s :     0.791077

 11 H s       :     0.772064  s :     0.772064

 12 O s       :     3.685003  s :     3.685003
      pz      :     1.437236  p :     4.803005
      px      :     1.464524
      py      :     1.901245

 13 H s       :     0.752496  s :     0.752496

 14 C s       :     3.394111  s :     3.394111
      pz      :     0.979970  p :     2.886214
      px      :     0.832947
      py      :     1.073297

 15 C s       :     3.385456  s :     3.385456
      pz      :     0.993150  p :     3.128649
      px      :     0.987239
      py      :     1.148260

 16 H s       :     0.798977  s :     0.798977

 17 H s       :     0.802997  s :     0.802997

 18 C s       :     3.397563  s :     3.397563
      pz      :     1.015348  p :     2.863486
      px      :     0.773259
      py      :     1.074879

 19 H s       :     0.779724  s :     0.779724

 20 C s       :     3.350387  s :     3.350387
      pz      :     0.943883  p :     2.495480
      px      :     0.760504
      py      :     0.791092

 21 H s       :     0.780837  s :     0.780837

 22 C s       :     3.372437  s :     3.372437
      pz      :     1.108003  p :     3.106414
      px      :     1.112497
      py      :     0.885914

 23 C s       :     3.327533  s :     3.327533
      pz      :     1.090826  p :     3.100119
      px      :     0.889791
      py      :     1.119503

 24 H s       :     0.788048  s :     0.788048

 25 H s       :     0.792840  s :     0.792840

 26 C s       :     3.350189  s :     3.350189
      pz      :     1.175103  p :     3.046948
      px      :     0.960150
      py      :     0.911695

 27 H s       :     0.791300  s :     0.791300

 28 H s       :     0.782522  s :     0.782522

 29 C s       :     3.318196  s :     3.318196
      pz      :     0.868676  p :     2.681160
      px      :     0.905667
      py      :     0.906817

 30 H s       :     0.777148  s :     0.777148

 31 H s       :     0.805256  s :     0.805256

 32 C s       :     3.362652  s :     3.362652
      pz      :     1.073628  p :     2.867136
      px      :     0.860221
      py      :     0.933286

 33 H s       :     0.771342  s :     0.771342

 34 C s       :     3.344727  s :     3.344727
      pz      :     1.190843  p :     3.085351
      px      :     0.926638
      py      :     0.967870

 35 H s       :     0.658954  s :     0.658954

 36 C s       :     3.335926  s :     3.335926
      pz      :     1.166210  p :     3.091616
      px      :     0.947882
      py      :     0.977524

 37 H s       :     0.791237  s :     0.791237

 38 H s       :     0.801218  s :     0.801218

 39 C s       :     3.338727  s :     3.338727
      pz      :     1.054887  p :     2.846456
      px      :     0.856760
      py      :     0.934809

 40 H s       :     0.788817  s :     0.788817

 41 H s       :     0.794260  s :     0.794260

 42 H s       :     0.787225  s :     0.787225

 43 C s       :     3.348361  s :     3.348361
      pz      :     1.043177  p :     2.890147
      px      :     0.873539
      py      :     0.973431

 44 C s       :     3.365555  s :     3.365555
      pz      :     0.960680  p :     3.262450
      px      :     1.163638
      py      :     1.138132

 45 H s       :     0.794346  s :     0.794346

 46 H s       :     0.790036  s :     0.790036

 47 H s       :     0.798283  s :     0.798283

 48 H s       :     0.781316  s :     0.781316

 49 C s       :     3.352273  s :     3.352273
      pz      :     1.145616  p :     3.287375
      px      :     1.163154
      py      :     0.978606

 50 C s       :     3.350638  s :     3.350638
      pz      :     0.949330  p :     2.835857
      px      :     0.812496
      py      :     1.074031

 51 C s       :     3.350037  s :     3.350037
      pz      :     0.941002  p :     2.829240
      px      :     0.817730
      py      :     1.070508

 52 H s       :     0.774323  s :     0.774323

 53 H s       :     0.785485  s :     0.785485

 54 C s       :     3.341138  s :     3.341138
      pz      :     1.073083  p :     2.880192
      px      :     0.872831
      py      :     0.934278

 55 C s       :     3.351902  s :     3.351902
      pz      :     1.160445  p :     3.291677
      px      :     1.171028
      py      :     0.960204

 56 C s       :     3.311899  s :     3.311899
      pz      :     0.881474  p :     2.890552
      px      :     0.880391
      py      :     1.128688

 57 H s       :     0.774949  s :     0.774949

 58 H s       :     0.779580  s :     0.779580

 59 C s       :     3.341819  s :     3.341819
      pz      :     1.089695  p :     3.268679
      px      :     1.032330
      py      :     1.146654

 60 C s       :     3.344670  s :     3.344670
      pz      :     0.987754  p :     3.268900
      px      :     1.163779
      py      :     1.117367

 61 H s       :     0.803522  s :     0.803522

 62 H s       :     0.787367  s :     0.787367

 63 H s       :     0.798894  s :     0.798894

 64 H s       :     0.799928  s :     0.799928

 65 H s       :     0.802270  s :     0.802270

 66 H s       :     0.795768  s :     0.795768

 67 H s       :     0.797930  s :     0.797930

 68 H s       :     0.800109  s :     0.800109

 69 H s       :     0.804501  s :     0.804501

 70 H s       :     0.785304  s :     0.785304

 71 H s       :     0.808075  s :     0.808075

 72 H s       :     0.799445  s :     0.799445


------------------------
MULLIKEN OVERLAP CHARGES
------------------------
B(  0-C ,  1-C ) :   0.5242 B(  0-C ,  2-C ) :  -0.1798 B(  0-C ,  3-H ) :  -0.0797 
B(  0-C ,  4-H ) :  -0.0864 B(  0-C ,  5-C ) :   0.4159 B(  0-C ,  6-C ) :  -0.1412 
B(  0-C , 14-C ) :   0.9503 B(  0-C , 15-C ) :  -0.2024 B(  0-C , 18-C ) :  -0.1863 
B(  0-C , 19-H ) :  -0.0752 B(  1-C ,  2-C ) :   0.5263 B(  1-C ,  3-H ) :   0.8090 
B(  1-C ,  4-H ) :   0.7737 B(  1-C ,  5-C ) :  -0.1403 B(  1-C ,  7-C ) :  -0.1582 
B(  1-C , 12-O ) :  -0.1101 B(  1-C , 13-H ) :  -0.0575 B(  1-C , 14-C ) :  -0.1136 
B(  2-C ,  3-H ) :  -0.0592 B(  2-C ,  4-H ) :  -0.0536 B(  2-C ,  6-C ) :  -0.1583 
B(  2-C ,  7-C ) :   0.5149 B(  2-C , 10-H ) :  -0.0624 B(  2-C , 11-H ) :  -0.0697 
B(  2-C , 12-O ) :   0.6966 B(  2-C , 13-H ) :   0.8217 B(  2-C , 35-H ) :  -0.1152 
B(  5-C ,  6-C ) :   0.5296 B(  5-C ,  7-C ) :  -0.1575 B(  5-C ,  8-H ) :  -0.0730 
B(  5-C ,  9-H ) :  -0.0939 B(  5-C , 14-C ) :  -0.1995 B(  5-C , 15-C ) :   1.0614 
B(  5-C , 16-H ) :  -0.0997 B(  5-C , 17-H ) :  -0.0952 B(  6-C ,  7-C ) :   0.5526 
B(  6-C ,  8-H ) :   0.8229 B(  6-C ,  9-H ) :   0.7936 B(  6-C , 10-H ) :  -0.0740 
B(  6-C , 11-H ) :  -0.0562 B(  6-C , 15-C ) :  -0.1299 B(  7-C ,  9-H ) :  -0.0777 
B(  7-C , 10-H ) :   0.7763 B(  7-C , 11-H ) :   0.8045 B(  7-C , 12-O ) :  -0.1081 
B(  7-C , 13-H ) :  -0.0823 B( 12-O , 35-H ) :   0.6664 B( 14-C , 18-C ) :   0.6128 
B( 14-C , 19-H ) :   0.8212 B( 14-C , 20-C ) :  -0.1939 B( 14-C , 21-H ) :  -0.0737 
B( 15-C , 16-H ) :   0.8137 B( 15-C , 17-H ) :   0.8065 B( 18-C , 19-H ) :  -0.0602 
B( 18-C , 20-C ) :   0.9190 B( 18-C , 21-H ) :   0.8335 B( 18-C , 22-C ) :  -0.1510 
B( 18-C , 32-C ) :  -0.1499 B( 20-C , 21-H ) :  -0.0829 B( 20-C , 22-C ) :   0.5339 
B( 20-C , 23-C ) :  -0.1734 B( 20-C , 24-H ) :  -0.0674 B( 20-C , 25-H ) :  -0.0916 
B( 20-C , 29-C ) :  -0.1244 B( 20-C , 32-C ) :   0.5190 B( 20-C , 33-H ) :  -0.0911 
[...]
        0.0000         1.5788        0.0000
        0.0000         0.0000        1.5788

 Diagonalized JT*J matrix:
 
 J[55,60](FC)             1.579            1.579            1.579  iso=      1.579
                ---------------  ---------------  ---------------  ---------------
 J[55,60](Total)          1.579            1.579            1.579  iso=      1.579



-----------------------------------------------------------
 NUCLEUS A = C   56 NUCLEUS B = C   59 
 ( 13C  gnA =  1.405  13C  gnB =  1.405) r(AB) =     1.5304
-----------------------------------------------------------

Fermi-contact contribution to J (Hz):
       26.9591         0.0000        0.0000
        0.0000        26.9591        0.0000
        0.0000         0.0000       26.9591

Total spin-spin coupling tensor J (Hz):
       26.9591         0.0000        0.0000
        0.0000        26.9591        0.0000
        0.0000         0.0000       26.9591

 Diagonalized JT*J matrix:
 
 J[56,59](FC)            26.959           26.959           26.959  iso=     26.959
                ---------------  ---------------  ---------------  ---------------
 J[56,59](Total)         26.959           26.959           26.959  iso=     26.959



-----------------------------------------------------------
 NUCLEUS A = C   56 NUCLEUS B = C   60 
 ( 13C  gnA =  1.405  13C  gnB =  1.405) r(AB) =     1.5299
-----------------------------------------------------------

Fermi-contact contribution to J (Hz):
       26.9214         0.0000        0.0000
        0.0000        26.9214        0.0000
        0.0000         0.0000       26.9214

Total spin-spin coupling tensor J (Hz):
       26.9214         0.0000        0.0000
        0.0000        26.9214        0.0000
        0.0000         0.0000       26.9214

 Diagonalized JT*J matrix:
 
 J[56,60](FC)            26.921           26.921           26.921  iso=     26.921
                ---------------  ---------------  ---------------  ---------------
 J[56,60](Total)         26.921           26.921           26.921  iso=     26.921



-----------------------------------------------------------
 NUCLEUS A = C   59 NUCLEUS B = C   60 
 ( 13C  gnA =  1.405  13C  gnB =  1.405) r(AB) =     2.5177
-----------------------------------------------------------

Fermi-contact contribution to J (Hz):
       -0.8415         0.0000        0.0000
        0.0000        -0.8415        0.0000
        0.0000         0.0000       -0.8415

Total spin-spin coupling tensor J (Hz):
       -0.8415         0.0000        0.0000
        0.0000        -0.8415        0.0000
        0.0000         0.0000       -0.8415

 Diagonalized JT*J matrix:
 
 J[59,60](FC)            -0.841           -0.841           -0.841  iso=     -0.841
                ---------------  ---------------  ---------------  ---------------
 J[59,60](Total)         -0.841           -0.841           -0.841  iso=     -0.841



-----------------------------------------------------------------------------
                SUMMARY OF ISOTROPIC COUPLING CONSTANTS J (Hz)                
-----------------------------------------------------------------------------
                  0 C        1 C        2 C        5 C        6 C        7 C  
      0 C        0.000     33.080     -3.740     41.317     -0.881      2.286
      1 C       33.080      0.000     23.425     -1.190      1.435     -0.655
      2 C       -3.740     23.425      0.000      2.296     -2.754     25.802
      5 C       41.317     -1.190      2.296      0.000     30.357     -2.769
      6 C       -0.881      1.435     -2.754     30.357      0.000     24.812
      7 C        2.286     -0.655     25.802     -2.769     24.812      0.000
     14 C       69.404     -0.360      2.843     -3.026      2.183     -0.622
     15 C       -3.415      2.416     -0.860     64.557     -1.076      2.601
     18 C       -2.408      4.172     -1.088      3.182     -0.813      0.190
     20 C        6.800     -1.098      1.077     -1.392      0.604     -0.102
     22 C       -0.917      0.325     -0.327      0.424     -0.181      0.037
     23 C        0.832     -0.289      0.282     -0.348      0.154      0.000
     26 C       -0.096      0.040      0.000      0.050      0.000      0.000
     29 C        1.162     -0.364      0.000     -0.449      0.207      0.000
     32 C       -1.117      0.543     -0.371      0.473     -0.213      0.044
     34 C        0.023     -0.015      0.014     -0.015      0.005     -0.001
     36 C       -0.017      0.000      0.000      0.017     -0.008      0.000
     39 C       -0.072      0.000      0.000      0.031      0.000      0.000
     43 C        0.000      0.000      0.000      0.000      0.000      0.000
     44 C        0.010     -0.003      0.000     -0.002     -0.004      0.000
     49 C        0.000      0.000      0.000      0.000      0.000      0.000
     50 C        0.000      0.000      0.000      0.000      0.000      0.000
     51 C        0.000      0.000      0.000      0.000      0.000      0.000
     54 C        0.000      0.000      0.000      0.000      0.000      0.000
     55 C        0.000      0.000      0.000      0.000      0.000      0.000
     56 C        0.000      0.000      0.000      0.000      0.000      0.000
     59 C        0.000      0.000      0.000      0.000      0.000      0.000
     60 C        0.000      0.000      0.000      0.000      0.000      0.000
                 14 C       15 C       18 C       20 C       22 C       23 C  
      0 C       69.404     -3.415     -2.408      6.800     -0.917      0.832
      1 C       -0.360      2.416      4.172     -1.098      0.325     -0.289
      2 C        2.843     -0.860     -1.088      1.077     -0.327      0.282
      5 C       -3.026     64.557      3.182     -1.392      0.424     -0.348
      6 C        2.183     -1.076     -0.813      0.604     -0.181      0.154
      7 C       -0.622      2.601      0.190     -0.102      0.037      0.000
     14 C        0.000      3.109     54.089     -2.621      3.810     -0.935
     15 C        3.109      0.000     -1.144      1.009     -0.272      0.256
     18 C       54.089     -1.144      0.000     70.009     -2.138      2.363
     20 C       -2.621      1.009     70.009      0.000     32.129     -2.994
     22 C        3.810     -0.272     -2.138     32.129      0.000     24.174
     23 C       -0.935      0.256      2.363     -2.994     24.174      0.000
     26 C        0.139     -0.034     -0.352      1.023     -1.924     25.425
     29 C       -1.133      0.323      2.265     -2.440      1.045     -2.225
     32 C        4.380     -0.315     -1.306     36.882     -0.193      1.543
     34 C        0.064      0.004      2.449     -1.361      1.624     -0.269
     36 C        0.017     -0.014     -0.152      3.487      0.076      0.154
     39 C        0.257     -0.024     -0.054      2.929     -0.335      2.541
     43 C        0.007      0.017      0.275      0.204     -0.004     -0.112
     44 C        0.006      0.029     -0.050      0.700     -0.133      0.585
     49 C       -0.001      0.000     -0.009     -0.030      0.144      0.053
     50 C        0.000      0.000      0.004      0.215     -0.006      0.117
     51 C        0.000      0.000      0.000      0.064     -0.003      0.001
     54 C        0.000      0.000      0.000      0.000      0.000      0.000
     55 C        0.000      0.000      0.000      0.000      0.000      0.000
     56 C        0.000      0.000      0.000      0.000      0.000      0.000
     59 C        0.000      0.000      0.000      0.000      0.000      0.000
     60 C        0.000      0.000      0.000      0.000      0.000      0.000
                 26 C       29 C       32 C       34 C       36 C       39 C  
      0 C       -0.096      1.162     -1.117      0.023     -0.017     -0.072
      1 C        0.040     -0.364      0.543     -0.015      0.000      0.000
      2 C        0.000      0.000     -0.371      0.014      0.000      0.000
      5 C        0.050     -0.449      0.473     -0.015      0.017      0.031
      6 C        0.000      0.207     -0.213      0.005     -0.008      0.000
      7 C        0.000      0.000      0.044     -0.001      0.000      0.000
     14 C        0.139     -1.133      4.380      0.064      0.017      0.257
     15 C       -0.034      0.323     -0.315      0.004     -0.014     -0.024
     18 C       -0.352      2.265     -1.306      2.449     -0.152     -0.054
     20 C        1.023     -2.440     36.882     -1.361      3.487      2.929
     22 C       -1.924      1.045     -0.193      1.624      0.076     -0.335
     23 C       25.425     -2.225      1.543     -0.269      0.154      2.541
     26 C        0.000     27.895     -0.922      2.272      3.027     -0.560
     29 C       27.895      0.000     23.039      0.928      0.718     28.151
     32 C       -0.922     23.039      0.000     28.051      1.219      3.416
     34 C        2.272      0.928     28.051      0.000     26.094      0.014
     36 C        3.027      0.718      1.219     26.094      0.000     26.429
     39 C       -0.560     28.151      3.416      0.014     26.429      0.000
     43 C       -0.018     -0.690      2.849      1.554     -0.033     27.754
     44 C       -0.612     27.205     -0.996      0.810      0.299     -1.269
     49 C        0.442      0.109     -0.001      0.061      3.268     -1.002
     50 C       -0.073      3.029      0.013      0.101      1.422     -2.773
     51 C       -0.016      0.157      0.149     -0.035      0.071      2.778
     54 C       -0.002      0.089     -0.037      0.014     -0.001     -0.841
     55 C        0.000      0.002      0.006     -0.002      0.003      0.045
     56 C       -0.003      0.031      0.000     -0.006      0.016      0.887
     59 C        0.000      0.000      0.000      0.000     -0.001     -0.042
     60 C        0.000     -0.000      0.000      0.000     -0.001      0.004
                 43 C       44 C       49 C       50 C       51 C       54 C  
      0 C        0.000      0.010      0.000      0.000      0.000      0.000
      1 C        0.000     -0.003      0.000      0.000      0.000      0.000
      2 C        0.000      0.000      0.000      0.000      0.000      0.000
      5 C        0.000     -0.002      0.000      0.000      0.000      0.000
      6 C        0.000     -0.004      0.000      0.000      0.000      0.000
      7 C        0.000      0.000      0.000      0.000      0.000      0.000
     14 C        0.007      0.006     -0.001      0.000      0.000      0.000
     15 C        0.017      0.029      0.000      0.000      0.000      0.000
     18 C        0.275     -0.050     -0.009      0.004      0.000      0.000
     20 C        0.204      0.700     -0.030      0.215      0.064      0.000
     22 C       -0.004     -0.133      0.144     -0.006     -0.003      0.000
     23 C       -0.112      0.585      0.053      0.117      0.001      0.000
     26 C       -0.018     -0.612      0.442     -0.073     -0.016     -0.002
     29 C       -0.690     27.205      0.109      3.029      0.157      0.089
     32 C        2.849     -0.996     -0.001      0.013      0.149     -0.037
     34 C        1.554      0.810      0.061      0.101     -0.035      0.014
     36 C       -0.033      0.299      3.268      1.422      0.071     -0.001
     39 C       27.754     -1.269     -1.002     -2.773      2.778     -0.841
     43 C        0.000      1.421     27.397     35.961     -1.340      3.391
     44 C        1.421      0.000     -0.037     -0.106      0.081      0.008
     49 C       27.397     -0.037      0.000     -1.982      3.089     -0.002
     50 C       35.961     -0.106     -1.982      0.000     69.248     -1.618
     51 C       -1.340      0.081      3.089     69.248      0.000     36.697
     54 C        3.391      0.008     -0.002     -1.618     36.697      0.000
     55 C       -0.017     -0.001      0.091      2.843     -1.687     27.660
     56 C       -0.709      0.004      0.035      3.093     -1.430     25.719
     59 C        0.169      0.000     -0.009      0.399      3.728     -0.346
     60 C        0.005      0.000     -0.004     -0.087      0.510     -1.346
                 55 C       56 C       59 C       60 C  
      0 C        0.000      0.000      0.000      0.000
      1 C        0.000      0.000      0.000      0.000
      2 C        0.000      0.000      0.000      0.000
      5 C        0.000      0.000      0.000      0.000
      6 C        0.000      0.000      0.000      0.000
      7 C        0.000      0.000      0.000      0.000
     14 C        0.000      0.000      0.000      0.000
     15 C        0.000      0.000      0.000      0.000
     18 C        0.000      0.000      0.000      0.000
     20 C        0.000      0.000      0.000      0.000
     22 C        0.000      0.000      0.000      0.000
     23 C        0.000      0.000      0.000      0.000
     26 C        0.000     -0.003      0.000      0.000
     29 C        0.002      0.031      0.000     -0.000
     32 C        0.006      0.000      0.000      0.000
     34 C       -0.002     -0.006      0.000      0.000
     36 C        0.003      0.016     -0.001     -0.001
     39 C        0.045      0.887     -0.042      0.004
     43 C       -0.017     -0.709      0.169      0.005
     44 C       -0.001      0.004      0.000      0.000
     49 C        0.091      0.035     -0.009     -0.004
     50 C        2.843      3.093      0.399     -0.087
     51 C       -1.687     -1.430      3.728      0.510
     54 C       27.660     25.719     -0.346     -1.346
     55 C        0.000     -1.691      0.850      1.579
     56 C       -1.691      0.000     26.959     26.921
     59 C        0.850     26.959      0.000     -0.841
     60 C        1.579     26.921     -0.841      0.000

NMR spin-spin coupling calculation done in   0.2 sec 

Maximum memory used throughout the entire PROP-calculation: 34.0 MB

--------------------------------
SUGGESTED CITATIONS FOR THIS RUN
--------------------------------

Below you find a list of papers that are relevant to this ORCA run
We neither can nor want to force you to cite these papers, but we appreciate if you do
You receive ORCA, which is the product of decades of hard work by many enthusiastic individuals, for free
The only thing we kindly ask in return is that you cite our papers,
We deeply appreciate it, if you show your appreciation for ORCA by not just citing the generic ORCA reference.

Please note that relegating all ORCA citations to the supporting information does *not* help us.
SI sections are not indexed - citations you put there will not count into any citation statistics
But we need these citations in order to attract the funding resources that allow us to do what we are doing

Therefore, if you are a happy ORCA user, please consider citing a few of the papers listed below in the main body of your paper

In addition to the list printed below, the program has created the file inpJ.bibtex that contains the list in bibtex format
You can import this file easily into all common literature databanks and citation aid programs


List of essential papers. We consider these as the minimum necessary citations

  1. Neese,F.
     Software update: the ORCA program system, version 5.0
     WIRES Comput. Molec. Sci., 2022 12(1)e1606
     doi.org/10.1002/wcms.1606

List of papers to cite with high priority. The work reported in these papers was absolutely
necessary for this run to complete.
Our perspective: the developers of density functionals and basis sets usually get cited in chemistry papers
Good! But without the algorithms to do something with them, the functionals or basis sets would not do anything.
Hence, in our opinion, the algorithm design and method developments papers are equally worthy of getting cited

  1. Neese,F.
     An improvement of the resolution of the identity approximation for the formation of the Coulomb matrix
     J. Comp. Chem., 2003 24(14)1740-1747
     doi.org/10.1002/jcc.10318
  2. Neese,F.; Wennmohs,F.; Hansen,A.; Becker,U.
     Efficient, approximate and parallel Hartree-Fock and hybrid DFT calculations. A 'chain-of-spheres' algorithm for the Hartree-Fock exchange
     Chem. Phys., 2009 356(1-3)98-109
     doi.org/10.1016/j.chemphys.2008.10.036
  3. Stoychev,G.L.; Auer,A.A.; Izsak,R.; Neese,F.
     Self-Consistent Field Calculation of Nuclear Magnetic Resonance Chemical Shielding Constants Using Gauge-Including Atomic Orbitals and Approximate Two-Electron Integrals
     J. Chem. Theory Comput., 2018 14(2)619-637
     doi.org/10.1021/acs.jctc.7b01006
  4. Garcia-Rates,M.; Neese,F.
     Effect of the Solute Cavity on the Solvation Energy and its Derivatives within the Framework of the Gaussian Charge Scheme
     J. Comput. Chem., 2020 41 922-939
     doi.org/10.1002/jcc.26139
  5. Helmich-Paris,B.; de Souza,B.; Neese,F.; Izsák,R.
     An improved chain of spheres for exchange algorithm
     J. Chem. Phys., 2021 155 104109
     doi.org/doi: 10.1063/5.0058766.
  6. Neese,F.
     The SHARK Integral Generation and Digestion System
     J. Comp. Chem., 2022  1-16
     doi.org/10.1002/jcc.26942
  7. Grimme,S.; Bannwarth,C.; Dohm,S.; Hansen,A.; Pisarek,J.; Pracht,P.; Seibert,J.; Neese,F.
     Fully Automated Quantum-Chemistry-Based Computation of Spin-Spin-Coupled Nuclear Magnetic Resonance Spectra
     Angew. Chem., Int. Ed., 2017 56 14763-14769
     doi.org/10.1002/anie.201708266
  8. Caldeweyher,E.; Bannwarth,C.; Grimme,S.
     Extension of the D3 dispersion coefficient model
     J. Chem. Phys., 2017 147 034112-XXXX
     doi.org/10.1063/1.4993215
  9. Caldeweyher,E.; Ehlert,S.; Hansen,A.; Neugebauer,H.; Spicher,S.; Bannwarth,C.; Grimme,S.
     A generally applicable atomic-charge dependent London dispersion correction
     J. Chem. Phys., 2019 150 154122-XXXX
     doi.org/10.1063/1.5090222
 10. Caldeweyher,E.; Mewes,J.; Ehlert,S.; Grimme,S.
     Extension and evaluation of the D4 London-dispersion model for periodic systems
     Phys. Chem. Chem. Phys., 2020 22(16)8499-8512
     doi.org/10.1039/D0CP00502A

List of suggested additional citations. These are papers that are important in the 'surrounding' of 
of this run, or papers that preceded the highly important papers. If you like your results we are grateful for a citation.

  1. Izsak,R.; Neese,F.
     An overlap fitted chain of spheres exchange method
     J. Chem. Phys., 2011 135 144105
     doi.org/10.1063/1.3646921
  2. Izsak,R.; Hansen,A.; Neese,F.
     The resolution of identity and chain of spheres approximations for the LPNO-CCSD singles Fock term
     Molec. Phys., 2012 110 2413-2417
     doi.org/10.1080/00268976.2012.687466
  3. Neese,F.
     The ORCA program system
     WIRES Comput. Molec. Sci., 2012 2(1)73-78
     doi.org/10.1002/wcms.81
  4. Izsak,R.; Neese,F.; Klopper,W.
     Robust fitting techniques in the chain of spheres approximation to the Fock exchange: The role of the complementary space
     J. Chem. Phys., 2013 139 
     doi.org/10.1063/1.4819264
  5. Neese,F.
     Software update: the ORCA program system, version 4.0
     WIRES Comput. Molec. Sci., 2018 8(1)1-6
     doi.org/10.1002/wcms.1327
  6. Neese,F.; Wennmohs,F.; Becker,U.; Riplinger,C.
     The ORCA quantum chemistry program package
     J. Chem. Phys., 2020 152 Art. No. L224108
     doi.org/10.1063/5.0004608

Timings for individual modules:

Sum of individual times          ...      135.196 sec (=   2.253 min)
Startup calculation              ...        3.797 sec (=   0.063 min)   2.8 %
SCF iterations                   ...       18.710 sec (=   0.312 min)  13.8 %
Property integrals               ...        0.647 sec (=   0.011 min)   0.5 %
SCF Response                     ...      111.547 sec (=   1.859 min)  82.5 %
Property calculations            ...        0.495 sec (=   0.008 min)   0.4 %
                             ****ORCA TERMINATED NORMALLY****
TOTAL RUN TIME: 0 days 0 hours 2 minutes 15 seconds 540 msec
