
                                 *****************
                                 * O   R   C   A *
                                 *****************

                                            #,                                       
                                            ###                                      
                                            ####                                     
                                            #####                                    
                                            ######                                   
                                           ########,                                 
                                     ,,################,,,,,                         
                               ,,#################################,,                 
                          ,,##########################################,,             
                       ,#########################################, ''#####,          
                    ,#############################################,,   '####,        
                  ,##################################################,,,,####,       
                ,###########''''           ''''###############################       
              ,#####''   ,,,,##########,,,,          '''####'''          '####       
            ,##' ,,,,###########################,,,                        '##       
           ' ,,###''''                  '''############,,,                           
         ,,##''                                '''############,,,,        ,,,,,,###''
      ,#''                                            '''#######################'''  
     '                                                          ''''####''''         
             ,#######,   #######,   ,#######,      ##                                
            ,#'     '#,  ##    ##  ,#'     '#,    #''#        ,####,   ,####,        
            ##       ##  ##   ,#'  ##            #'  '#       #'       #'  '#        
            ##       ##  #######   ##           ,######,      #####,   #    #        
            '#,     ,#'  ##    ##  '#,     ,#' ,#      #,     #,   #   #,  ,#        
             '#######'   ##     ##  '#######'  #'      '#     '####' # '####'        



                #########################################################
                #                        -***-                          #
                #          Department of theory and spectroscopy        #
                #                                                       #
                #                      Frank Neese                      #
                #                                                       #
                #     Directorship, Architecture, Infrastructure        #
                #                    SHARK, DRIVERS                     #
                #        Core code/Algorithms in most modules           #
                #                                                       #
                #        Max Planck Institute fuer Kohlenforschung      #
                #                Kaiser Wilhelm Platz 1                 #
                #                 D-45470 Muelheim/Ruhr                 #
                #                      Germany                          #
                #                                                       #
                #                  All rights reserved                  #
                #                        -***-                          #
                #########################################################


                         Program Version 6.0.0  -   RELEASE  -


 With contributions from (in alphabetic order):
   Daniel Aravena         : Magnetic Suceptibility
   Michael Atanasov       : Ab Initio Ligand Field Theory (pilot matlab implementation)
   Alexander A. Auer      : GIAO ZORA, VPT2 properties, NMR spectrum
   Ute Becker             : All parallelization in ORCA, NUMFREQ, NUMCALC
   Giovanni Bistoni       : ED, misc. LED, open-shell LED, HFLD
   Martin Brehm           : Molecular dynamics
   Dmytro Bykov           : pre 5.0 version of the SCF Hessian
   Marcos Casanova-Páez   : Triplet and SCS-CIS(D). UHF-(DLPNO)-IP/EA/STEOM-CCSD. UHF-CVS-IP/STEOM-CCSD
   Vijay G. Chilkuri      : MRCI spin determinant printing, contributions to CSF-ICE
   Pauline Colinet        : FMM embedding
   Dipayan Datta          : RHF DLPNO-CCSD density
   Achintya Kumar Dutta   : EOM-CC, STEOM-CC
   Nicolas Foglia         : Exact transition moments, OPA infrastructure, MCD improvements
   Dmitry Ganyushin       : Spin-Orbit,Spin-Spin,Magnetic field MRCI
   Miquel Garcia          : C-PCM and meta-GGA Hessian, CCSD/C-PCM, Gaussian charge scheme
   Tiago L. C. Gouveia    : GS-ROHF, GS-ROCIS
   Yang Guo               : DLPNO-NEVPT2, F12-NEVPT2, CIM, IAO-localization
   Andreas Hansen         : Spin unrestricted coupled pair/coupled cluster methods
   Ingolf Harden          : AUTO-CI MPn and infrastructure 
   Benjamin Helmich-Paris : MC-RPA, TRAH-(SCF,CASSCF), AVAS, COSX integrals, SCF dyn. polar.
   Lee Huntington         : MR-EOM, pCC
   Robert Izsak           : Overlap fitted RIJCOSX, COSX-SCS-MP3, EOM
   Riya Kayal             : Wick's Theorem for AUTO-CI, AUTO-CI UHF-CCSDT
   Emily Kempfer          : AUTO-CI, RHF CISDT and CCSDT
   Christian Kollmar      : KDIIS, OOCD, Brueckner-CCSD(T), CCSD density, CASPT2, CASPT2-K, improved NEVPT2
   Axel Koslowski         : Symmetry handling
   Simone Kossmann        : Meta GGA functionals, TD-DFT gradient, OOMP2, (MP2 Hessian; deprecated post 5.0)
   Lucas Lang             : DCDCAS
   Marvin Lechner         : AUTO-CI (C++ implementation), FIC-MRCC
   Spencer Leger          : CASSCF response
   Dagmar Lenk            : GEPOL surface, SMD, ORCA-2-JSON
   Dimitrios Liakos       : Extrapolation schemes; Compound Job, initial MDCI parallelization
   Dimitrios Manganas     : Further ROCIS development; embedding schemes. LFT, Crystal Embedding
   Dimitrios Pantazis     : SARC Basis sets
   Anastasios Papadopoulos: AUTO-CI, single reference methods and gradients
   Taras Petrenko         : pre 6.0 DFT Hessian and TD-DFT gradient, (ASA, deprecated), ECA, 1-Electron XAS/XES, NRVS
   Peter Pinski           : DLPNO-MP2, DLPNO-MP2 Gradient
   Christoph Reimann      : Effective Core Potentials
   Marius Retegan         : Local ZFS, SOC
   Christoph Riplinger    : Optimizer, TS searches, QM/MM, DLPNO-CCSD(T), (RO)-DLPNO pert. Triples
   Michael Roemelt        : Original ROCIS implementation
   Masaaki Saitow         : Open-shell DLPNO-CCSD energy and density
   Barbara Sandhoefer     : DKH picture change effects
   Kantharuban Sivalingam : CASSCF convergence/infrastructure, NEVPT2 and variants, FIC-MRCI
   Bernardo de Souza      : ESD, SOC TD-DFT
   Georgi Stoychev        : AutoAux, RI-MP2 NMR, DLPNO-MP2 response, X2C
   Van Anh Tran           : RI-MP2 g-tensors
   Willem Van den Heuvel  : Paramagnetic NMR
   Zikuan Wang            : NOTCH, Electric field optimization 
   Frank Wennmohs         : Technical directorship and infrastructure
   Hang Xu                : AUTO-CI-Response properties 


 We gratefully acknowledge several colleagues who have allowed us to
 interface, adapt or use parts of their codes:
   Stefan Grimme, W. Hujo, H. Kruse, P. Pracht,  : VdW corrections, initial TS optimization,
                  C. Bannwarth, S. Ehlert,         DFT functionals, gCP, sTDA/sTD-DF
                  L. Wittmann, M. Mueller
   Ed Valeev, F. Pavosevic, A. Kumar             : LibInt (2-el integral package), F12 methods
   Garnet Chan, S. Sharma, J. Yang, R. Olivares  : DMRG
   Ulf Ekstrom                                   : XCFun DFT Library
   Mihaly Kallay                                 : mrcc  (arbitrary order and MRCC methods)
   Frank Weinhold                                : gennbo (NPA and NBO analysis)
   Simon Mueller                                 : openCOSMO-RS
   Christopher J. Cramer and Donald G. Truhlar   : smd solvation model
   Lars Goerigk                                  : TD-DFT with DH, B97 family of functionals
   V. Asgeirsson, H. Jonsson                     : NEB implementation
   FAccTs GmbH                                   : IRC, NEB, NEB-TS, DLPNO-Multilevel, CI-OPT
                                                   MM, QMMM, 2- and 3-layer-ONIOM, Crystal-QMMM,
                                                   LR-CPCM, SF, NACMEs, symmetry and pop. for TD-DFT,
                                                   nearIR, NL-DFT gradient (VV10), updates on ESD,
                                                   ML-optimized integration grids, MBIS, APM,
                                                   GOAT, DOCKER, SOLVATOR, interface openCOSMO-RS
   S Lehtola, MJT Oliveira, MAL Marques          : LibXC Library
   Liviu Ungur et al                             : ANISO software


 Your calculation uses the libint2 library for the computation of 2-el integrals
 For citations please refer to: http://libint.valeyev.net

 Your ORCA version has been built with support for libXC version: 6.2.2
 For citations please refer to: https://libxc.gitlab.io

 This ORCA versions uses:
   CBLAS   interface :  Fast vector & matrix operations
   LAPACKE interface :  Fast linear algebra routines
   SCALAPACK package :  Parallel linear algebra routines
   Shared memory     :  Shared parallel matrices
   BLAS/LAPACK       :  OpenBLAS 0.3.27  USE64BITINT DYNAMIC_ARCH NO_AFFINITY Zen SINGLE_THREADED
        Core in use  :  Zen
   Copyright (c) 2011-2014, The OpenBLAS Project


NOTE: MaxCore=8000 MB was set to SCF,MP2,MDCI,CIPSI,MRCI and CIS
      => If you want to overwrite this, your respective input block should be placed after the MaxCore statement
Your calculation utilizes the atom-pairwise dispersion correction
based on EEQ partial charges (D4)


================================================================================

----- Orbital basis set information -----
Your calculation utilizes the basis: def2-SVP
   F. Weigend and R. Ahlrichs, Phys. Chem. Chem. Phys. 7, 3297 (2005).

----- AuxJ basis set information -----
Your calculation utilizes the auxiliary basis: def2/J
   F. Weigend, Phys. Chem. Chem. Phys. 8, 1057 (2006).

================================================================================
                                        WARNINGS
                       Please study these warnings very carefully!
================================================================================

WARNING: Old DensityContainer found on disk!
         Will remove this file - 
         If you want to keep old densities, please start your calculation with a different basename. 


================================================================================
                                       INPUT FILE
================================================================================
NAME = inpS
|  1> ! wb97x-d4
|  2> ! def2-svp
|  3> ! def2/J RIJCOSX
|  4> ! DEFGRID2
|  5> ! scfconv7
|  6> ! smallprint printgap noloewdin
|  7> ! NOSOSCF
|  8> %MaxCore 8000
|  9> %output
| 10>        print[P_BondOrder_M] 1
| 11>        print[P_Mayer] 1
| 12>        print[P_basis] 2
| 13> end
| 14> %pal
| 15>     nprocs 4
| 16> end
| 17> ! CPCM(chloroform)
| 18> *xyz 0 1
| 19> C   -5.0083890700   0.2300521400  -0.4854652800
| 20> C   -6.4606163900  -0.1486244900  -0.6578090600
| 21> C   -7.3586375900   0.7708321700   0.1796493600
| 22> H   -6.6242064100  -1.1941060500  -0.3729950200
| 23> H   -6.7533979000  -0.0342979600  -1.7120956700
| 24> C   -4.7219533500   1.6560902500  -0.7567307400
| 25> C   -5.6430323000   2.6253505000  -0.0491268000
| 26> C   -7.1190283800   2.2323486100  -0.2031757600
| 27> H   -5.4751749900   3.6435338100  -0.4160670400
| 28> H   -5.3882204000   2.6241483500   1.0216633700
| 29> H   -7.4297174300   2.3707813300  -1.2477369200
| 30> H   -7.7478687600   2.8812850400   0.4172779500
| 31> O   -7.1459595400   0.5478361300   1.5834777600
| 32> H   -8.4105916800   0.5141477800   0.0039331800
| 33> C   -4.0951437500  -0.6722825200  -0.0541535100
| 34> C   -3.7562971300   2.0622598100  -1.5883851400
| 35> H   -3.1157261200   1.3501046500  -2.1017893600
| 36> H   -3.5924823900   3.1199161100  -1.7812350300
| 37> C   -2.7080008800  -0.4036969200   0.2493115400
| 38> H   -4.4585761700  -1.6864173000   0.1073698600
| 39> C   -1.7663419100  -1.3173292600   0.5669859100
| 40> H   -2.4128809300   0.6429640100   0.2256873800
| 41> C   -1.9706932000  -2.8099843100   0.6142553200
| 42> C   -0.9682544800  -3.5423066400  -0.2986660900
| 43> H   -2.9907694500  -3.0993795500   0.3481475000
| 44> H   -1.7979220200  -3.1433692300   1.6497864900
| 45> C    0.4842238300  -3.1200553500  -0.0411048900
| 46> H   -1.2321048900  -3.3484354700  -1.3460976000
| 47> H   -1.0679238000  -4.6241393100  -0.1472248800
| 48> C    0.6620850800  -1.5978097700  -0.1285442100
| 49> H    1.1349111600  -3.6396522400  -0.7517577600
| 50> H    0.7827503100  -3.4477086600   0.9661178200
| 51> C   -0.3468345200  -0.9516333800   0.8753307900
| 52> H   -0.1083554000  -1.4217895300   1.8469137600
| 53> C    0.0918943700   0.5071370900   0.9593982800
| 54> H   -6.1923562700   0.4649678700   1.7258850000
| 55> C    1.6342348400   0.4318517800   0.8426073000
| 56> H   -0.2415886600   0.9833912300   1.8872458100
| 57> H   -0.3254479600   1.0887805600   0.1300505500
| 58> C    1.9937981100  -1.0302319500   0.4373414100
| 59> H    2.1258757000   0.7052280700   1.7814064900
| 60> H    1.9955082500   1.1345790500   0.0820510900
| 61> H    2.2165181500  -1.6014008300   1.3532401400
| 62> C    3.2660042000  -1.0929059800  -0.4428030100
| 63> C    0.4137793400  -1.0920090000  -1.5566671500
| 64> H    0.6461553200  -0.0266907100  -1.6542093000
| 65> H   -0.6312891700  -1.2255303200  -1.8527237500
| 66> H    1.0384124300  -1.6350230100  -2.2742919300
| 67> H    3.0624578200  -0.4847257900  -1.3399500800
| 68> C    3.6230888700  -2.5071151400  -0.8969721600
| 69> C    4.3956025900  -0.4085910600   0.2926708800
| 70> C    5.4997656300  -0.9888705600   0.7649398800
| 71> H    4.2549095000   0.6589618900   0.4558803100
| 72> H    5.6500762700  -2.0579835900   0.6035497100
| 73> C    6.6215446700  -0.3193085800   1.5168451500
| 74> C    6.3937267200   1.1703953100   1.7678536400
| 75> C    7.9783024000  -0.6329748600   0.8252282700
| 76> H    6.6756136400  -0.8165384100   2.5008616100
| 77> H    7.9961657800  -1.7243600200   0.6803906600
| 78> C    9.1744517600  -0.2686889500   1.7076097700
| 79> C    8.1026348100   0.0213827800  -0.5520371700
| 80> H    6.2978600600   1.7295018700   0.8308434400
| 81> H    7.2208349800   1.6034179000   2.3377954400
| 82> H    5.4757796500   1.3287195900   2.3438933300
| 83> H    9.0824716600  -0.7089818200   2.7073078400
| 84> H    9.2712761900   0.8168798000   1.8219651800
| 85> H    10.1056935300  -0.6340213600   1.2603969200
| 86> H    7.2392338800  -0.2119873500  -1.1846520000
| 87> H    9.0058843000  -0.3297709500  -1.0630500100
| 88> H    8.1753772500   1.1117308000  -0.4657485900
| 89> H    2.8823903500  -2.8931219200  -1.6001151400
| 90> H    3.6750810700  -3.1996347100  -0.0484941400
| 91> H    4.5952056000  -2.5155110600  -1.4018029300
| 92> *
| 93> %eprnmr
| 94>  Nuclei = all C { shift }
| 95>  origin giao
| 96>  giao_2el giao_2el_same_as_scf
| 97>  giao_1el giao_1el_analytic
| 98> end
| 99> 
|100>                          ****END OF INPUT****
================================================================================

                       ****************************
                       * Single Point Calculation *
                       ****************************

---------------------------------
CARTESIAN COORDINATES (ANGSTROEM)
---------------------------------
  C     -5.008389    0.230052   -0.485465
  C     -6.460616   -0.148624   -0.657809
  C     -7.358638    0.770832    0.179649
  H     -6.624206   -1.194106   -0.372995
  H     -6.753398   -0.034298   -1.712096
  C     -4.721953    1.656090   -0.756731
  C     -5.643032    2.625351   -0.049127
  C     -7.119028    2.232349   -0.203176
  H     -5.475175    3.643534   -0.416067
  H     -5.388220    2.624148    1.021663
  H     -7.429717    2.370781   -1.247737
  H     -7.747869    2.881285    0.417278
  O     -7.145960    0.547836    1.583478
  H     -8.410592    0.514148    0.003933
  C     -4.095144   -0.672283   -0.054154
  C     -3.756297    2.062260   -1.588385
  H     -3.115726    1.350105   -2.101789
  H     -3.592482    3.119916   -1.781235
  C     -2.708001   -0.403697    0.249312
  H     -4.458576   -1.686417    0.107370
  C     -1.766342   -1.317329    0.566986
  H     -2.412881    0.642964    0.225687
  C     -1.970693   -2.809984    0.614255
  C     -0.968254   -3.542307   -0.298666
  H     -2.990769   -3.099380    0.348147
  H     -1.797922   -3.143369    1.649786
  C      0.484224   -3.120055   -0.041105
  H     -1.232105   -3.348435   -1.346098
  H     -1.067924   -4.624139   -0.147225
  C      0.662085   -1.597810   -0.128544
  H      1.134911   -3.639652   -0.751758
  H      0.782750   -3.447709    0.966118
  C     -0.346835   -0.951633    0.875331
  H     -0.108355   -1.421790    1.846914
  C      0.091894    0.507137    0.959398
  H     -6.192356    0.464968    1.725885
  C      1.634235    0.431852    0.842607
  H     -0.241589    0.983391    1.887246
  H     -0.325448    1.088781    0.130051
  C      1.993798   -1.030232    0.437341
  H      2.125876    0.705228    1.781406
  H      1.995508    1.134579    0.082051
  H      2.216518   -1.601401    1.353240
  C      3.266004   -1.092906   -0.442803
  C      0.413779   -1.092009   -1.556667
  H      0.646155   -0.026691   -1.654209
  H     -0.631289   -1.225530   -1.852724
  H      1.038412   -1.635023   -2.274292
  H      3.062458   -0.484726   -1.339950
  C      3.623089   -2.507115   -0.896972
  C      4.395603   -0.408591    0.292671
  C      5.499766   -0.988871    0.764940
  H      4.254910    0.658962    0.455880
  H      5.650076   -2.057984    0.603550
  C      6.621545   -0.319309    1.516845
  C      6.393727    1.170395    1.767854
  C      7.978302   -0.632975    0.825228
  H      6.675614   -0.816538    2.500862
  H      7.996166   -1.724360    0.680391
  C      9.174452   -0.268689    1.707610
  C      8.102635    0.021383   -0.552037
  H      6.297860    1.729502    0.830843
  H      7.220835    1.603418    2.337795
  H      5.475780    1.328720    2.343893
  H      9.082472   -0.708982    2.707308
  H      9.271276    0.816880    1.821965
  H     10.105694   -0.634021    1.260397
  H      7.239234   -0.211987   -1.184652
  H      9.005884   -0.329771   -1.063050
  H      8.175377    1.111731   -0.465749
  H      2.882390   -2.893122   -1.600115
  H      3.675081   -3.199635   -0.048494
  H      4.595206   -2.515511   -1.401803

----------------------------
CARTESIAN COORDINATES (A.U.)
----------------------------
  NO LB      ZA    FRAG     MASS         X           Y           Z
   0 C     6.0000    0    12.011   -9.464484    0.434736   -0.917396
   1 C     6.0000    0    12.011  -12.208796   -0.280860   -1.243079
   2 C     6.0000    0    12.011  -13.905810    1.456662    0.339488
   3 H     1.0000    0     1.008  -12.517936   -2.256533   -0.704858
   4 H     1.0000    0     1.008  -12.762073   -0.064814   -3.235392
   5 C     6.0000    0    12.011   -8.923199    3.129557   -1.430014
   6 C     6.0000    0    12.011  -10.663786    4.961193   -0.092836
   7 C     6.0000    0    12.011  -13.453014    4.218528   -0.383947
   8 H     1.0000    0     1.008  -10.346581    6.885281   -0.786253
   9 H     1.0000    0     1.008  -10.182261    4.958922    1.930664
  10 H     1.0000    0     1.008  -14.040131    4.480127   -2.357881
  11 H     1.0000    0     1.008  -14.641350    5.444840    0.788541
  12 O     8.0000    0    15.999  -13.503906    1.035260    2.992339
  13 H     1.0000    0     1.008  -15.893715    0.971598    0.007433
  14 C     6.0000    0    12.011   -7.738700   -1.270430   -0.102335
  15 C     6.0000    0    12.011   -7.098373    3.897106   -3.001613
  16 H     1.0000    0     1.008   -5.887869    2.551328   -3.971806
  17 H     1.0000    0     1.008   -6.788808    5.895787   -3.366046
  18 C     6.0000    0    12.011   -5.117380   -0.762877    0.471131
  19 H     1.0000    0     1.008   -8.425488   -3.186867    0.202900
  20 C     6.0000    0    12.011   -3.337902   -2.489392    1.071448
  21 H     1.0000    0     1.008   -4.559684    1.215026    0.426487
  22 C     6.0000    0    12.011   -3.724070   -5.310101    1.160774
  23 C     6.0000    0    12.011   -1.829736   -6.693989   -0.564397
  24 H     1.0000    0     1.008   -5.651735   -5.856979    0.657903
  25 H     1.0000    0     1.008   -3.397580   -5.940107    3.117645
  26 C     6.0000    0    12.011    0.915050   -5.896050   -0.077677
  27 H     1.0000    0     1.008   -2.328341   -6.327626   -2.543756
  28 H     1.0000    0     1.008   -2.018084   -8.738357   -0.278215
  29 C     6.0000    0    12.011    1.251159   -3.019423   -0.242913
  30 H     1.0000    0     1.008    2.144671   -6.877946   -1.420616
  31 H     1.0000    0     1.008    1.479184   -6.515225    1.825698
  32 C     6.0000    0    12.011   -0.655422   -1.798326    1.654135
  33 H     1.0000    0     1.008   -0.204762   -2.686793    3.490161
  34 C     6.0000    0    12.011    0.173655    0.958350    1.813000
  35 H     1.0000    0     1.008  -11.701857    0.878662    3.261450
  36 C     6.0000    0    12.011    3.088256    0.816082    1.592297
  37 H     1.0000    0     1.008   -0.456536    1.858340    3.566378
  38 H     1.0000    0     1.008   -0.615008    2.057497    0.245760
  39 C     6.0000    0    12.011    3.767732   -1.946856    0.826455
  40 H     1.0000    0     1.008    4.017323    1.332688    3.366370
  41 H     1.0000    0     1.008    3.770964    2.144044    0.155054
  42 H     1.0000    0     1.008    4.188612   -3.026209    2.557253
  43 C     6.0000    0    12.011    6.171853   -2.065293   -0.836776
  44 C     6.0000    0    12.011    0.781930   -2.063598   -2.941675
  45 H     1.0000    0     1.008    1.221057   -0.050438   -3.126003
  46 H     1.0000    0     1.008   -1.192964   -2.315917   -3.501140
  47 H     1.0000    0     1.008    1.962315   -3.089746   -4.297789
  48 H     1.0000    0     1.008    5.787207   -0.915999   -2.532139
  49 C     6.0000    0    12.011    6.846646   -4.737761   -1.695032
  50 C     6.0000    0    12.011    8.306485   -0.772125    0.553068
  51 C     6.0000    0    12.011   10.393051   -1.868695    1.445527
  52 H     1.0000    0     1.008    8.040614    1.245258    0.861489
  53 H     1.0000    0     1.008   10.677097   -3.889025    1.140544
  54 C     6.0000    0    12.011   12.512906   -0.603406    2.866422
  55 C     6.0000    0    12.011   12.082392    2.211727    3.340759
  56 C     6.0000    0    12.011   15.076807   -1.196149    1.559455
  57 H     1.0000    0     1.008   12.615082   -1.543034    4.725944
  58 H     1.0000    0     1.008   15.110563   -3.258568    1.285752
  59 C     6.0000    0    12.011   17.337201   -0.507749    3.226915
  60 C     6.0000    0    12.011   15.311761    0.040408   -1.043199
  61 H     1.0000    0     1.008   11.901231    3.268285    1.570067
  62 H     1.0000    0     1.008   13.645401    3.030021    4.417793
  63 H     1.0000    0     1.008   10.347724    2.510916    4.429316
  64 H     1.0000    0     1.008   17.163384   -1.339781    5.116070
  65 H     1.0000    0     1.008   17.520173    1.543679    3.443015
  66 H     1.0000    0     1.008   19.096993   -1.198127    2.381805
  67 H     1.0000    0     1.008   13.680169   -0.400598   -2.238668
  68 H     1.0000    0     1.008   17.018655   -0.623177   -2.008873
  69 H     1.0000    0     1.008   15.449224    2.100867   -0.880137
  70 H     1.0000    0     1.008    5.446928   -5.467208   -3.023779
  71 H     1.0000    0     1.008    6.944897   -6.046433   -0.091641
  72 H     1.0000    0     1.008    8.683680   -4.753627   -2.649024

--------------------------------
INTERNAL COORDINATES (ANGSTROEM)
--------------------------------
 C      0   0   0     0.000000000000     0.00000000     0.00000000
 C      1   0   0     1.510649713722     0.00000000     0.00000000
 C      2   1   0     1.534007571851   110.50187447     0.00000000
 H      2   1   3     1.095861498696   110.67110412   237.86227110
 H      2   1   3     1.100141729090   109.82323110   118.75270003
 C      1   2   3     1.479599629174   114.00297474   306.31446745
 C      6   1   2     1.512797144454   114.44942089    49.53439901
 C      3   2   1     1.529705184148   110.14165844    56.75230230
 H      7   6   1     1.095225305138   110.21908121   188.85343092
 H      7   6   1     1.100691663326   108.26347690    72.19748071
 H      8   3   2     1.098544182424   108.30408557    64.32770494
 H      8   3   2     1.096139370679   109.51858603   181.33118145
 O      3   2   1     1.437252018073   110.70827122   292.73759960
 H      3   2   1     1.096982433520   109.49236494   177.20670326
 C      1   2   3     1.354346593779   121.16814187   123.20948825
 C      6   1   2     1.337577918379   123.12182548   231.43723402
 H     16   6   1     1.086775084312   121.35045299   359.07035444
 H     16   6   1     1.087503194498   120.95296369   178.45060747
 C     15   1   2     1.445127884615   126.17823284   185.23408701
 H     15   1   2     1.089331113560   116.26430462     3.09070650
 C     19  15   1     1.349949137497   126.38392391   186.17924527
 H     19  15   1     1.087728361408   115.76680045     6.89460982
 C     21  19  15     1.507319788611   125.66299027     2.54056868
 C     23  21  19     1.540975302595   111.33608109   124.06264280
 H     23  21  19     1.093214769665   112.39644212     0.53973645
 H     23  21  19     1.101508143213   107.93480741   242.58154629
 C     24  23  21     1.534381688066   112.67925014    51.42673999
 H     24  23  21     1.097413248305   108.97092801   289.25995482
 H     24  23  21     1.096918565489   109.13513974   173.32652457
 C     27  24  23     1.535093438447   111.90121081   306.22906324
 H     27  24  23     1.094715685080   108.84896539   182.67486119
 H     27  24  23     1.100441883225   109.17779791    66.25348032
 C     21  19  15     1.497935670159   122.97293662   180.31138766
 H     33  21  19     1.105392493033   106.35197529   127.67183776
 C     33  21  19     1.525634840301   121.15072474     5.12011577
 H     13   3   2     0.967732487351   107.62793078    42.72066073
 C     35  33  21     1.548587141982   103.63706285   197.20565981
 H     35  33  21     1.094956609228   112.02430052    75.25049728
 H     35  33  21     1.095582677784   110.87761967   315.62491824
 C     30  27  24     1.554294280679   116.14501778   166.04255127
 H     37  35  33     1.094435585268   111.75078815   248.69713522
 H     37  35  33     1.096717758288   110.44052629   130.12454775
 H     40  30  27     1.102138189754   106.64581996   320.54190565
 C     40  30  27     1.548254039080   118.83444378    80.84856979
 C     30  27  24     1.535260659043   111.15822445   294.09262761
 H     45  30  27     1.094721940091   111.66380597   186.33693239
 H     45  30  27     1.094369975781   111.46305986    66.34078529
 H     45  30  27     1.095452434864   110.72271831   306.25951665
 H     44  40  30     1.102808749298   106.76663009    62.13280775
 C     44  40  30     1.527667053578   113.48747902   303.05474759
 C     44  40  30     1.511688220268   108.60911507   176.62008851
 C     51  44  40     1.333768467682   126.43645293   113.74724037
 H     51  44  40     1.089082717092   114.84162537   295.11927421
 H     52  51  44     1.091623903359   119.19195327     1.57905200
 C     52  51  44     1.507336390690   126.83188798   180.97089114
 C     55  52  51     1.527784003148   113.83546690     1.85597678
 C     55  52  51     1.554835033637   109.74925424   233.31061196
 H     55  52  51     1.103833932668   106.32250998   119.96858938
 H     57  55  52     1.101098815313   105.82045209   310.32152195
 C     57  55  52     1.530383816954   112.18129499   193.49781851
 C     57  55  52     1.529870112598   112.64847033    67.76284709
 H     56  55  52     1.095344090612   111.72924090   299.21466816
 H     56  55  52     1.093823702704   111.03039059   178.51257905
 H     56  55  52     1.095223778693   110.63100629    59.10409877
 H     60  57  55     1.096227340167   111.38406780    51.60727888
 H     60  57  55     1.095861141303   111.40911663   290.85930654
 H     60  57  55     1.095754688420   110.46115142   171.67152335
 H     61  57  55     1.095501851499   111.38890168   307.93840618
 H     61  57  55     1.095583272017   110.47594268   187.66691468
 H     61  57  55     1.096173337722   111.09867637    68.44083714
 H     50  44  40     1.091808399885   111.11113161    67.99463272
 H     50  44  40     1.096449494558   111.45175329   307.62600153
 H     50  44  40     1.095415690301   110.58162464   187.42735726

---------------------------
INTERNAL COORDINATES (A.U.)
---------------------------
 C      0   0   0     0.000000000000     0.00000000     0.00000000
 C      1   0   0     2.854714243220     0.00000000     0.00000000
 C      2   1   0     2.898854198160   110.50187447     0.00000000
 H      2   1   3     2.070878113244   110.67110412   237.86227110
 H      2   1   3     2.078966576479   109.82323110   118.75270003
 C      1   2   3     2.796038086991   114.00297474   306.31446745
 C      6   1   2     2.858772299195   114.44942089    49.53439901
 C      3   2   1     2.890723863680   110.14165844    56.75230230
 H      7   6   1     2.069675881651   110.21908121   188.85343092
 H      7   6   1     2.080005801576   108.26347690    72.19748071
 H      8   3   2     2.075947650793   108.30408557    64.32770494
 H      8   3   2     2.071403215192   109.51858603   181.33118145
 O      3   2   1     2.716012699583   110.70827122   292.73759960
 H      3   2   1     2.072996373075   109.49236494   177.20670326
 C      1   2   3     2.559344152651   121.16814187   123.20948825
 C      6   1   2     2.527655948516   123.12182548   231.43723402
 H     16   6   1     2.053707278518   121.35045299   359.07035444
 H     16   6   1     2.055083207366   120.95296369   178.45060747
 C     15   1   2     2.730895930415   126.17823284   185.23408701
 H     15   1   2     2.058537473787   116.26430462     3.09070650
 C     19  15   1     2.551034164593   126.38392391   186.17924527
 H     19  15   1     2.055508711161   115.76680045     6.89460982
 C     21  19  15     2.848421596714   125.66299027     2.54056868
 C     23  21  19     2.912021301041   111.33608109   124.06264280
 H     23  21  19     2.065876520225   112.39644212     0.53973645
 H     23  21  19     2.081548724956   107.93480741   242.58154629
 C     24  23  21     2.899561175349   112.67925014    51.42673999
 H     24  23  21     2.073810495033   108.97092801   289.25995482
 H     24  23  21     2.072875679988   109.13513974   173.32652457
 C     27  24  23     2.900906188644   111.90121081   306.22906324
 H     27  24  23     2.068712839309   108.84896539   182.67486119
 H     27  24  23     2.079533785591   109.17779791    66.25348032
 C     21  19  15     2.830688182833   122.97293662   180.31138766
 H     33  21  19     2.088889082324   106.35197529   127.67183776
 C     33  21  19     2.883032028537   121.15072474     5.12011577
 H     13   3   2     1.828749371992   107.62793078    42.72066073
 C     35  33  21     2.926405592857   103.63706285   197.20565981
 H     35  33  21     2.069168119968   112.02430052    75.25049728
 H     35  33  21     2.070351218079   110.87761967   315.62491824
 C     30  27  24     2.937190522003   116.14501778   166.04255127
 H     37  35  33     2.068183527374   111.75078815   248.69713522
 H     37  35  33     2.072496209372   110.44052629   130.12454775
 H     40  30  27     2.082739340370   106.64581996   320.54190565
 C     40  30  27     2.925776119598   118.83444378    80.84856979
 C     30  27  24     2.901222189774   111.15822445   294.09262761
 H     45  30  27     2.068724659567   111.66380597   186.33693239
 H     45  30  27     2.068059543413   111.46305986    66.34078529
 H     45  30  27     2.070105094630   110.72271831   306.25951665
 H     44  40  30     2.084006514266   106.76663009    62.13280775
 C     44  40  30     2.886872355077   113.48747902   303.05474759
 C     44  40  30     2.856676736181   108.60911507   176.62008851
 C     51  44  40     2.520457129979   126.43645293   113.74724037
 H     51  44  40     2.058068072491   114.84162537   295.11927421
 H     52  51  44     2.062870218591   119.19195327     1.57905200
 C     52  51  44     2.848452970098   126.83188798   180.97089114
 C     55  52  51     2.887093357736   113.83546690     1.85597678
 C     55  52  51     2.938212397000   109.74925424   233.31061196
 H     55  52  51     2.085943830072   106.32250998   119.96858938
 H     57  55  52     2.080775207327   105.82045209   310.32152195
 C     57  55  52     2.892006293828   112.18129499   193.49781851
 C     57  55  52     2.891035533282   112.64847033    67.76284709
 H     56  55  52     2.069900353666   111.72924090   299.21466816
 H     56  55  52     2.067027236903   111.03039059   178.51257905
 H     56  55  52     2.069672997088   110.63100629    59.10409877
 H     60  57  55     2.071569453433   111.38406780    51.60727888
 H     60  57  55     2.070877437869   111.40911663   290.85930654
 H     60  57  55     2.070676271074   110.46115142   171.67152335
 H     61  57  55     2.070198478536   111.38890168   307.93840618
 H     61  57  55     2.070352341017   110.47594268   187.66691468
 H     61  57  55     2.071467403602   111.09867637    68.44083714
 H     50  44  40     2.063218866497   111.11113161    67.99463272
 H     50  44  40     2.071989264391   111.45175329   307.62600153
 H     50  44  40     2.070035657469   110.58162464   187.42735726

---------------------
BASIS SET INFORMATION
---------------------
There are 3 groups of distinct atoms

 Group   1 Type C   : 7s4p1d contracted to 3s2p1d pattern {511/31/1}
 Group   2 Type H   : 4s1p contracted to 2s1p pattern {31/1}
 Group   3 Type O   : 7s4p1d contracted to 3s2p1d pattern {511/31/1}

Atom   0C    basis set group =>   1
Atom   1C    basis set group =>   1
Atom   2C    basis set group =>   1
Atom   3H    basis set group =>   2
Atom   4H    basis set group =>   2
Atom   5C    basis set group =>   1
Atom   6C    basis set group =>   1
Atom   7C    basis set group =>   1
Atom   8H    basis set group =>   2
Atom   9H    basis set group =>   2
Atom  10H    basis set group =>   2
Atom  11H    basis set group =>   2
Atom  12O    basis set group =>   3
Atom  13H    basis set group =>   2
Atom  14C    basis set group =>   1
Atom  15C    basis set group =>   1
Atom  16H    basis set group =>   2
Atom  17H    basis set group =>   2
Atom  18C    basis set group =>   1
Atom  19H    basis set group =>   2
Atom  20C    basis set group =>   1
Atom  21H    basis set group =>   2
Atom  22C    basis set group =>   1
Atom  23C    basis set group =>   1
Atom  24H    basis set group =>   2
Atom  25H    basis set group =>   2
Atom  26C    basis set group =>   1
Atom  27H    basis set group =>   2
Atom  28H    basis set group =>   2
Atom  29C    basis set group =>   1
Atom  30H    basis set group =>   2
Atom  31H    basis set group =>   2
Atom  32C    basis set group =>   1
Atom  33H    basis set group =>   2
Atom  34C    basis set group =>   1
Atom  35H    basis set group =>   2
Atom  36C    basis set group =>   1
Atom  37H    basis set group =>   2
Atom  38H    basis set group =>   2
Atom  39C    basis set group =>   1
Atom  40H    basis set group =>   2
Atom  41H    basis set group =>   2
Atom  42H    basis set group =>   2
Atom  43C    basis set group =>   1
Atom  44C    basis set group =>   1
Atom  45H    basis set group =>   2
Atom  46H    basis set group =>   2
Atom  47H    basis set group =>   2
Atom  48H    basis set group =>   2
Atom  49C    basis set group =>   1
Atom  50C    basis set group =>   1
Atom  51C    basis set group =>   1
Atom  52H    basis set group =>   2
Atom  53H    basis set group =>   2
Atom  54C    basis set group =>   1
Atom  55C    basis set group =>   1
Atom  56C    basis set group =>   1
Atom  57H    basis set group =>   2
Atom  58H    basis set group =>   2
Atom  59C    basis set group =>   1
Atom  60C    basis set group =>   1
Atom  61H    basis set group =>   2
Atom  62H    basis set group =>   2
Atom  63H    basis set group =>   2
Atom  64H    basis set group =>   2
Atom  65H    basis set group =>   2
Atom  66H    basis set group =>   2
Atom  67H    basis set group =>   2
Atom  68H    basis set group =>   2
Atom  69H    basis set group =>   2
Atom  70H    basis set group =>   2
Atom  71H    basis set group =>   2
Atom  72H    basis set group =>   2

-------------------------
BASIS SET IN INPUT FORMAT
-------------------------

 # Basis set for element : H 
 NewGTO H 
 S 3 
   1      13.0107010000      0.0334854848
   2       1.9622572000      0.2347218709
   3       0.4445379600      0.8137702853
 S 1 
   1       0.1219496200      1.0000000000
 P 1 
   1       0.8000000000      1.0000000000
  end;

 # Basis set for element : C 
 NewGTO C 
 S 5 
   1    1238.4016938000      0.0055173650
   2     186.2900499200      0.0410888285
   3      42.2511763460      0.1822538213
   4      11.6765579320      0.4682845944
   5       3.5930506482      0.4457581734
 S 1 
   1       0.4024514736      1.0000000000
 S 1 
   1       0.1309018267      1.0000000000
 P 3 
   1       9.4680970621      0.0568883320
   2       2.0103545142      0.3129405934
   3       0.5477100471      0.7606501651
 P 1 
   1       0.1526861379      1.0000000000
 D 1 
   1       0.8000000000      1.0000000000
  end;

 # Basis set for element : O 
 NewGTO O 
 S 5 
   1    2266.1767785000     -0.0053893504
   2     340.8701019100     -0.0402347214
   3      77.3631351670     -0.1800818421
   4      21.4796449400     -0.4682885766
   5       6.6589433124     -0.4469261716
 S 1 
   1       0.8097597567      1.0000000000
 S 1 
   1       0.2553077223      1.0000000000
 P 3 
   1      17.7215043170      0.0626302488
   2       3.8635505440      0.3333113849
   3       1.0480920883      0.7414863830
 P 1 
   1       0.2764154441      1.0000000000
 D 1 
   1       1.2000000000      1.0000000000
  end;

---------------------------------
AUXILIARY/J BASIS SET INFORMATION
---------------------------------
There are 3 groups of distinct atoms

 Group   1 Type C   : 12s5p4d2f1g contracted to 6s4p3d1f1g pattern {711111/2111/211/2/1}
 Group   2 Type H   : 5s2p1d contracted to 3s1p1d pattern {311/2/1}
 Group   3 Type O   : 12s5p4d2f1g contracted to 6s4p3d1f1g pattern {711111/2111/211/2/1}

Atom   0C    basis set group =>   1
Atom   1C    basis set group =>   1
Atom   2C    basis set group =>   1
Atom   3H    basis set group =>   2
Atom   4H    basis set group =>   2
Atom   5C    basis set group =>   1
Atom   6C    basis set group =>   1
Atom   7C    basis set group =>   1
Atom   8H    basis set group =>   2
Atom   9H    basis set group =>   2
Atom  10H    basis set group =>   2
Atom  11H    basis set group =>   2
Atom  12O    basis set group =>   3
Atom  13H    basis set group =>   2
Atom  14C    basis set group =>   1
Atom  15C    basis set group =>   1
Atom  16H    basis set group =>   2
Atom  17H    basis set group =>   2
Atom  18C    basis set group =>   1
Atom  19H    basis set group =>   2
Atom  20C    basis set group =>   1
Atom  21H    basis set group =>   2
Atom  22C    basis set group =>   1
Atom  23C    basis set group =>   1
Atom  24H    basis set group =>   2
Atom  25H    basis set group =>   2
Atom  26C    basis set group =>   1
Atom  27H    basis set group =>   2
Atom  28H    basis set group =>   2
Atom  29C    basis set group =>   1
Atom  30H    basis set group =>   2
Atom  31H    basis set group =>   2
Atom  32C    basis set group =>   1
Atom  33H    basis set group =>   2
Atom  34C    basis set group =>   1
Atom  35H    basis set group =>   2
Atom  36C    basis set group =>   1
Atom  37H    basis set group =>   2
Atom  38H    basis set group =>   2
Atom  39C    basis set group =>   1
Atom  40H    basis set group =>   2
Atom  41H    basis set group =>   2
Atom  42H    basis set group =>   2
Atom  43C    basis set group =>   1
Atom  44C    basis set group =>   1
Atom  45H    basis set group =>   2
Atom  46H    basis set group =>   2
Atom  47H    basis set group =>   2
Atom  48H    basis set group =>   2
Atom  49C    basis set group =>   1
Atom  50C    basis set group =>   1
Atom  51C    basis set group =>   1
Atom  52H    basis set group =>   2
Atom  53H    basis set group =>   2
Atom  54C    basis set group =>   1
Atom  55C    basis set group =>   1
Atom  56C    basis set group =>   1
Atom  57H    basis set group =>   2
Atom  58H    basis set group =>   2
Atom  59C    basis set group =>   1
Atom  60C    basis set group =>   1
Atom  61H    basis set group =>   2
Atom  62H    basis set group =>   2
Atom  63H    basis set group =>   2
Atom  64H    basis set group =>   2
Atom  65H    basis set group =>   2
Atom  66H    basis set group =>   2
Atom  67H    basis set group =>   2
Atom  68H    basis set group =>   2
Atom  69H    basis set group =>   2
Atom  70H    basis set group =>   2
Atom  71H    basis set group =>   2
Atom  72H    basis set group =>   2

-------------------------------------
AUXILIARY/J BASIS SET IN INPUT FORMAT
-------------------------------------

 # Auxiliary/J basis set for element : H 
 NewAuxJGTO H 
 S 3 
   1      15.6752927000      0.1007184237
   2       3.6063578000      0.3404257499
   3       1.2080016000      0.6491996172
 S 1 
   1       0.4726794000      1.0000000000
 S 1 
   1       0.2018100000      1.0000000000
 P 2 
   1       2.0281365000      0.5596620919
   2       0.5358730000      0.5596620919
 D 1 
   1       2.2165124000      1.0000000000
  end;

 # Auxiliary/J basis set for element : C 
 NewAuxJGTO C 
 S 7 
   1    1861.0916331000      0.0134602335
   2     642.9939764000      0.0299160374
   3     235.1105725000      0.1008649584
   4      90.7028894000      0.2370970548
   5      36.7794552000      0.3924037254
   6      15.6046273000      0.3195862154
   7       6.8907294000      0.0530104441
 S 1 
   1       3.1478850000     -1.0000000000
 S 1 
   1       1.4777287000      1.0000000000
 S 1 
   1       0.7076466000      1.0000000000
 S 1 
   1       0.3430122000      1.0000000000
 S 1 
   1       0.1669453000      1.0000000000
 P 2 
   1      13.5472892000     -0.6769313712
   2       5.4669419000     -0.3779500978
 P 1 
   1       2.1751721000      1.0000000000
 P 1 
   1       0.8582194000      1.0000000000
 P 1 
   1       0.3376720000      1.0000000000
 D 2 
   1       5.9287253000     -0.3533329857
   2       1.9809209000     -0.7456525731
 D 1 
   1       0.8055417000     -1.0000000000
 D 1 
   1       0.3531244000     -1.0000000000
 F 2 
   1       1.6755626000      0.6311076882
   2       0.5997536000      0.4968166032
 G 1 
   1       1.0024600000     -1.0000000000
  end;

 # Auxiliary/J basis set for element : O 
 NewAuxJGTO O 
 S 7 
   1    2876.8216605000      0.0168151159
   2    1004.7443032000      0.0340137548
   3     369.7579954000      0.1194951309
   4     142.9442404000      0.2664627624
   5      57.8366425000      0.4202764046
   6      24.3864983000      0.2765077335
   7      10.6622662000      0.0057008815
 S 1 
   1       4.8070437000     -1.0000000000
 S 1 
   1       2.2210770000      1.0000000000
 S 1 
   1       1.0447795000      1.0000000000
 S 1 
   1       0.4968425000      1.0000000000
 S 1 
   1       0.2371384000      1.0000000000
 P 2 
   1      64.2613382000     -0.2731534179
   2      16.3006076000     -0.8168011598
 P 1 
   1       4.3550542000      1.0000000000
 P 1 
   1       1.2019554000      1.0000000000
 P 1 
   1       0.3354196000      1.0000000000
 D 2 
   1       9.2146611000     -0.4661230638
   2       2.8435251000     -0.6600908911
 D 1 
   1       0.9955759000     -1.0000000000
 D 1 
   1       0.3649441000     -1.0000000000
 F 2 
   1       2.6420115000      0.5931563945
   2       0.7345613000      0.5931563945
 G 1 
   1       1.3931000000     -1.0000000000
  end;


Checking for AutoStart:
The File: inpS.gbw exists
Trying to determine its content:
     ... Fine, the file contains calculation information
     ... Fine, the calculation information was read
     ... Fine, the file contains a basis set
     ... Fine, the basis set was read
     ... Fine, the file contains a geometry
     ... Fine, the geometry was read
     ... Fine, the file contains a set of orbitals
     ... Fine, the orbitals can be read
     => possible old guess file was deleted
     => GBW file was renamed to GES file
     => GES file is set as startup file
     => Guess is set to MORead
     ... now leaving AutoStart



           ************************************************************
           *        Program running with 4 parallel MPI-processes     *
           *              working on a common directory               *
           ************************************************************
------------------------------------------------------------------------------
                             ORCA STARTUP CALCULATIONS
                           -- RI-GTO INTEGRALS CHOSEN --
------------------------------------------------------------------------------
------------------------------------------------------------------------------
                   ___                                                        
                  /   \      - P O W E R E D   B Y -                         
                 /     \                                                     
                 |  |  |   _    _      __       _____    __    __             
                 |  |  |  | |  | |    /  \     |  _  \  |  |  /  |          
                  \  \/   | |  | |   /    \    | | | |  |  | /  /          
                 / \  \   | |__| |  /  /\  \   | |_| |  |  |/  /          
                |  |  |   |  __  | /  /__\  \  |    /   |      \           
                |  |  |   | |  | | |   __   |  |    \   |  |\   \          
                \     /   | |  | | |  |  |  |  | |\  \  |  | \   \       
                 \___/    |_|  |_| |__|  |__|  |_| \__\ |__|  \__/        
                                                                              
                      - O R C A' S   B I G   F R I E N D -                    
                                      &                                       
                       - I N T E G R A L  F E E D E R -                       
                                                                              
 v1 FN, 2020, v2 2021, v3 2022-2024                                           
------------------------------------------------------------------------------


----------------------
SHARK INTEGRAL PACKAGE
----------------------

Number of atoms                             ...     73
Number of basis functions                   ...    626
Number of shells                            ...    306
Maximum angular momentum                    ...      2
Integral batch strategy                     ... SHARK/LIBINT Hybrid
RI-J (if used) integral strategy            ... SPLIT-RIJ (Revised 2003 algorithm where possible)
Printlevel                                  ...      1
Contraction scheme used                     ... SEGMENTED contraction
Prescreening option                         ... SCHWARTZ
   Thresh                                   ... 3.000e-11
   Tcut                                     ... 1.000e-12
   Tpresel                                  ... 1.000e-12 
Coulomb Range Separation                    ... NOT USED
Exchange Range Separation                   ... Long Range
   Mu parameter                             ... 3.000e-01
   Scaling (regular/separated)              ... 1.670e-01 8.330e-01
Multipole approximations                    ... NOT USED
Finite Nucleus Model                        ... NOT USED
CABS basis                                  ... NOT available
Auxiliary Coulomb fitting basis             ... AVAILABLE
   # of basis functions in Aux-J            ...   1905
   # of shells in Aux-J                     ...    655
   Maximum angular momentum in Aux-J        ...      4
Auxiliary J/K fitting basis                 ... NOT available
Auxiliary Correlation fitting basis         ... NOT available
Auxiliary 'external' fitting basis          ... NOT available

Checking pre-screening integrals            ... done (  0.0 sec) Dimension = 306
Check shell pair data                       ... done (  0.0 sec)
Shell pair information
Shell pair cut-off parameter TPreSel        ...   1.0e-12
Total number of shell pairs                 ...     46971
Shell pairs after pre-screening             ...     27180
Total number of primitive shell pairs       ...    162105
Primitive shell pairs kept                  ...     60198
          la=0 lb=0:   9499 shell pairs
          la=1 lb=0:  10421 shell pairs
          la=1 lb=1:   2886 shell pairs
          la=2 lb=0:   2723 shell pairs
          la=2 lb=1:   1458 shell pairs
          la=2 lb=2:    193 shell pairs

Calculating one electron integrals          ... done (  0.1 sec)
Calculating RI/J V-Matrix + Cholesky decomp.... done (  0.2 sec)
Calculating Nuclear repulsion               ... done (  0.0 sec) ENN=   2768.200775201832 Eh

Diagonalization of the overlap matrix:
Smallest eigenvalue                        ... 4.422e-04
Time for diagonalization                   ...    0.044 sec
Threshold for overlap eigenvalues          ... 1.000e-07
Number of eigenvalues below threshold      ... 0
Time for construction of square roots      ...    0.024 sec
Total time needed                          ...    0.071 sec

-------------------
DFT GRID GENERATION
-------------------

General Integration Accuracy     IntAcc      ... 4.388
Radial Grid Type                 RadialGrid  ... OptM3 with GC (2021)
Angular Grid (max. ang.)         AngularGrid ... 4 (Lebedev-302)
Angular grid pruning method      GridPruning ... 4 (adaptive)
Weight generation scheme         WeightScheme... mBecke (2022)
Basis function cutoff            BFCut       ... 1.0000e-11
Integration weight cutoff        WCut        ... 1.0000e-14
Partially contracted basis set               ... off
Rotationally invariant grid construction     ... off
Angular grids for H and He will be reduced by one unit

Total number of grid points                  ...   309853
Total number of batches                      ...     4878
Average number of points per batch           ...       63
Average number of grid points per atom       ...     4245

--------------------
COSX GRID GENERATION
--------------------

GRIDX 1
-------
General Integration Accuracy     IntAcc      ... 3.816
Radial Grid Type                 RadialGrid  ... OptM3 with GC (2021)
Angular Grid (max. ang.)         AngularGrid ... 1 (Lebedev-50)
Angular grid pruning method      GridPruning ... 4 (adaptive)
Weight generation scheme         WeightScheme... mBecke (2022)
Basis function cutoff            BFCut       ... 1.0000e-11
Integration weight cutoff        WCut        ... 1.0000e-14
Partially contracted basis set               ... on
Rotationally invariant grid construction     ... off
Angular grids for H and He will be reduced by one unit

Total number of grid points                  ...    39429
Total number of batches                      ...      352
Average number of points per batch           ...      112
Average number of grid points per atom       ...      540
UseSFitting                                  ... on

GRIDX 2
-------
General Integration Accuracy     IntAcc      ... 4.020
Radial Grid Type                 RadialGrid  ... OptM3 with GC (2021)
Angular Grid (max. ang.)         AngularGrid ... 2 (Lebedev-110)
Angular grid pruning method      GridPruning ... 4 (adaptive)
Weight generation scheme         WeightScheme... mBecke (2022)
Basis function cutoff            BFCut       ... 1.0000e-11
Integration weight cutoff        WCut        ... 1.0000e-14
Partially contracted basis set               ... on
Rotationally invariant grid construction     ... off
Angular grids for H and He will be reduced by one unit

Total number of grid points                  ...    81428
Total number of batches                      ...      677
Average number of points per batch           ...      120
Average number of grid points per atom       ...     1115
UseSFitting                                  ... on

GRIDX 3
-------
General Integration Accuracy     IntAcc      ... 4.338
Radial Grid Type                 RadialGrid  ... OptM3 with GC (2021)
Angular Grid (max. ang.)         AngularGrid ... 3 (Lebedev-194)
Angular grid pruning method      GridPruning ... 4 (adaptive)
Weight generation scheme         WeightScheme... mBecke (2022)
Basis function cutoff            BFCut       ... 1.0000e-11
Integration weight cutoff        WCut        ... 1.0000e-14
Partially contracted basis set               ... on
Rotationally invariant grid construction     ... off
Angular grids for H and He will be reduced by one unit

Total number of grid points                  ...   176255
Total number of batches                      ...     1419
Average number of points per batch           ...      124
Average number of grid points per atom       ...     2414
UseSFitting                                  ... on
Initializing property integral containers    ... done (  0.0 sec)

SHARK setup successfully completed in   4.3 seconds

Maximum memory used throughout the entire STARTUP-calculation: 95.4 MB


           ************************************************************
           *        Program running with 4 parallel MPI-processes     *
           *              working on a common directory               *
           ************************************************************
-------------------------------------------------------------------------------
                                 ORCA GUESS
                   Start orbitals & Density for SCF / CASSCF
-------------------------------------------------------------------------------

------------
SCF SETTINGS
------------
Hamiltonian:
 Density Functional     Method          .... DFT(GTOs)
 Exchange Functional    Exchange        .... WB97X-V
 Correlation Functional Correlation     .... WB97X-V
 Gradients option       PostSCFGGA      .... off
 Hybrid DFT is turned on
   Fraction HF Exchange ScalHFX         ....  0.167000
   Scaling of DF-GGA-X  ScalDFX         ....  0.000000
   Scaling of DF-GGA-C  ScalDFC         ....  1.000000
   Scaling of DF-LDA-C  ScalLDAC        ....  1.000000
   Perturbative correction              ....  0.000000
 Long-range corrected/Screened/Range-Separated Hybrid DFT is turned on
   Amount of maximum screened exact exchange              ....  0.833000
   Range separation parameter mu (erf(mu*r12)/r12)        ....  0.300000
 RI-approximation to the Coulomb term is turned on
   Number of AuxJ basis functions       .... 1905
   RIJ-COSX (HFX calculated with COS-X)).... on


General Settings:
 Integral files         IntName         .... inpS
 Hartree-Fock type      HFTyp           .... RHF
 Total Charge           Charge          ....    0
 Multiplicity           Mult            ....    1
 Number of Electrons    NEL             ....  220
 Basis Dimension        Dim             ....  626
 Nuclear Repulsion      ENuc            ....   2768.2007752018 Eh

Convergence Acceleration:
 AO-DIIS                CNVDIIS         .... on
   Start iteration      DIISMaxIt       ....    12
   Startup error        DIISStart       ....  0.200000
   # of expansion vecs  DIISMaxEq       ....     5
   Bias factor          DIISBfac        ....   1.050
   Max. coefficient     DIISMaxC        ....  10.000
 MO-DIIS                CNVKDIIS        .... off
 Trust-Rad. Augm. Hess. CNVTRAH         .... auto
   Auto Start mean grad. ratio tolernc. ....  1.125000
   Auto Start start iteration           ....     1
   Auto Start num. interpolation iter.  ....    10
   Max. Number of Micro iterations      ....    24
   Max. Number of Macro iterations      .... Maxiter - #DIIS iter
   Number of Davidson start vectors     ....     2
   Converg. threshold    (grad. norm)   ....   1.000e-04
   Grad. Scal. Fac. for Micro threshold ....   0.100
   Minimum threshold for Micro iter.    ....   1.000e-02
   NR start threshold (gradient norm)   ....   1.000e-04
   Initial trust radius                 ....   0.400
   Minimum AH scaling param. (alpha)    ....   1.000
   Maximum AH scaling param. (alpha)    .... 1000.000
   Quad. conv. algorithm                .... NR
   White noise on init. David. guess    .... on
   Maximum white noise                  ....   0.010
   Pseudo random numbers                .... off
   Inactive MOs                         .... canonical
   Orbital update algorithm             .... Taylor
   Preconditioner                       .... Diag
   Full preconditioner red. dimension   ....   250
 SOSCF                  CNVSOSCF        .... off
 Level Shifting         CNVShift        .... on
   Level shift para.    LevelShift      ....    0.2500
   Turn off err/grad.   ShiftErr        ....    0.0010
 Zerner damping         CNVZerner       .... off
 Static damping         CNVDamp         .... on
   Fraction old density DampFac         ....    0.7000
   Max. Damping (<1)    DampMax         ....    0.9800
   Min. Damping (>=0)   DampMin         ....    0.0000
   Turn off err/grad.   DampErr         ....    0.1000

SCF Procedure:
 Maximum # iterations   MaxIter         ....   125
 SCF integral mode      SCFMode         .... Direct
   Integral package                     .... SHARK and LIBINT hybrid scheme
 Reset frequency        DirectResetFreq ....    20
 Integral Threshold     Thresh          ....  3.000e-11 Eh
 Primitive CutOff       TCut            ....  1.000e-12 Eh

Convergence Tolerance:
 Convergence Check Mode ConvCheckMode   .... Total+1el-Energy
 Convergence forced     ConvForced      .... 0
 Energy Change          TolE            ....  1.000e-07 Eh
 1-El. energy change                    ....  1.000e-04 Eh
 DIIS Error             TolErr          ....  1.000e-07

---------------------
INITIAL GUESS: MOREAD
---------------------
Guess MOs are being read from file: inpS.ges
Input Geometry matches current geometry (good)
Input basis set matches current basis set (good)
Occupation numbers will be reassigned to an Aufbau configuration
MOs were renormalized
MOs were reorthogonalized (Cholesky)
                      ------------------
                      INITIAL GUESS DONE (   0.2 sec)
                      ------------------
             **** ENERGY FILE WAS UPDATED (inpS.en.tmp) ****
Finished Guess after   0.3 sec
Maximum memory used throughout the entire GUESS-calculation: 52.1 MB


           ************************************************************
           *        Program running with 4 parallel MPI-processes     *
           *              working on a common directory               *
           ************************************************************

-------------------------------------------------------------------------------------------
                                      ORCA LEAN-SCF
                              memory conserving SCF solver
-------------------------------------------------------------------------------------------

--------------------
CPCM SOLVATION MODEL
--------------------
CPCM parameters:
  Epsilon                                         ...       4.8030
  Refrac                                          ...       1.4459
  Rsolv                                           ...       1.3000
  Surface type                                    ... GAUSSIAN VDW
  Discretization scheme                           ... Constant charge density
    Threshold for H atoms                         ...       5.0000 (charges/Ang^2)
    Threshold for non-H atoms                     ...       5.0000 (charges/Ang^2)
  Epsilon function type                           ...         CPCM
Solvent:                                          ... CHLOROFORM
Radii:
  Scheme                                          ... Element-dependent radii
  Radius for C  used is    3.8550 Bohr (=   2.0400 Ang.)
  Radius for H  used is    2.4944 Bohr (=   1.3200 Ang.)
  Radius for O  used is    3.4469 Bohr (=   1.8240 Ang.)
Calculating surface                               ...        done! (  0.0s)
Cavity surface points                             ...         5351
Cavity Volume                                     ...    3608.8253
Cavity Surface-area                               ...    1783.9536
Calculating surface distance matrix               ...        done! (  0.2s)
Performing Cholesky decomposition & store         ...        done! (  0.9s)
Overall time for CPCM initialization              ...                 1.1s

----------------------------------------D-I-I-S--------------------------------------------
Iteration    Energy (Eh)           Delta-E    RMSDP     MaxDP     DIISErr   Damp  Time(sec)
-------------------------------------------------------------------------------------------
               ***  Starting incremental Fock matrix formation  ***
    1    -1168.3618098038418793     0.00e+00  3.18e-08  2.12e-06  4.25e-06  0.700  23.7

  HOMO= 109 E= -7.960 eV LUMO=  8.067 eV gap=  16.026 eV
    2    -1168.3618097946978196     9.14e-09  2.78e-08  1.36e-06  2.49e-06  0.700   4.7
                 **** Energy Check signals convergence ****

  HOMO= 109 E= -7.960 eV LUMO=  8.067 eV gap=  16.026 eV

               *****************************************************
               *                     SUCCESS                       *
               *           SCF CONVERGED AFTER   2 CYCLES          *
               *****************************************************

Recomputing exchange energy using gridx3       ... done (   40.330 sec)
Old exchange energy                            :    -56.782960647 Eh
New exchange energy                            :    -56.783030194 Eh
Exchange energy change after final integration :     -0.000069547 Eh
Total energy after final integration           :  -1168.361879341 Eh
             **** ENERGY FILE WAS UPDATED (inpS.en.tmp) ****

----------------
TOTAL SCF ENERGY
----------------

Total Energy       :      -1168.36187934132431 Eh          -31792.74305 eV

Components:
Nuclear Repulsion  :       2768.20077520183213 Eh           75326.57262 eV
Electronic Energy  :      -3936.55337973293763 Eh         -107119.06329 eV
One Electron Energy:      -7081.41868833905301 Eh         -192695.19894 eV
Two Electron Energy:       3144.86530860611538 Eh           85576.13565 eV
CPCM Dielectric    :         -0.00920526359223 Eh              -0.25049 eV

Virial components:
Potential Energy   :      -2321.66318447194044 Eh          -63175.66704 eV
Kinetic Energy     :       1153.30130513061636 Eh           31382.92399 eV
Virial Ratio       :          2.01305866397940

DFT components:
N(Alpha)           :      110.000153556450 electrons
N(Beta)            :      110.000153556450 electrons
N(Total)           :      220.000307112900 electrons
E(X)               :     -111.770352646613 Eh       
E(C)               :       -8.952743040951 Eh       
E(XC)              :     -120.723095687564 Eh       

CPCM Solvation Model Properties:
Surface-charge          :         -0.04204710142554
Corrected charge        :         -0.00000000000000
Outlying charge corr.   :          0.00006165582028 Eh               0.00168 eV
Free-energy (cav+disp)  :  This term is not implemented in the current solvation scheme

---------------
SCF CONVERGENCE
---------------

  Last Energy change         ...   -9.1441e-09  Tolerance :   1.0000e-07
  Last MAX-Density change    ...    1.3612e-06  Tolerance :   1.0000e-05
  Last RMS-Density change    ...    2.7761e-08  Tolerance :   1.0000e-06
  Last DIIS Error            ...    2.4855e-06  Tolerance :   1.0000e-07


----------------
ORBITAL ENERGIES
----------------

  NO   OCC          E(Eh)            E(eV) 
   0   2.0000     -19.212443      -522.7971 
   1   2.0000     -10.330347      -281.1030 
   2   2.0000     -10.294316      -280.1226 
   3   2.0000     -10.292038      -280.0606 
   4   2.0000     -10.287612      -279.9402 
   5   2.0000     -10.286981      -279.9230 
   6   2.0000     -10.285467      -279.8818 
   7   2.0000     -10.284220      -279.8479 
   8   2.0000     -10.283324      -279.8235 
   9   2.0000     -10.282955      -279.8134 
  10   2.0000     -10.282290      -279.7953 
  11   2.0000     -10.281328      -279.7691 
  12   2.0000     -10.279211      -279.7115 
  13   2.0000     -10.279022      -279.7064 
  14   2.0000     -10.278137      -279.6823 
  15   2.0000     -10.277987      -279.6782 
  16   2.0000     -10.277423      -279.6629 
  17   2.0000     -10.277091      -279.6539 
  18   2.0000     -10.273196      -279.5479 
  19   2.0000     -10.272780      -279.5366 
  20   2.0000     -10.272138      -279.5191 
  21   2.0000     -10.272037      -279.5163 
  22   2.0000     -10.271869      -279.5118 
  23   2.0000     -10.271588      -279.5041 
  24   2.0000     -10.268511      -279.4204 
  25   2.0000     -10.268452      -279.4188 
  26   2.0000     -10.268259      -279.4135 
  27   2.0000     -10.267601      -279.3956 
  28   2.0000     -10.266599      -279.3684 
  29   2.0000      -1.130995       -30.7759 
  30   2.0000      -0.999015       -27.1846 
  31   2.0000      -0.977298       -26.5936 
  32   2.0000      -0.957507       -26.0551 
  33   2.0000      -0.943223       -25.6664 
  34   2.0000      -0.917917       -24.9778 
  35   2.0000      -0.911389       -24.8001 
  36   2.0000      -0.890203       -24.2237 
  37   2.0000      -0.888162       -24.1681 
  38   2.0000      -0.872220       -23.7343 
  39   2.0000      -0.853938       -23.2368 
  40   2.0000      -0.834620       -22.7112 
  41   2.0000      -0.823471       -22.4078 
  42   2.0000      -0.810311       -22.0497 
  43   2.0000      -0.800136       -21.7728 
  44   2.0000      -0.797192       -21.6927 
  45   2.0000      -0.792107       -21.5543 
  46   2.0000      -0.769694       -20.9444 
  47   2.0000      -0.760393       -20.6913 
  48   2.0000      -0.728915       -19.8348 
  49   2.0000      -0.713273       -19.4092 
  50   2.0000      -0.705244       -19.1907 
  51   2.0000      -0.698268       -19.0008 
  52   2.0000      -0.689713       -18.7681 
  53   2.0000      -0.662925       -18.0391 
  54   2.0000      -0.647006       -17.6059 
  55   2.0000      -0.632432       -17.2093 
  56   2.0000      -0.625495       -17.0206 
  57   2.0000      -0.620023       -16.8717 
  58   2.0000      -0.607509       -16.5312 
  59   2.0000      -0.603231       -16.4147 
  60   2.0000      -0.594076       -16.1656 
  61   2.0000      -0.585817       -15.9409 
  62   2.0000      -0.580943       -15.8083 
  63   2.0000      -0.569750       -15.5037 
  64   2.0000      -0.565716       -15.3939 
  65   2.0000      -0.556178       -15.1344 
  66   2.0000      -0.554663       -15.0932 
  67   2.0000      -0.552496       -15.0342 
  68   2.0000      -0.549788       -14.9605 
  69   2.0000      -0.545643       -14.8477 
  70   2.0000      -0.538807       -14.6617 
  71   2.0000      -0.530503       -14.4357 
  72   2.0000      -0.528565       -14.3830 
  73   2.0000      -0.523139       -14.2353 
  74   2.0000      -0.518742       -14.1157 
  75   2.0000      -0.512242       -13.9388 
  76   2.0000      -0.504579       -13.7303 
  77   2.0000      -0.504149       -13.7186 
  78   2.0000      -0.500688       -13.6244 
  79   2.0000      -0.494543       -13.4572 
  80   2.0000      -0.489652       -13.3241 
  81   2.0000      -0.487263       -13.2591 
  82   2.0000      -0.484039       -13.1714 
  83   2.0000      -0.477264       -12.9870 
  84   2.0000      -0.468649       -12.7526 
  85   2.0000      -0.463419       -12.6103 
  86   2.0000      -0.462654       -12.5894 
  87   2.0000      -0.460381       -12.5276 
  88   2.0000      -0.454423       -12.3655 
  89   2.0000      -0.452091       -12.3020 
  90   2.0000      -0.447940       -12.1891 
  91   2.0000      -0.444563       -12.0972 
  92   2.0000      -0.436438       -11.8761 
  93   2.0000      -0.434966       -11.8360 
  94   2.0000      -0.429270       -11.6810 
  95   2.0000      -0.426786       -11.6134 
  96   2.0000      -0.422692       -11.5020 
  97   2.0000      -0.422495       -11.4967 
  98   2.0000      -0.417506       -11.3609 
  99   2.0000      -0.413249       -11.2451 
 100   2.0000      -0.410888       -11.1808 
 101   2.0000      -0.408469       -11.1150 
 102   2.0000      -0.405808       -11.0426 
 103   2.0000      -0.404027       -10.9941 
 104   2.0000      -0.392740       -10.6870 
 105   2.0000      -0.383027       -10.4227 
 106   2.0000      -0.372786       -10.1440 
 107   2.0000      -0.355943        -9.6857 
 108   2.0000      -0.335448        -9.1280 
 109   2.0000      -0.292518        -7.9598 
 110   0.0000       0.046441         1.2637 
 111   0.0000       0.099415         2.7052 
 112   0.0000       0.112696         3.0666 
 113   0.0000       0.131520         3.5788 
 114   0.0000       0.140817         3.8318 
 115   0.0000       0.145038         3.9467 
 116   0.0000       0.151244         4.1155 
 117   0.0000       0.153868         4.1870 
 118   0.0000       0.160884         4.3779 
 119   0.0000       0.164968         4.4890 
 120   0.0000       0.167707         4.5635 
*Only the first 10 virtual orbitals were printed.

                    ********************************
                    * MULLIKEN POPULATION ANALYSIS *
                    ********************************

-----------------------
MULLIKEN ATOMIC CHARGES
-----------------------
   0 C :   -0.174150
   1 C :    0.142504
   2 C :    0.068419
   3 H :    0.017150
   4 H :    0.030764
   5 C :   -0.169697
   6 C :    0.094811
   7 C :    0.023799
   8 H :    0.013768
   9 H :    0.027413
  10 H :    0.019991
  11 H :    0.022651
  12 O :   -0.359126
  13 H :    0.018223
  14 C :   -0.009214
  15 C :   -0.047247
  16 H :    0.035497
  17 H :    0.029399
  18 C :   -0.061851
  19 H :   -0.001929
  20 C :   -0.114078
  21 H :    0.003757
  22 C :    0.114434
  23 C :   -0.002412
  24 H :    0.014320
  25 H :    0.016665
  26 C :    0.107196
  27 H :    0.013099
  28 H :    0.015701
  29 C :   -0.404564
  30 H :    0.008944
  31 H :   -0.001982
  32 C :   -0.045498
  33 H :    0.011621
  34 C :    0.127320
  35 H :    0.178997
  36 C :    0.041398
  37 H :    0.007529
  38 H :    0.015441
  39 C :   -0.051748
  40 H :    0.014143
  41 H :    0.011384
  42 H :   -0.009825
  43 C :   -0.004585
  44 C :    0.090662
  45 H :    0.019328
  46 H :    0.025029
  47 H :    0.018981
  48 H :    0.002066
  49 C :    0.061471
  50 C :   -0.082324
  51 C :   -0.072900
  52 H :    0.013492
  53 H :    0.004460
  54 C :   -0.049247
  55 C :    0.041622
  56 C :   -0.187733
  57 H :    0.011772
  58 H :    0.013003
  59 C :    0.039074
  60 C :    0.023703
  61 H :    0.025034
  62 H :    0.018280
  63 H :    0.023104
  64 H :    0.015207
  65 H :    0.018830
  66 H :    0.018925
  67 H :    0.016595
  68 H :    0.018651
  69 H :    0.017816
  70 H :    0.028611
  71 H :    0.018402
  72 H :    0.019658
Sum of atomic charges:    0.0000000

--------------------------------
MULLIKEN REDUCED ORBITAL CHARGES
--------------------------------
  0 C s       :     3.102476  s :     3.102476
      pz      :     1.015643  p :     3.028663
      px      :     1.005013
      py      :     1.008007
      dz2     :     0.005007  d :     0.043010
      dxz     :     0.006345
      dyz     :     0.005939
      dx2y2   :     0.014091
      dxy     :     0.011627

  1 C s       :     2.939241  s :     2.939241
      pz      :     0.989795  p :     2.883867
      px      :     0.929236
      py      :     0.964835
      dz2     :     0.008032  d :     0.034388
      dxz     :     0.006541
      dyz     :     0.003869
      dx2y2   :     0.009952
      dxy     :     0.005995

  2 C s       :     3.085141  s :     3.085141
      pz      :     0.737262  p :     2.775777
      px      :     1.047967
      py      :     0.990548
      dz2     :     0.022872  d :     0.070664
      dxz     :     0.011323
      dyz     :     0.017613
      dx2y2   :     0.011719
      dxy     :     0.007137

  3 H s       :     0.960192  s :     0.960192
      pz      :     0.004942  p :     0.022658
      px      :     0.003768
      py      :     0.013948

  4 H s       :     0.945924  s :     0.945924
      pz      :     0.014321  p :     0.023312
      px      :     0.004546
      py      :     0.004445

  5 C s       :     3.108643  s :     3.108643
      pz      :     0.975716  p :     3.016262
      px      :     0.985689
      py      :     1.054857
      dz2     :     0.009357  d :     0.044793
      dxz     :     0.005514
      dyz     :     0.008762
      dx2y2   :     0.011127
      dxy     :     0.010033

  6 C s       :     2.955681  s :     2.955681
      pz      :     1.003422  p :     2.914059
      px      :     0.946569
      py      :     0.964067
      dz2     :     0.009023  d :     0.035450
      dxz     :     0.006132
      dyz     :     0.004141
      dx2y2   :     0.008888
      dxy     :     0.007265

  7 C s       :     3.002753  s :     3.002753
      pz      :     0.985656  p :     2.938664
      px      :     0.980927
      py      :     0.972081
      dz2     :     0.007693  d :     0.034784
      dxz     :     0.006101
      dyz     :     0.004446
      dx2y2   :     0.008647
      dxy     :     0.007898

  8 H s       :     0.963400  s :     0.963400
      pz      :     0.005579  p :     0.022832
      px      :     0.003826
      py      :     0.013427

  9 H s       :     0.949185  s :     0.949185
      pz      :     0.014464  p :     0.023402
      px      :     0.004521
      py      :     0.004417

 10 H s       :     0.957186  s :     0.957186
      pz      :     0.014068  p :     0.022823
      px      :     0.004576
      py      :     0.004179

 11 H s       :     0.954722  s :     0.954722
      pz      :     0.007983  p :     0.022627
      px      :     0.007266
      py      :     0.007378

 12 O s       :     3.713541  s :     3.713541
      pz      :     1.403882  p :     4.633443
      px      :     1.347930
      py      :     1.881631
      dz2     :     0.005299  d :     0.012142
      dxz     :     0.001417
      dyz     :     0.001651
      dx2y2   :     0.003202
      dxy     :     0.000572

 13 H s       :     0.961428  s :     0.961428
      pz      :     0.001942  p :     0.020349
      px      :     0.014198
      py      :     0.004209

 14 C s       :     3.194407  s :     3.194407
      pz      :     0.992741  p :     2.778458
      px      :     0.870646
      py      :     0.915071
      dz2     :     0.004023  d :     0.036349
      dxz     :     0.007458
      dyz     :     0.003341
      dx2y2   :     0.011017
      dxy     :     0.010511

 15 C s       :     3.124706  s :     3.124706
      pz      :     1.008170  p :     2.896283
      px      :     0.982157
      py      :     0.905955
      dz2     :     0.005207  d :     0.026259
      dxz     :     0.004124
      dyz     :     0.004395
      dx2y2   :     0.006594
      dxy     :     0.005938

 16 H s       :     0.939964  s :     0.939964
      pz      :     0.006901  p :     0.024539
      px      :     0.008346
      py      :     0.009293

 17 H s       :     0.945990  s :     0.945990
      pz      :     0.004758  p :     0.024611
      px      :     0.004452
      py      :     0.015401

 18 C s       :     3.199600  s :     3.199600
      pz      :     1.028848  p :     2.827081
      px      :     0.881445
      py      :     0.916788
      dz2     :     0.003433  d :     0.035169
      dxz     :     0.006567
      dyz     :     0.003321
      dx2y2   :     0.012093
      dxy     :     0.009755

 19 H s       :     0.977611  s :     0.977611
      pz      :     0.004603  p :     0.024317
      px      :     0.004963
      py      :     0.014751

 20 C s       :     3.100495  s :     3.100495
      pz      :     0.959341  p :     2.969455
      px      :     0.986668
      py      :     1.023446
      dz2     :     0.004154  d :     0.044128
      dxz     :     0.006966
      dyz     :     0.007162
      dx2y2   :     0.014362
      dxy     :     0.011484

 21 H s       :     0.971659  s :     0.971659
      pz      :     0.004563  p :     0.024584
      px      :     0.004471
      py      :     0.015549

 22 C s       :     2.926520  s :     2.926520
      pz      :     0.999369  p :     2.923511
      px      :     0.976304
      py      :     0.947838
      dz2     :     0.009296  d :     0.035535
      dxz     :     0.004365
      dyz     :     0.005966
      dx2y2   :     0.009873
      dxy     :     0.006034

 23 C s       :     3.001065  s :     3.001065
      pz      :     1.013430  p :     2.964850
      px      :     0.964949
      py      :     0.986471
      dz2     :     0.010000  d :     0.036496
      dxz     :     0.007513
      dyz     :     0.002962
      dx2y2   :     0.010348
      dxy     :     0.005673

 24 H s       :     0.962478  s :     0.962478
      pz      :     0.005026  p :     0.023202
      px      :     0.013555
      py      :     0.004621

 25 H s       :     0.960073  s :     0.960073
      pz      :     0.013575  p :     0.023261
      px      :     0.004685
      py      :     0.005002

 26 C s       :     2.969078  s :     2.969078
      pz      :     0.968592  p :     2.888415
      px      :     0.974130
      py      :     0.945693
      dz2     :     0.006976  d :     0.035311
      dxz     :     0.006541
      dyz     :     0.005779
      dx2y2   :     0.008661
      dxy     :     0.007354

 27 H s       :     0.964050  s :     0.964050
      pz      :     0.013708  p :     0.022850
      px      :     0.004225
      py      :     0.004917

 28 H s       :     0.961657  s :     0.961657
      pz      :     0.004527  p :     0.022642
      px      :     0.003802
      py      :     0.014312

 29 C s       :     3.253592  s :     3.253592
      pz      :     1.045283  p :     3.100062
      px      :     0.995889
      py      :     1.058890
      dz2     :     0.011381  d :     0.050909
      dxz     :     0.010631
      dyz     :     0.009542
      dx2y2   :     0.010893
      dxy     :     0.008461

 30 H s       :     0.967973  s :     0.967973
      pz      :     0.009040  p :     0.023083
      px      :     0.007915
      py      :     0.006128

 31 H s       :     0.979432  s :     0.979432
      pz      :     0.013129  p :     0.022551
      px      :     0.004708
      py      :     0.004714

 32 C s       :     3.034551  s :     3.034551
      pz      :     0.989785  p :     2.967232
      px      :     0.945465
      py      :     1.031982
      dz2     :     0.008351  d :     0.043715
      dxz     :     0.007264
      dyz     :     0.008234
      dx2y2   :     0.011152
      dxy     :     0.008713

 33 H s       :     0.967105  s :     0.967105
      pz      :     0.012266  p :     0.021274
      px      :     0.003964
      py      :     0.005044

 34 C s       :     2.891387  s :     2.891387
      pz      :     0.988548  p :     2.946486
      px      :     0.975096
      py      :     0.982842
      dz2     :     0.005519  d :     0.034806
      dxz     :     0.005761
      dyz     :     0.008209
      dx2y2   :     0.008893
      dxy     :     0.006423

 35 H s       :     0.752214  s :     0.752214
[...]
 Total          141.831          174.442          191.226  iso=     169.166

 Orientation: 
  X           0.2320157   -0.5803808    0.7805939
  Y          -0.1650021   -0.8143452   -0.5564317
  Z           0.9586152    0.0003013   -0.2847049

 --------------
 Nucleus  39C :
 --------------

Diamagnetic contribution to the shielding tensor (ppm) : 
           264.722          3.854        -7.057
             4.444        258.309         4.960
            -5.448          4.392       264.778

Paramagnetic contribution to the shielding tensor (ppm): 
           -99.557         -1.244         9.877
             2.036       -128.144        -0.165
            12.784         -3.265      -138.218

Total shielding tensor (ppm): 
           165.166          2.610         2.821
             6.480        130.165         4.794
             7.336          1.126       126.561


 Diagonalized sT*s matrix:
 
 sDSO           260.664          262.921          264.224  iso=     262.603
 sPSO          -135.907         -132.267          -97.745  iso=    -121.973
        ---------------  ---------------  ---------------
 Total          124.758          130.655          166.479  iso=     140.630

 Orientation: 
  X          -0.0595288   -0.1700286   -0.9836395
  Y          -0.4449591    0.8865964   -0.1263256
  Z           0.8935702    0.4301593   -0.1284338

 --------------
 Nucleus  43C :
 --------------

Diamagnetic contribution to the shielding tensor (ppm) : 
           257.976         -1.584        -5.519
            -2.030        246.428         9.311
            -5.915          2.255       253.260

Paramagnetic contribution to the shielding tensor (ppm): 
           -93.277         -1.264        -2.838
             4.712        -89.756        -7.391
            -1.757          1.708       -91.576

Total shielding tensor (ppm): 
           164.700         -2.849        -8.358
             2.682        156.672         1.920
            -7.671          3.963       161.684


 Diagonalized sT*s matrix:
 
 sDSO           244.867          250.049          262.749  iso=     252.555
 sPSO           -91.440          -92.024          -91.145  iso=     -91.536
        ---------------  ---------------  ---------------
 Total          153.427          158.025          171.604  iso=     161.019

 Orientation: 
  X          -0.4622717    0.4727096   -0.7502336
  Y           0.5878348    0.7968021    0.1398452
  Z          -0.6638939    0.3763670    0.6462142

 --------------
 Nucleus  44C :
 --------------

Diamagnetic contribution to the shielding tensor (ppm) : 
           250.230          0.305         0.647
             0.164        254.534        -1.984
            -0.794          1.365       273.744

Paramagnetic contribution to the shielding tensor (ppm): 
           -70.942         -4.518        -2.242
            -2.712        -74.025        -1.788
            -0.333         -5.563       -80.820

Total shielding tensor (ppm): 
           179.289         -4.212        -1.595
            -2.547        180.509        -3.773
            -1.127         -4.198       192.924


 Diagonalized sT*s matrix:
 
 sDSO           253.326          252.744          272.437  iso=     259.503
 sPSO           -77.642          -69.809          -78.335  iso=     -75.262
        ---------------  ---------------  ---------------
 Total          175.684          182.935          194.102  iso=     184.240

 Orientation: 
  X           0.7115431    0.7021821   -0.0254312
  Y           0.6701273   -0.6890542   -0.2759235
  Z           0.2112720   -0.1792894    0.9608431

 --------------
 Nucleus  49C :
 --------------

Diamagnetic contribution to the shielding tensor (ppm) : 
           243.758         -5.829        -2.703
           -14.516        254.399         8.853
            -9.027          5.806       252.489

Paramagnetic contribution to the shielding tensor (ppm): 
           -63.380          3.836        -3.057
            11.703        -71.784        -4.146
             1.868         -1.861       -76.708

Total shielding tensor (ppm): 
           180.378         -1.993        -5.760
            -2.814        182.615         4.708
            -7.159          3.944       175.781


 Diagonalized sT*s matrix:
 
 sDSO           244.911          239.875          265.860  iso=     250.216
 sPSO           -74.131          -60.365          -77.376  iso=     -70.624
        ---------------  ---------------  ---------------
 Total          170.781          179.510          188.484  iso=     179.592

 Orientation: 
  X           0.5102737   -0.6214142    0.5945294
  Y          -0.2018031   -0.7585194   -0.6196159
  Z           0.8360002    0.1961958   -0.5124558

 --------------
 Nucleus  50C :
 --------------

Diamagnetic contribution to the shielding tensor (ppm) : 
           272.949         -2.998        11.703
             5.747        266.547        -4.413
            13.947         -0.891       257.239

Paramagnetic contribution to the shielding tensor (ppm): 
          -181.772        -11.605       -64.645
           -12.939       -298.614       -40.636
           -61.104        -43.775      -127.011

Total shielding tensor (ppm): 
            91.176        -14.603       -52.942
            -7.192        -32.066       -45.049
           -47.156        -44.666       130.229


 Diagonalized sT*s matrix:
 
 sDSO           268.196          277.312          251.227  iso=     265.578
 sPSO          -312.676         -212.802          -81.919  iso=    -202.466
        ---------------  ---------------  ---------------
 Total          -44.479           64.510          169.308  iso=      63.113

 Orientation: 
  X          -0.3260707    0.7979675   -0.5068784
  Y          -0.8822341   -0.4494878   -0.1400849
  Z          -0.3396188    0.4015078    0.8505589

 --------------
 Nucleus  51C :
 --------------

Diamagnetic contribution to the shielding tensor (ppm) : 
           267.543         -3.815        15.724
           -15.127        270.262        14.871
            16.722          3.655       248.965

Paramagnetic contribution to the shielding tensor (ppm): 
          -181.863        -10.836       -67.711
             5.553       -290.389       -57.098
           -55.745        -49.582      -122.944

Total shielding tensor (ppm): 
            85.680        -14.651       -51.987
            -9.574        -20.126       -42.227
           -39.023        -45.927       126.021


 Diagonalized sT*s matrix:
 
 sDSO           271.307          279.215          236.247  iso=     262.257
 sPSO          -306.799         -213.099          -75.297  iso=    -198.398
        ---------------  ---------------  ---------------
 Total          -35.492           66.116          160.950  iso=      63.858

 Orientation: 
  X          -0.3239971    0.8239931   -0.4648239
  Y          -0.8804302   -0.4424242   -0.1705973
  Z          -0.3462203    0.3539720    0.8688126

 --------------
 Nucleus  54C :
 --------------

Diamagnetic contribution to the shielding tensor (ppm) : 
           256.038         -2.596        -1.079
             1.435        258.679         3.402
            -3.388         12.062       244.233

Paramagnetic contribution to the shielding tensor (ppm): 
           -88.133         13.516        -2.964
             1.517       -113.188        -2.817
            -1.998         -9.664       -81.422

Total shielding tensor (ppm): 
           167.905         10.920        -4.043
             2.952        145.491         0.586
            -5.386          2.398       162.811


 Diagonalized sT*s matrix:
 
 sDSO           256.141          248.743          254.067  iso=     252.983
 sPSO          -113.008          -87.489          -82.246  iso=     -94.248
        ---------------  ---------------  ---------------
 Total          143.133          161.253          171.821  iso=     158.736

 Orientation: 
  X          -0.3034323   -0.3663648   -0.8796054
  Y           0.9416385   -0.2565064   -0.2179939
  Z          -0.1457592   -0.8944167    0.4228156

 --------------
 Nucleus  55C :
 --------------

Diamagnetic contribution to the shielding tensor (ppm) : 
           244.495         -1.413        -0.637
            18.569        262.289         3.616
            11.527          5.972       246.644

Paramagnetic contribution to the shielding tensor (ppm): 
           -59.654          2.941        -0.766
           -17.490        -71.115        -1.870
           -12.343         -3.596       -61.455

Total shielding tensor (ppm): 
           184.841          1.528        -1.403
             1.079        191.174         1.747
            -0.817          2.376       185.189


 Diagonalized sT*s matrix:
 
 sDSO           246.749          240.815          265.864  iso=     251.143
 sPSO           -63.554          -54.744          -73.926  iso=     -64.075
        ---------------  ---------------  ---------------
 Total          183.196          186.070          191.938  iso=     187.068

 Orientation: 
  X           0.6817790   -0.7194237   -0.1326913
  Y          -0.2844835   -0.0936226   -0.9540985
  Z           0.6739781    0.6882328   -0.2684941

 --------------
 Nucleus  56C :
 --------------

Diamagnetic contribution to the shielding tensor (ppm) : 
           253.224         -0.521        -1.661
             0.409        230.793        -2.301
             1.992          0.989       243.712

Paramagnetic contribution to the shielding tensor (ppm): 
           -77.888         -6.320         3.367
            -1.854        -67.777         7.536
            -7.300          4.135       -83.221

Total shielding tensor (ppm): 
           175.336         -6.840         1.707
            -1.444        163.016         5.235
            -5.308          5.124       160.491


 Diagonalized sT*s matrix:
 
 sDSO           239.142          238.525          250.061  iso=     242.576
 sPSO           -82.792          -73.302          -72.792  iso=     -76.295
        ---------------  ---------------  ---------------
 Total          156.350          165.223          177.270  iso=     166.281

 Orientation: 
  X          -0.0795707    0.3887862   -0.9178855
  Y          -0.6371779    0.6882956    0.3467759
  Z           0.7665982    0.6124495    0.1929577

 --------------
 Nucleus  59C :
 --------------

Diamagnetic contribution to the shielding tensor (ppm) : 
           249.715          1.261         8.670
             4.509        220.296         4.943
            21.072          3.639       218.903

Paramagnetic contribution to the shielding tensor (ppm): 
           -66.171          0.139         7.318
             2.179        -60.714        -5.653
            -9.134         -6.368       -34.882

Total shielding tensor (ppm): 
           183.544          1.400        15.988
             6.689        159.582        -0.710
            11.938         -2.728       184.021


 Diagonalized sT*s matrix:
 
 sDSO           220.871          218.765          249.278  iso=     229.638
 sPSO           -62.779          -47.524          -51.464  iso=     -53.922
        ---------------  ---------------  ---------------
 Total          158.092          171.241          197.814  iso=     175.716

 Orientation: 
  X          -0.2559510   -0.6651219    0.7014998
  Y           0.9446510   -0.3261591    0.0354224
  Z           0.2052403    0.6717389    0.7117888

 --------------
 Nucleus  60C :
 --------------

Diamagnetic contribution to the shielding tensor (ppm) : 
           247.964          0.441        -2.494
             9.392        235.621        -6.906
           -26.791         -9.790       242.970

Paramagnetic contribution to the shielding tensor (ppm): 
           -71.126          0.992         2.982
            -8.611        -60.456        -1.147
            31.815          4.688       -48.603

Total shielding tensor (ppm): 
           176.837          1.433         0.488
             0.781        175.165        -8.053
             5.024         -5.102       194.366


 Diagonalized sT*s matrix:
 
 sDSO           234.030          249.339          243.185  iso=     242.185
 sPSO           -61.717          -71.956          -46.513  iso=     -60.062
        ---------------  ---------------  ---------------
 Total          172.313          177.383          196.672  iso=     182.123

 Orientation: 
  X          -0.3980563    0.9091837    0.1222136
  Y           0.8646975    0.4163495   -0.2809826
  Z           0.3063484    0.0061692    0.9518995



--------------------------------
CHEMICAL SHIELDING SUMMARY (ppm)
--------------------------------


  Nucleus  Element    Isotropic     Anisotropy
  -------  -------  ------------   ------------
      0       C           61.468        151.834 
      1       C          154.566         12.256 
      2       C          132.371         51.010 
      5       C           50.857        177.623 
      6       C          168.015         31.793 
      7       C          164.908         17.218 
     14       C           71.644        133.215 
     15       C           83.659        119.544 
     18       C           80.166        133.983 
     20       C           52.170        175.802 
     22       C          168.894          7.247 
     23       C          174.092         13.340 
     26       C          158.867         23.660 
     29       C          153.686         17.685 
     32       C          143.208         27.630 
     34       C          174.832         23.917 
     36       C          169.166         33.090 
     39       C          140.630         38.773 
     43       C          161.019         15.878 
     44       C          184.240         14.792 
     49       C          179.592         13.339 
     50       C           63.113        159.292 
     51       C           63.858        145.638 
     54       C          158.736         19.628 
     55       C          187.068          7.305 
     56       C          166.281         16.483 
     59       C          175.716         33.147 
     60       C          182.123         21.824 


NMR shielding tensor and spin rotation calculation done in   1.0 sec 

Maximum memory used throughout the entire PROP-calculation: 51.5 MB

--------------------------------
SUGGESTED CITATIONS FOR THIS RUN
--------------------------------

Below you find a list of papers that are relevant to this ORCA run
We neither can nor want to force you to cite these papers, but we appreciate if you do
You receive ORCA, which is the product of decades of hard work by many enthusiastic individuals, for free
The only thing we kindly ask in return is that you cite our papers,
We deeply appreciate it, if you show your appreciation for ORCA by not just citing the generic ORCA reference.

Please note that relegating all ORCA citations to the supporting information does *not* help us.
SI sections are not indexed - citations you put there will not count into any citation statistics
But we need these citations in order to attract the funding resources that allow us to do what we are doing

Therefore, if you are a happy ORCA user, please consider citing a few of the papers listed below in the main body of your paper

In addition to the list printed below, the program has created the file inpS.bibtex that contains the list in bibtex format
You can import this file easily into all common literature databanks and citation aid programs


List of essential papers. We consider these as the minimum necessary citations

  1. Neese,F.
     Software update: the ORCA program system, version 5.0
     WIRES Comput. Molec. Sci., 2022 12(1)e1606
     doi.org/10.1002/wcms.1606

List of papers to cite with high priority. The work reported in these papers was absolutely
necessary for this run to complete.
Our perspective: the developers of density functionals and basis sets usually get cited in chemistry papers
Good! But without the algorithms to do something with them, the functionals or basis sets would not do anything.
Hence, in our opinion, the algorithm design and method developments papers are equally worthy of getting cited

  1. Neese,F.
     An improvement of the resolution of the identity approximation for the formation of the Coulomb matrix
     J. Comp. Chem., 2003 24(14)1740-1747
     doi.org/10.1002/jcc.10318
  2. Neese,F.; Wennmohs,F.; Hansen,A.; Becker,U.
     Efficient, approximate and parallel Hartree-Fock and hybrid DFT calculations. A 'chain-of-spheres' algorithm for the Hartree-Fock exchange
     Chem. Phys., 2009 356(1-3)98-109
     doi.org/10.1016/j.chemphys.2008.10.036
  3. Stoychev,G.L.; Auer,A.A.; Izsak,R.; Neese,F.
     Self-Consistent Field Calculation of Nuclear Magnetic Resonance Chemical Shielding Constants Using Gauge-Including Atomic Orbitals and Approximate Two-Electron Integrals
     J. Chem. Theory Comput., 2018 14(2)619-637
     doi.org/10.1021/acs.jctc.7b01006
  4. Garcia-Rates,M.; Neese,F.
     Effect of the Solute Cavity on the Solvation Energy and its Derivatives within the Framework of the Gaussian Charge Scheme
     J. Comput. Chem., 2020 41 922-939
     doi.org/10.1002/jcc.26139
  5. Helmich-Paris,B.; de Souza,B.; Neese,F.; Izsák,R.
     An improved chain of spheres for exchange algorithm
     J. Chem. Phys., 2021 155 104109
     doi.org/doi: 10.1063/5.0058766.
  6. Neese,F.
     The SHARK Integral Generation and Digestion System
     J. Comp. Chem., 2022  1-16
     doi.org/10.1002/jcc.26942
  7. Caldeweyher,E.; Bannwarth,C.; Grimme,S.
     Extension of the D3 dispersion coefficient model
     J. Chem. Phys., 2017 147 034112-XXXX
     doi.org/10.1063/1.4993215
  8. Caldeweyher,E.; Ehlert,S.; Hansen,A.; Neugebauer,H.; Spicher,S.; Bannwarth,C.; Grimme,S.
     A generally applicable atomic-charge dependent London dispersion correction
     J. Chem. Phys., 2019 150 154122-XXXX
     doi.org/10.1063/1.5090222
  9. Caldeweyher,E.; Mewes,J.; Ehlert,S.; Grimme,S.
     Extension and evaluation of the D4 London-dispersion model for periodic systems
     Phys. Chem. Chem. Phys., 2020 22(16)8499-8512
     doi.org/10.1039/D0CP00502A

List of suggested additional citations. These are papers that are important in the 'surrounding' of 
of this run, or papers that preceded the highly important papers. If you like your results we are grateful for a citation.

  1. Izsak,R.; Neese,F.
     An overlap fitted chain of spheres exchange method
     J. Chem. Phys., 2011 135 144105
     doi.org/10.1063/1.3646921
  2. Izsak,R.; Hansen,A.; Neese,F.
     The resolution of identity and chain of spheres approximations for the LPNO-CCSD singles Fock term
     Molec. Phys., 2012 110 2413-2417
     doi.org/10.1080/00268976.2012.687466
  3. Neese,F.
     The ORCA program system
     WIRES Comput. Molec. Sci., 2012 2(1)73-78
     doi.org/10.1002/wcms.81
  4. Izsak,R.; Neese,F.; Klopper,W.
     Robust fitting techniques in the chain of spheres approximation to the Fock exchange: The role of the complementary space
     J. Chem. Phys., 2013 139 
     doi.org/10.1063/1.4819264
  5. Neese,F.
     Software update: the ORCA program system, version 4.0
     WIRES Comput. Molec. Sci., 2018 8(1)1-6
     doi.org/10.1002/wcms.1327
  6. Neese,F.; Wennmohs,F.; Becker,U.; Riplinger,C.
     The ORCA quantum chemistry program package
     J. Chem. Phys., 2020 152 Art. No. L224108
     doi.org/10.1063/5.0004608

Timings for individual modules:

Sum of individual times          ...      190.614 sec (=   3.177 min)
Startup calculation              ...        4.509 sec (=   0.075 min)   2.4 %
SCF iterations                   ...       71.233 sec (=   1.187 min)  37.4 %
Property integrals               ...       74.348 sec (=   1.239 min)  39.0 %
SCF Response                     ...       39.203 sec (=   0.653 min)  20.6 %
Property calculations            ...        1.322 sec (=   0.022 min)   0.7 %
                             ****ORCA TERMINATED NORMALLY****
TOTAL RUN TIME: 0 days 0 hours 3 minutes 10 seconds 915 msec
