
                                 *****************
                                 * O   R   C   A *
                                 *****************

                                            #,                                       
                                            ###                                      
                                            ####                                     
                                            #####                                    
                                            ######                                   
                                           ########,                                 
                                     ,,################,,,,,                         
                               ,,#################################,,                 
                          ,,##########################################,,             
                       ,#########################################, ''#####,          
                    ,#############################################,,   '####,        
                  ,##################################################,,,,####,       
                ,###########''''           ''''###############################       
              ,#####''   ,,,,##########,,,,          '''####'''          '####       
            ,##' ,,,,###########################,,,                        '##       
           ' ,,###''''                  '''############,,,                           
         ,,##''                                '''############,,,,        ,,,,,,###''
      ,#''                                            '''#######################'''  
     '                                                          ''''####''''         
             ,#######,   #######,   ,#######,      ##                                
            ,#'     '#,  ##    ##  ,#'     '#,    #''#        ######   ,####,        
            ##       ##  ##   ,#'  ##            #'  '#       #        #'  '#        
            ##       ##  #######   ##           ,######,      #####,   #    #        
            '#,     ,#'  ##    ##  '#,     ,#' ,#      #,         ##   #,  ,#        
             '#######'   ##     ##  '#######'  #'      '#     #####' # '####'        



                  #######################################################
                  #                        -***-                        #
                  #          Department of theory and spectroscopy      #
                  #    Directorship and core code : Frank Neese         #
                  #        Max Planck Institute fuer Kohlenforschung    #
                  #                Kaiser Wilhelm Platz 1               #
                  #                 D-45470 Muelheim/Ruhr               #
                  #                      Germany                        #
                  #                                                     #
                  #                  All rights reserved                #
                  #                        -***-                        #
                  #######################################################


                         Program Version 5.0.2 -  RELEASE  -


 With contributions from (in alphabetic order):
   Daniel Aravena         : Magnetic Suceptibility
   Michael Atanasov       : Ab Initio Ligand Field Theory (pilot matlab implementation)
   Alexander A. Auer      : GIAO ZORA, VPT2 properties, NMR spectrum
   Ute Becker             : Parallelization
   Giovanni Bistoni       : ED, misc. LED, open-shell LED, HFLD
   Martin Brehm           : Molecular dynamics
   Dmytro Bykov           : SCF Hessian
   Vijay G. Chilkuri      : MRCI spin determinant printing, contributions to CSF-ICE
   Dipayan Datta          : RHF DLPNO-CCSD density
   Achintya Kumar Dutta   : EOM-CC, STEOM-CC
   Dmitry Ganyushin       : Spin-Orbit,Spin-Spin,Magnetic field MRCI
   Miquel Garcia          : C-PCM and meta-GGA Hessian, CC/C-PCM, Gaussian charge scheme
   Yang Guo               : DLPNO-NEVPT2, F12-NEVPT2, CIM, IAO-localization
   Andreas Hansen         : Spin unrestricted coupled pair/coupled cluster methods
   Benjamin Helmich-Paris : MC-RPA, TRAH-SCF, COSX integrals
   Lee Huntington         : MR-EOM, pCC
   Robert Izsak           : Overlap fitted RIJCOSX, COSX-SCS-MP3, EOM
   Marcus Kettner         : VPT2
   Christian Kollmar      : KDIIS, OOCD, Brueckner-CCSD(T), CCSD density, CASPT2, CASPT2-K
   Simone Kossmann        : Meta GGA functionals, TD-DFT gradient, OOMP2, MP2 Hessian
   Martin Krupicka        : Initial AUTO-CI
   Lucas Lang             : DCDCAS
   Marvin Lechner         : AUTO-CI (C++ implementation), FIC-MRCC
   Dagmar Lenk            : GEPOL surface, SMD
   Dimitrios Liakos       : Extrapolation schemes; Compound Job, initial MDCI parallelization
   Dimitrios Manganas     : Further ROCIS development; embedding schemes
   Dimitrios Pantazis     : SARC Basis sets
   Anastasios Papadopoulos: AUTO-CI, single reference methods and gradients
   Taras Petrenko         : DFT Hessian,TD-DFT gradient, ASA, ECA, R-Raman, ABS, FL, XAS/XES, NRVS
   Peter Pinski           : DLPNO-MP2, DLPNO-MP2 Gradient
   Christoph Reimann      : Effective Core Potentials
   Marius Retegan         : Local ZFS, SOC
   Christoph Riplinger    : Optimizer, TS searches, QM/MM, DLPNO-CCSD(T), (RO)-DLPNO pert. Triples
   Tobias Risthaus        : Range-separated hybrids, TD-DFT gradient, RPA, STAB
   Michael Roemelt        : Original ROCIS implementation
   Masaaki Saitow         : Open-shell DLPNO-CCSD energy and density
   Barbara Sandhoefer     : DKH picture change effects
   Avijit Sen             : IP-ROCIS
   Kantharuban Sivalingam : CASSCF convergence, NEVPT2, FIC-MRCI
   Bernardo de Souza      : ESD, SOC TD-DFT
   Georgi Stoychev        : AutoAux, RI-MP2 NMR, DLPNO-MP2 response
   Willem Van den Heuvel  : Paramagnetic NMR
   Boris Wezisla          : Elementary symmetry handling
   Frank Wennmohs         : Technical directorship


 We gratefully acknowledge several colleagues who have allowed us to
 interface, adapt or use parts of their codes:
   Stefan Grimme, W. Hujo, H. Kruse, P. Pracht,  : VdW corrections, initial TS optimization,
                  C. Bannwarth, S. Ehlert          DFT functionals, gCP, sTDA/sTD-DF
   Ed Valeev, F. Pavosevic, A. Kumar             : LibInt (2-el integral package), F12 methods
   Garnet Chan, S. Sharma, J. Yang, R. Olivares  : DMRG
   Ulf Ekstrom                                   : XCFun DFT Library
   Mihaly Kallay                                 : mrcc  (arbitrary order and MRCC methods)
   Jiri Pittner, Ondrej Demel                    : Mk-CCSD
   Frank Weinhold                                : gennbo (NPA and NBO analysis)
   Christopher J. Cramer and Donald G. Truhlar   : smd solvation model
   Lars Goerigk                                  : TD-DFT with DH, B97 family of functionals
   V. Asgeirsson, H. Jonsson                     : NEB implementation
   FAccTs GmbH                                   : IRC, NEB, NEB-TS, DLPNO-Multilevel, CI-OPT
                                                   MM, QMMM, 2- and 3-layer-ONIOM, Crystal-QMMM,
                                                   LR-CPCM, SF, NACMEs, symmetry and pop. for TD-DFT,
                                                   nearIR, NL-DFT gradient (VV10), updates on ESD,
                                                   ML-optimized integration grids
   S Lehtola, MJT Oliveira, MAL Marques          : LibXC Library
   Liviu Ungur et al                             : ANISO software


 Your calculation uses the libint2 library for the computation of 2-el integrals
 For citations please refer to: http://libint.valeyev.net

 Your ORCA version has been built with support for libXC version: 5.1.0
 For citations please refer to: https://tddft.org/programs/libxc/

 This ORCA versions uses:
   CBLAS   interface :  Fast vector & matrix operations
   LAPACKE interface :  Fast linear algebra routines
   SCALAPACK package :  Parallel linear algebra routines
   Shared memory     :  Shared parallel matrices
   BLAS/LAPACK       :  OpenBLAS 0.3.15  USE64BITINT DYNAMIC_ARCH NO_AFFINITY Zen SINGLE_THREADED
        Core in use  :  Zen
   Copyright (c) 2011-2014, The OpenBLAS Project


Your calculation utilizes the atom-pairwise dispersion correction
based on tight binding partial charges (D4)
Cite in your paper:
E.Caldeweyher, C.Bannwarth, S.Grimme, J.Chem.Phys., (2017), 147, 034112.
E.Caldeweyher, S.Ehlert, A.Hansen, H.Neugebauer, S.Grimme, J.Chem.Phys., (2018), in progress.
   

================================================================================

----- Orbital basis set information -----
Your calculation utilizes the basis: pcJ-0
   F. Jensen, Theor. Chem. Acc. 126, 371 (2010).

----- AuxJ basis set information -----
Your calculation utilizes the auxiliary basis: def2/J
   F. Weigend, Phys. Chem. Chem. Phys. 8, 1057 (2006).

================================================================================
                                        WARNINGS
                       Please study these warnings very carefully!
================================================================================


INFO   : the flag for use of the SHARK integral package has been found!

================================================================================
                                       INPUT FILE
================================================================================
NAME = inpJ
|  1> ! pbe0
|  2> ! D4
|  3> ! pcJ-0
|  4> ! def2/J RIJCOSX
|  5> ! DEFGRID2
|  6> ! scfconv7
|  7> ! smallprint printgap noloewdin
|  8> ! NOSOSCF
|  9> %MaxCore 4000
| 10> %output
| 11>        print[P_BondOrder_M] 1
| 12>        print[P_Mayer] 1
| 13>        print[P_basis] 2
| 14> end
| 15> %pal
| 16>     nprocs 4
| 17> end
| 18> ! CPCM(chloroform)
| 19> *xyz 0 1
| 20> C   -5.1993097900   0.0714380500  -0.5814050300
| 21> C   -6.6241227200  -0.4153919000  -0.6991094700
| 22> C   -7.5739798200   0.5210514300   0.0589207600
| 23> H   -6.7187367200  -1.4376291900  -0.3156850600
| 24> H   -6.9303749100  -0.4196580600  -1.7557317000
| 25> C   -5.0109475200   1.4790018200  -0.9983504300
| 26> C   -5.9847704500   2.4512469200  -0.3706167400
| 27> C   -7.4333931900   1.9515943600  -0.4634836700
| 28> H   -5.8867256100   3.4384405300  -0.8345012300
| 29> H   -5.7211027300   2.5675862300   0.6916810400
| 30> H   -7.7618303600   1.9695342900  -1.5115908600
| 31> H   -8.0976071600   2.6152421900   0.1021529300
| 32> O   -7.3365439400   0.4463667200   1.4748225200
| 33> H   -8.6082426300   0.1820096200  -0.0784629000
| 34> C   -4.2265338600  -0.7176765400  -0.0665675700
| 35> C   -4.0879051700   1.8609845400  -1.8875467400
| 36> H   -3.4088470700   1.1442349100  -2.3416968200
| 37> H   -3.9976588800   2.9022417500  -2.1881408100
| 38> C   -2.8595803600  -0.3246006300   0.1884067500
| 39> H   -4.5196016900  -1.7306782400   0.2063210900
| 40> C   -1.8599654400  -1.1253359100   0.6159915900
| 41> H   -2.6323853700   0.7268077000   0.0276962200
| 42> C   -1.9683668100  -2.6068019000   0.8734337700
| 43> C   -0.8979327900  -3.3984608000   0.0974658200
| 44> H   -2.9613361700  -2.9972851200   0.6350384700
| 45> H   -1.8049852400  -2.7759798400   1.9498102000
| 46> C    0.5167030500  -2.8436181600   0.3102149000
| 47> H   -1.1455308800  -3.3825379400  -0.9714824900
| 48> H   -0.9315156200  -4.4493517300   0.4099039900
| 49> C    0.5957815700  -1.3447357600  -0.0103964600
| 50> H    1.2202430900  -3.4192693100  -0.3000155500
| 51> H    0.8090317800  -2.9897706200   1.3611208600
| 52> C   -0.4727732200  -0.6212065800   0.8685979600
| 53> H   -0.2199007300  -0.9117940000   1.9055291900
| 54> C   -0.1321847700   0.8568173800   0.7164476500
| 55> H   -6.3784727200   0.4262672000   1.6105523200
| 56> C    1.4153941000   0.8642536100   0.6782380900
| 57> H   -0.5383356400   1.4624070300   1.5335002000
| 58> H   -0.5436668400   1.2561591000  -0.2174033000
| 59> C    1.8801547800  -0.6121239300   0.4737310800
| 60> H    1.8286687900   1.2790016700   1.6015842700
| 61> H    1.7902101000   1.4940624200  -0.1373894000
| 62> H    2.1228482100  -1.0478007800   1.4557579900
| 63> C    3.1363315400  -0.7003052100  -0.4044994400
| 64> C    0.3367790900  -1.0847037300  -1.5017976800
| 65> H    0.5287665600  -0.0411011200  -1.7707256800
| 66> H   -0.7012281700  -1.3036591300  -1.7711370400
| 67> H    0.9846619000  -1.7112253200  -2.1240729600
| 68> H    2.8996074000  -0.2189348500  -1.3668138500
| 69> C    3.5927441200  -2.1384329900  -0.7122385500
| 70> C    4.3251362400   0.0393118600   0.1687880100
| 71> C    4.5346247200   0.3821935000   1.4395992500
| 72> H    5.1185550500   0.2472282100  -0.5547699700
| 73> H    3.7736132000   0.1663178600   2.1907929100
| 74> C    5.7758173400   1.0631646900   1.9474469700
| 75> C    6.3918895200   0.2393500400   3.0879460700
| 76> C    5.4886176400   2.5394186500   2.3393988800
| 77> H    6.4999655400   1.0991448400   1.1197458300
| 78> H    5.0082562500   2.9911262700   1.4581313900
| 79> C    6.7808351000   3.3134010700   2.6133916700
| 80> C    4.5232890800   2.6821205300   3.5191726700
| 81> H    5.6818365200   0.1166267200   3.9133930100
| 82> H    7.2985985400   0.7066509900   3.4851224000
| 83> H    6.6575271500  -0.7602099400   2.7284600300
| 84> H    7.4915412700   3.2111825500   1.7851557200
| 85> H    7.2702174800   2.9589258600   3.5275482300
| 86> H    6.5673917700   4.3796567100   2.7479758900
| 87> H    3.5808360400   2.1523941800   3.3457292300
| 88> H    4.2852489900   3.7384735600   3.6863697500
| 89> H    4.9671522000   2.2950857200   4.4436533700
| 90> H    2.8856668000  -2.6647917600  -1.3582651700
| 91> H    3.7074425400  -2.7089124700   0.2170386500
| 92> H    4.5634123800  -2.1286977100  -1.2206224100
| 93> *
| 94> %eprnmr
| 95>  Nuclei = all H { ssfc }
| 96>  SpinSpinRThresh 8.0
| 97> end
| 98> 
| 99>                          ****END OF INPUT****
================================================================================

                       ****************************
                       * Single Point Calculation *
                       ****************************

---------------------------------
CARTESIAN COORDINATES (ANGSTROEM)
---------------------------------
  C     -5.199310    0.071438   -0.581405
  C     -6.624123   -0.415392   -0.699109
  C     -7.573980    0.521051    0.058921
  H     -6.718737   -1.437629   -0.315685
  H     -6.930375   -0.419658   -1.755732
  C     -5.010948    1.479002   -0.998350
  C     -5.984770    2.451247   -0.370617
  C     -7.433393    1.951594   -0.463484
  H     -5.886726    3.438441   -0.834501
  H     -5.721103    2.567586    0.691681
  H     -7.761830    1.969534   -1.511591
  H     -8.097607    2.615242    0.102153
  O     -7.336544    0.446367    1.474823
  H     -8.608243    0.182010   -0.078463
  C     -4.226534   -0.717677   -0.066568
  C     -4.087905    1.860985   -1.887547
  H     -3.408847    1.144235   -2.341697
  H     -3.997659    2.902242   -2.188141
  C     -2.859580   -0.324601    0.188407
  H     -4.519602   -1.730678    0.206321
  C     -1.859965   -1.125336    0.615992
  H     -2.632385    0.726808    0.027696
  C     -1.968367   -2.606802    0.873434
  C     -0.897933   -3.398461    0.097466
  H     -2.961336   -2.997285    0.635038
  H     -1.804985   -2.775980    1.949810
  C      0.516703   -2.843618    0.310215
  H     -1.145531   -3.382538   -0.971482
  H     -0.931516   -4.449352    0.409904
  C      0.595782   -1.344736   -0.010396
  H      1.220243   -3.419269   -0.300016
  H      0.809032   -2.989771    1.361121
  C     -0.472773   -0.621207    0.868598
  H     -0.219901   -0.911794    1.905529
  C     -0.132185    0.856817    0.716448
  H     -6.378473    0.426267    1.610552
  C      1.415394    0.864254    0.678238
  H     -0.538336    1.462407    1.533500
  H     -0.543667    1.256159   -0.217403
  C      1.880155   -0.612124    0.473731
  H      1.828669    1.279002    1.601584
  H      1.790210    1.494062   -0.137389
  H      2.122848   -1.047801    1.455758
  C      3.136332   -0.700305   -0.404499
  C      0.336779   -1.084704   -1.501798
  H      0.528767   -0.041101   -1.770726
  H     -0.701228   -1.303659   -1.771137
  H      0.984662   -1.711225   -2.124073
  H      2.899607   -0.218935   -1.366814
  C      3.592744   -2.138433   -0.712239
  C      4.325136    0.039312    0.168788
  C      4.534625    0.382193    1.439599
  H      5.118555    0.247228   -0.554770
  H      3.773613    0.166318    2.190793
  C      5.775817    1.063165    1.947447
  C      6.391890    0.239350    3.087946
  C      5.488618    2.539419    2.339399
  H      6.499966    1.099145    1.119746
  H      5.008256    2.991126    1.458131
  C      6.780835    3.313401    2.613392
  C      4.523289    2.682121    3.519173
  H      5.681837    0.116627    3.913393
  H      7.298599    0.706651    3.485122
  H      6.657527   -0.760210    2.728460
  H      7.491541    3.211183    1.785156
  H      7.270217    2.958926    3.527548
  H      6.567392    4.379657    2.747976
  H      3.580836    2.152394    3.345729
  H      4.285249    3.738474    3.686370
  H      4.967152    2.295086    4.443653
  H      2.885667   -2.664792   -1.358265
  H      3.707443   -2.708912    0.217039
  H      4.563412   -2.128698   -1.220622

----------------------------
CARTESIAN COORDINATES (A.U.)
----------------------------
  NO LB      ZA    FRAG     MASS         X           Y           Z
   0 C     6.0000    0    12.011   -9.825272    0.134998   -1.098696
   1 C     6.0000    0    12.011  -12.517778   -0.784977   -1.321125
   2 C     6.0000    0    12.011  -14.312748    0.984645    0.111344
   3 H     1.0000    0     1.008  -12.696572   -2.716725   -0.596558
   4 H     1.0000    0     1.008  -13.096511   -0.793039   -3.317852
   5 C     6.0000    0    12.011   -9.469318    2.794908   -1.886609
   6 C     6.0000    0    12.011  -11.309577    4.632185   -0.700364
   7 C     6.0000    0    12.011  -14.047077    3.687979   -0.875857
   8 H     1.0000    0     1.008  -11.124299    6.497711   -1.576979
   9 H     1.0000    0     1.008  -10.811317    4.852035    1.307088
  10 H     1.0000    0     1.008  -14.667734    3.721880   -2.856493
  11 H     1.0000    0     1.008  -15.302260    4.942092    0.193041
  12 O     8.0000    0    15.999  -13.864059    0.843511    2.787011
  13 H     1.0000    0     1.008  -16.267221    0.343948   -0.148273
  14 C     6.0000    0    12.011   -7.986991   -1.356212   -0.125794
  15 C     6.0000    0    12.011   -7.725021    3.516751   -3.566946
  16 H     1.0000    0     1.008   -6.441787    2.162291   -4.425166
  17 H     1.0000    0     1.008   -7.554480    5.484442   -4.134987
  18 C     6.0000    0    12.011   -5.403824   -0.613406    0.356037
  19 H     1.0000    0     1.008   -8.540809   -3.270508    0.389890
  20 C     6.0000    0    12.011   -3.514825   -2.126577    1.164055
  21 H     1.0000    0     1.008   -4.974487    1.373468    0.052338
  22 C     6.0000    0    12.011   -3.719674   -4.926142    1.650551
  23 C     6.0000    0    12.011   -1.696847   -6.422160    0.184184
  24 H     1.0000    0     1.008   -5.596114   -5.664048    1.200049
  25 H     1.0000    0     1.008   -3.410928   -5.245842    3.684607
  26 C     6.0000    0    12.011    0.976427   -5.373660    0.586221
  27 H     1.0000    0     1.008   -2.164740   -6.392070   -1.835836
  28 H     1.0000    0     1.008   -1.760309   -8.408056    0.774606
  29 C     6.0000    0    12.011    1.125864   -2.541182   -0.019646
  30 H     1.0000    0     1.008    2.305925   -6.461483   -0.566947
  31 H     1.0000    0     1.008    1.528848   -5.649848    2.572146
  32 C     6.0000    0    12.011   -0.893412   -1.173910    1.641412
  33 H     1.0000    0     1.008   -0.415552   -1.723041    3.600928
  34 C     6.0000    0    12.011   -0.249793    1.619150    1.353890
  35 H     1.0000    0     1.008  -12.053567    0.805528    3.043503
  36 C     6.0000    0    12.011    2.674707    1.633203    1.281684
  37 H     1.0000    0     1.008   -1.017307    2.763549    2.897895
  38 H     1.0000    0     1.008   -1.027381    2.373797   -0.410833
  39 C     6.0000    0    12.011    3.552978   -1.156747    0.895222
  40 H     1.0000    0     1.008    3.455683    2.416963    3.026556
  41 H     1.0000    0     1.008    3.383007    2.823369   -0.259628
  42 H     1.0000    0     1.008    4.011602   -1.980057    2.750984
  43 C     6.0000    0    12.011    5.926808   -1.323385   -0.764393
  44 C     6.0000    0    12.011    0.636420   -2.049793   -2.837986
  45 H     1.0000    0     1.008    0.999224   -0.077670   -3.346187
  46 H     1.0000    0     1.008   -1.325129   -2.463559   -3.346964
  47 H     1.0000    0     1.008    1.860741   -3.233747   -4.013916
  48 H     1.0000    0     1.008    5.479464   -0.413727   -2.582904
  49 C     6.0000    0    12.011    6.789302   -4.041053   -1.345936
  50 C     6.0000    0    12.011    8.173323    0.074289    0.318963
  51 C     6.0000    0    12.011    8.569199    0.722241    2.720448
  52 H     1.0000    0     1.008    9.672667    0.467194   -1.048363
  53 H     1.0000    0     1.008    7.131095    0.314295    4.139999
  54 C     6.0000    0    12.011   10.914713    2.009090    3.680141
  55 C     6.0000    0    12.011   12.078921    0.452306    5.835372
  56 C     6.0000    0    12.011   10.371984    4.798806    4.420823
  57 H     1.0000    0     1.008   12.283155    2.077083    2.116013
  58 H     1.0000    0     1.008    9.464233    5.652409    2.755469
  59 C     6.0000    0    12.011   12.813921    6.261421    4.938595
  60 C     6.0000    0    12.011    8.547778    5.068473    6.650273
  61 H     1.0000    0     1.008   10.737115    0.220393    7.395241
  62 H     1.0000    0     1.008   13.792352    1.335377    6.585927
  63 H     1.0000    0     1.008   12.580903   -1.436589    5.156042
  64 H     1.0000    0     1.008   14.156961    6.068256    3.373455
  65 H     1.0000    0     1.008   13.738720    5.591560    6.666100
  66 H     1.0000    0     1.008   12.410572    8.276352    5.192922
  67 H     1.0000    0     1.008    6.766799    4.067436    6.322512
  68 H     1.0000    0     1.008    8.097947    7.064691    6.966229
  69 H     1.0000    0     1.008    9.386557    4.337083    8.397288
  70 H     1.0000    0     1.008    5.453120   -5.035727   -2.566749
  71 H     1.0000    0     1.008    7.006051   -5.119103    0.410144
  72 H     1.0000    0     1.008    8.623600   -4.022656   -2.306642

--------------------------------
INTERNAL COORDINATES (ANGSTROEM)
--------------------------------
 C      0   0   0     0.000000000000     0.00000000     0.00000000
 C      1   0   0     1.510281305224     0.00000000     0.00000000
 C      2   1   0     1.534198308667   110.41557437     0.00000000
 H      2   1   3     1.095871874010   110.78532272   237.80565788
 H      2   1   3     1.100117785026   109.79960936   118.64624726
 C      1   2   3     1.480053910490   113.87019511   305.99279350
 C      6   1   2     1.512495031076   114.35981325    50.06287597
 C      3   2   1     1.529419518507   110.19656020    56.76754314
 H      7   6   1     1.095149685814   110.24294683   188.51694781
 H      7   6   1     1.100696177432   108.31634569    71.77309458
 H      8   3   2     1.098508760755   108.28179426    64.42908507
 H      8   3   2     1.096153914132   109.53211819   181.42157238
 O      3   2   1     1.437613090157   110.65029571   292.72938289
 H      3   2   1     1.097052040294   109.46167676   177.18220923
 C      1   2   3     1.354271928513   121.29570264   122.59013245
 C      6   1   2     1.337381043678   123.14581741   232.12065998
 H     16   6   1     1.086785273384   121.38072507   358.93475531
 H     16   6   1     1.087528282462   120.96501943   178.36852200
 C     15   1   2     1.445019877387   126.02032652   185.08883761
 H     15   1   2     1.089279311261   116.35063409     3.03647663
 C     19  15   1     1.350272480769   126.50364577   184.79517874
 H     19  15   1     1.087614322417   115.75350058     5.65035727
 C     21  19  15     1.507570500039   125.70368353     1.94047233
 C     23  21  19     1.540999372015   111.64770589   126.04764699
 H     23  21  19     1.093296672483   112.27467580     2.33078420
 H     23  21  19     1.101771724024   107.88210733   244.63948100
 C     24  23  21     1.534375145137   112.63377286    50.99616870
 H     24  23  21     1.097364497828   109.04582461   288.91169914
 H     24  23  21     1.096866976119   109.11685782   172.92515833
 C     27  24  23     1.534826864997   111.81913180   306.00896466
 H     27  24  23     1.094862565113   108.96752118   182.49655333
 H     27  24  23     1.100554389710   109.22448038    65.97553725
 C     21  19  15     1.497417314832   122.65526119   180.74033546
 H     33  21  19     1.106169932972   106.34789345   125.57336462
 C     33  21  19     1.524370373446   121.10276027     2.97912601
 H     13   3   2     0.967846595233   107.61933578    41.97817858
 C     35  33  21     1.548068353421   103.32529557   195.08185436
 H     35  33  21     1.095112881328   112.26227359    73.33520947
 H     35  33  21     1.095841640056   110.76262786   313.59168003
 C     30  27  24     1.555864425652   115.93663991   166.54343558
 H     37  35  33     1.093334391112   111.02976272   251.69507732
 H     37  35  33     1.096537447356   111.27395875   133.47480093
 H     40  30  27     1.101404226683   105.84740394   321.88483625
 C     40  30  27     1.535267024581   118.06005869    82.74748471
 C     30  27  24     1.535896005688   111.06882410   294.73683329
 H     45  30  27     1.094663357119   111.73936930   188.05354764
 H     45  30  27     1.094506386389   111.40837245    68.09980443
 H     45  30  27     1.095220508541   110.80006721   308.00712010
 H     44  40  30     1.101728081533   107.38250298    62.87567617
 C     44  40  30     1.539878993497   114.23473852   304.03253667
 C     44  40  30     1.512927138135   113.45849348   180.44223152
 C     51  44  40     1.332821987368   127.63039172    21.77902996
 H     51  44  40     1.093745293513   114.34694790   197.53316611
 H     52  51  44     1.090886217872   119.73660563   357.13246974
 C     52  51  44     1.504057907217   124.61957054   176.98511413
 C     55  52  51     1.535888572008   109.80957822   235.31981536
 C     55  52  51     1.554167211676   111.26705339   109.00257161
 H     55  52  51     1.100351927301   107.69237299   352.90963567
 H     57  55  52     1.100644914539   105.57808506   307.15023639
 C     57  55  52     1.530995362295   111.67611442   190.36635574
 C     57  55  52     1.531041884103   113.53937582    64.87242818
 H     56  55  52     1.095718452357   111.07225774   301.06127548
 H     56  55  52     1.094641704821   111.88248955   180.11694299
 H     56  55  52     1.094949184686   110.06993610    60.11843038
 H     60  57  55     1.096141722032   111.40033383    51.91244878
 H     60  57  55     1.095823893037   111.26613889   291.21422744
 H     60  57  55     1.095706191105   110.45780788   172.00533697
 H     61  57  55     1.094947654168   112.05771359   305.25184729
 H     61  57  55     1.095673159294   110.14687609   185.41122118
 H     61  57  55     1.096118140585   111.20345683    66.41594877
 H     50  44  40     1.092868832460   112.09696439    67.89211167
 H     50  44  40     1.096429969990   110.33769585   306.78593633
 H     50  44  40     1.095785469769   110.30228004   187.82932468

---------------------------
INTERNAL COORDINATES (A.U.)
---------------------------
 C      0   0   0     0.000000000000     0.00000000     0.00000000
 C      1   0   0     2.854018052054     0.00000000     0.00000000
 C      2   1   0     2.899214638505   110.41557437     0.00000000
 H      2   1   3     2.070897719746   110.78532272   237.80565788
 H      2   1   3     2.078921328756   109.79960936   118.64624726
 C      1   2   3     2.796896554266   113.87019511   305.99279350
 C      6   1   2     2.858201387650   114.35981325    50.06287597
 C      3   2   1     2.890184033853   110.19656020    56.76754314
 H      7   6   1     2.069532981838   110.24294683   188.51694781
 H      7   6   1     2.080014332001   108.31634569    71.77309458
 H      8   3   2     2.075880713540   108.28179426    64.42908507
 H      8   3   2     2.071430698335   109.53211819   181.42157238
 O      3   2   1     2.716695026937   110.65029571   292.72938289
 H      3   2   1     2.073127910814   109.46167676   177.18220923
 C      1   2   3     2.559203055746   121.29570264   122.59013245
 C      6   1   2     2.527283909250   123.14581741   232.12065998
 H     16   6   1     2.053726533075   121.38072507   358.93475531
 H     16   6   1     2.055130616747   120.96501943   178.36852200
 C     15   1   2     2.730691826334   126.02032652   185.08883761
 H     15   1   2     2.058439581629   116.35063409     3.03647663
 C     19  15   1     2.551645194823   126.50364577   184.79517874
 H     19  15   1     2.055293208699   115.75350058     5.65035727
 C     21  19  15     2.848895372652   125.70368353     1.94047233
 C     23  21  19     2.912066785652   111.64770589   126.04764699
 H     23  21  19     2.066031294120   112.27467580     2.33078420
 H     23  21  19     2.082046820503   107.88210733   244.63948100
 C     24  23  21     2.899548811005   112.63377286    50.99616870
 H     24  23  21     2.073718369984   109.04582461   288.91169914
 H     24  23  21     2.072778190207   109.11685782   172.92515833
 C     27  24  23     2.900402437829   111.81913180   306.00896466
 H     27  24  23     2.068990402347   108.96752118   182.49655333
 H     27  24  23     2.079746392038   109.22448038    65.97553725
 C     21  19  15     2.829708633225   122.65526119   180.74033546
 H     33  21  19     2.090358230894   106.34789345   125.57336462
 C     33  21  19     2.880642532477   121.10276027     2.97912601
 H     13   3   2     1.828965004639   107.61933578    41.97817858
 C     35  33  21     2.925425224555   103.32529557   195.08185436
 H     35  33  21     2.069463431439   112.26227359    73.33520947
 H     35  33  21     2.070840585852   110.76262786   313.59168003
 C     30  27  24     2.940157665992   115.93663991   166.54343558
 H     37  35  33     2.066102572000   111.02976272   251.69507732
 H     37  35  33     2.072155471091   111.27395875   133.47480093
 H     40  30  27     2.081352351174   105.84740394   321.88483625
 C     40  30  27     2.901234218898   118.06005869    82.74748471
 C     30  27  24     2.902422820935   111.06882410   294.73683329
 H     45  30  27     2.068613953794   111.73936930   188.05354764
 H     45  30  27     2.068317322104   111.40837245    68.09980443
 H     45  30  27     2.069666817396   110.80006721   308.00712010
 H     44  40  30     2.081964348148   107.38250298    62.87567617
 C     44  40  30     2.909949577088   114.23473852   304.03253667
 C     44  40  30     2.859017951652   113.45849348   180.44223152
 C     51  44  40     2.518668541395   127.63039172    21.77902996
 H     51  44  40     2.066879065004   114.34694790   197.53316611
 H     52  51  44     2.061476195047   119.73660563   357.13246974
 C     52  51  44     2.842257534199   124.61957054   176.98511413
 C     55  52  51     2.902408773315   109.80957822   235.31981536
 C     55  52  51     2.936950396387   111.26705339   109.00257161
 H     55  52  51     2.079363793531   107.69237299   352.90963567
 H     57  55  52     2.079917459171   105.57808506   307.15023639
 C     57  55  52     2.893161947042   111.67611442   190.36635574
 C     57  55  52     2.893249860518   113.53937582    64.87242818
 H     56  55  52     2.070607794839   111.07225774   301.06127548
 H     56  55  52     2.068573036880   111.88248955   180.11694299
 H     56  55  52     2.069154089617   110.06993610    60.11843038
 H     60  57  55     2.071407658605   111.40033383    51.91244878
 H     60  57  55     2.070807048847   111.26613889   291.21422744
 H     60  57  55     2.070584624431   110.45780788   172.00533697
 H     61  57  55     2.069151197358   112.05771359   305.25184729
 H     61  57  55     2.070522203354   110.14687609   185.41122118
 H     61  57  55     2.071363096129   111.20345683    66.41594877
 H     50  44  40     2.065222793648   112.09696439    67.89211167
 H     50  44  40     2.071952368304   110.33769585   306.78593633
 H     50  44  40     2.070734439393   110.30228004   187.82932468

---------------------
BASIS SET INFORMATION
---------------------
There are 3 groups of distinct atoms

 Group   1 Type C   : 7s4p contracted to 4s3p pattern {4111/211}
 Group   2 Type H   : 5s contracted to 3s pattern {311}
 Group   3 Type O   : 7s4p contracted to 4s3p pattern {4111/211}

Atom   0C    basis set group =>   1
Atom   1C    basis set group =>   1
Atom   2C    basis set group =>   1
Atom   3H    basis set group =>   2
Atom   4H    basis set group =>   2
Atom   5C    basis set group =>   1
Atom   6C    basis set group =>   1
Atom   7C    basis set group =>   1
Atom   8H    basis set group =>   2
Atom   9H    basis set group =>   2
Atom  10H    basis set group =>   2
Atom  11H    basis set group =>   2
Atom  12O    basis set group =>   3
Atom  13H    basis set group =>   2
Atom  14C    basis set group =>   1
Atom  15C    basis set group =>   1
Atom  16H    basis set group =>   2
Atom  17H    basis set group =>   2
Atom  18C    basis set group =>   1
Atom  19H    basis set group =>   2
Atom  20C    basis set group =>   1
Atom  21H    basis set group =>   2
Atom  22C    basis set group =>   1
Atom  23C    basis set group =>   1
Atom  24H    basis set group =>   2
Atom  25H    basis set group =>   2
Atom  26C    basis set group =>   1
Atom  27H    basis set group =>   2
Atom  28H    basis set group =>   2
Atom  29C    basis set group =>   1
Atom  30H    basis set group =>   2
Atom  31H    basis set group =>   2
Atom  32C    basis set group =>   1
Atom  33H    basis set group =>   2
Atom  34C    basis set group =>   1
Atom  35H    basis set group =>   2
Atom  36C    basis set group =>   1
Atom  37H    basis set group =>   2
Atom  38H    basis set group =>   2
Atom  39C    basis set group =>   1
Atom  40H    basis set group =>   2
Atom  41H    basis set group =>   2
Atom  42H    basis set group =>   2
Atom  43C    basis set group =>   1
Atom  44C    basis set group =>   1
Atom  45H    basis set group =>   2
Atom  46H    basis set group =>   2
Atom  47H    basis set group =>   2
Atom  48H    basis set group =>   2
Atom  49C    basis set group =>   1
Atom  50C    basis set group =>   1
Atom  51C    basis set group =>   1
Atom  52H    basis set group =>   2
Atom  53H    basis set group =>   2
Atom  54C    basis set group =>   1
Atom  55C    basis set group =>   1
Atom  56C    basis set group =>   1
Atom  57H    basis set group =>   2
Atom  58H    basis set group =>   2
Atom  59C    basis set group =>   1
Atom  60C    basis set group =>   1
Atom  61H    basis set group =>   2
Atom  62H    basis set group =>   2
Atom  63H    basis set group =>   2
Atom  64H    basis set group =>   2
Atom  65H    basis set group =>   2
Atom  66H    basis set group =>   2
Atom  67H    basis set group =>   2
Atom  68H    basis set group =>   2
Atom  69H    basis set group =>   2
Atom  70H    basis set group =>   2
Atom  71H    basis set group =>   2
Atom  72H    basis set group =>   2

-------------------------
BASIS SET IN INPUT FORMAT
-------------------------

 # Basis set for element : H 
 NewGTO H 
 S 3 
   1    1357.7500000000      0.0012928364
   2      54.3100000000      0.0588280685
   3       4.3448000000      0.9761499708
 S 1 
   1       0.6604910000      1.0000000000
 S 1 
   1       0.1366870000      1.0000000000
  end;

 # Basis set for element : C 
 NewGTO C 
 S 4 
   1  139534.0000000000      0.0001655246
   2    5581.3600000000      0.0074486101
   3     446.5090000000      0.1285821065
   4      67.4620000000      0.9218029311
 S 1 
   1      15.0674000000      1.0000000000
 S 1 
   1       3.9387600000      1.0000000000
 S 1 
   1       0.2999150000      1.0000000000
 P 2 
   1      28.3900000000      0.0816325586
   2       4.3676900000      0.9660360576
 P 1 
   1       0.8698170000      1.0000000000
 P 1 
   1       0.1889340000      1.0000000000
  end;

 # Basis set for element : O 
 NewGTO O 
 S 4 
   1  253789.0000000000      0.0001641076
   2   10151.6000000000      0.0074010921
   3     812.1250000000      0.1277711901
   4     122.6930000000      0.9223372164
 S 1 
   1      27.5608000000      1.0000000000
 S 1 
   1       7.3172600000      1.0000000000
 S 1 
   1       0.5792400000      1.0000000000
 P 2 
   1      53.4157000000      0.0793786106
   2       8.2177900000      0.9670506337
 P 1 
   1       1.6754400000      1.0000000000
 P 1 
   1       0.3506720000      1.0000000000
  end;

---------------------------------
AUXILIARY/J BASIS SET INFORMATION
---------------------------------
There are 3 groups of distinct atoms

 Group   1 Type C   : 12s5p4d2f1g contracted to 6s4p3d1f1g pattern {711111/2111/211/2/1}
 Group   2 Type H   : 5s2p1d contracted to 3s1p1d pattern {311/2/1}
 Group   3 Type O   : 12s5p4d2f1g contracted to 6s4p3d1f1g pattern {711111/2111/211/2/1}

Atom   0C    basis set group =>   1
Atom   1C    basis set group =>   1
Atom   2C    basis set group =>   1
Atom   3H    basis set group =>   2
Atom   4H    basis set group =>   2
Atom   5C    basis set group =>   1
Atom   6C    basis set group =>   1
Atom   7C    basis set group =>   1
Atom   8H    basis set group =>   2
Atom   9H    basis set group =>   2
Atom  10H    basis set group =>   2
Atom  11H    basis set group =>   2
Atom  12O    basis set group =>   3
Atom  13H    basis set group =>   2
Atom  14C    basis set group =>   1
Atom  15C    basis set group =>   1
Atom  16H    basis set group =>   2
Atom  17H    basis set group =>   2
Atom  18C    basis set group =>   1
Atom  19H    basis set group =>   2
Atom  20C    basis set group =>   1
Atom  21H    basis set group =>   2
Atom  22C    basis set group =>   1
Atom  23C    basis set group =>   1
Atom  24H    basis set group =>   2
Atom  25H    basis set group =>   2
Atom  26C    basis set group =>   1
Atom  27H    basis set group =>   2
Atom  28H    basis set group =>   2
Atom  29C    basis set group =>   1
Atom  30H    basis set group =>   2
Atom  31H    basis set group =>   2
Atom  32C    basis set group =>   1
Atom  33H    basis set group =>   2
Atom  34C    basis set group =>   1
Atom  35H    basis set group =>   2
Atom  36C    basis set group =>   1
Atom  37H    basis set group =>   2
Atom  38H    basis set group =>   2
Atom  39C    basis set group =>   1
Atom  40H    basis set group =>   2
Atom  41H    basis set group =>   2
Atom  42H    basis set group =>   2
Atom  43C    basis set group =>   1
Atom  44C    basis set group =>   1
Atom  45H    basis set group =>   2
Atom  46H    basis set group =>   2
Atom  47H    basis set group =>   2
Atom  48H    basis set group =>   2
Atom  49C    basis set group =>   1
Atom  50C    basis set group =>   1
Atom  51C    basis set group =>   1
Atom  52H    basis set group =>   2
Atom  53H    basis set group =>   2
Atom  54C    basis set group =>   1
Atom  55C    basis set group =>   1
Atom  56C    basis set group =>   1
Atom  57H    basis set group =>   2
Atom  58H    basis set group =>   2
Atom  59C    basis set group =>   1
Atom  60C    basis set group =>   1
Atom  61H    basis set group =>   2
Atom  62H    basis set group =>   2
Atom  63H    basis set group =>   2
Atom  64H    basis set group =>   2
Atom  65H    basis set group =>   2
Atom  66H    basis set group =>   2
Atom  67H    basis set group =>   2
Atom  68H    basis set group =>   2
Atom  69H    basis set group =>   2
Atom  70H    basis set group =>   2
Atom  71H    basis set group =>   2
Atom  72H    basis set group =>   2

-------------------------------------
AUXILIARY/J BASIS SET IN INPUT FORMAT
-------------------------------------

 # Auxiliary/J basis set for element : H 
 NewAuxJGTO H 
 S 3 
   1      15.6752927000      0.1007184237
   2       3.6063578000      0.3404257499
   3       1.2080016000      0.6491996172
 S 1 
   1       0.4726794000      1.0000000000
 S 1 
   1       0.2018100000      1.0000000000
 P 2 
   1       2.0281365000      0.5596620919
   2       0.5358730000      0.5596620919
 D 1 
   1       2.2165124000      1.0000000000
  end;

 # Auxiliary/J basis set for element : C 
 NewAuxJGTO C 
 S 7 
   1    1861.0916331000      0.0134602335
   2     642.9939764000      0.0299160374
   3     235.1105725000      0.1008649584
   4      90.7028894000      0.2370970548
   5      36.7794552000      0.3924037254
   6      15.6046273000      0.3195862154
   7       6.8907294000      0.0530104441
 S 1 
   1       3.1478850000     -1.0000000000
 S 1 
   1       1.4777287000      1.0000000000
 S 1 
   1       0.7076466000      1.0000000000
 S 1 
   1       0.3430122000      1.0000000000
 S 1 
   1       0.1669453000      1.0000000000
 P 2 
   1      13.5472892000     -0.6769313712
   2       5.4669419000     -0.3779500978
 P 1 
   1       2.1751721000      1.0000000000
 P 1 
   1       0.8582194000      1.0000000000
 P 1 
   1       0.3376720000      1.0000000000
 D 2 
   1       5.9287253000     -0.3533329857
   2       1.9809209000     -0.7456525731
 D 1 
   1       0.8055417000     -1.0000000000
 D 1 
   1       0.3531244000     -1.0000000000
 F 2 
   1       1.6755626000      0.6311076882
   2       0.5997536000      0.4968166032
 G 1 
   1       1.0024600000     -1.0000000000
  end;

 # Auxiliary/J basis set for element : O 
 NewAuxJGTO O 
 S 7 
   1    2876.8216605000      0.0168151159
   2    1004.7443032000      0.0340137548
   3     369.7579954000      0.1194951309
   4     142.9442404000      0.2664627624
   5      57.8366425000      0.4202764046
   6      24.3864983000      0.2765077335
   7      10.6622662000      0.0057008815
 S 1 
   1       4.8070437000     -1.0000000000
 S 1 
   1       2.2210770000      1.0000000000
 S 1 
   1       1.0447795000      1.0000000000
 S 1 
   1       0.4968425000      1.0000000000
 S 1 
   1       0.2371384000      1.0000000000
 P 2 
   1      64.2613382000     -0.2731534179
   2      16.3006076000     -0.8168011598
 P 1 
   1       4.3550542000      1.0000000000
 P 1 
   1       1.2019554000      1.0000000000
 P 1 
   1       0.3354196000      1.0000000000
 D 2 
   1       9.2146611000     -0.4661230638
   2       2.8435251000     -0.6600908911
 D 1 
   1       0.9955759000     -1.0000000000
 D 1 
   1       0.3649441000     -1.0000000000
 F 2 
   1       2.6420115000      0.5931563945
   2       0.7345613000      0.5931563945
 G 1 
   1       1.3931000000     -1.0000000000
  end;



           ************************************************************
           *        Program running with 4 parallel MPI-processes     *
           *              working on a common directory               *
           ************************************************************
------------------------------------------------------------------------------
                           ORCA GTO INTEGRAL CALCULATION
                           -- RI-GTO INTEGRALS CHOSEN --
------------------------------------------------------------------------------
------------------------------------------------------------------------------
                   ___                                                        
                  /   \      - P O W E R E D   B Y -                         
                 /     \                                                     
                 |  |  |   _    _      __       _____    __    __             
                 |  |  |  | |  | |    /  \     |  _  \  |  |  /  |          
                  \  \/   | |  | |   /    \    | | | |  |  | /  /          
                 / \  \   | |__| |  /  /\  \   | |_| |  |  |/  /          
                |  |  |   |  __  | /  /__\  \  |    /   |      \           
                |  |  |   | |  | | |   __   |  |    \   |  |\   \          
                \     /   | |  | | |  |  |  |  | |\  \  |  | \   \       
                 \___/    |_|  |_| |__|  |__|  |_| \__\ |__|  \__/        
                                                                              
                      - O R C A' S   B I G   F R I E N D -                    
                                      &                                       
                       - I N T E G R A L  F E E D E R -                       
                                                                              
 v1 FN, 2020, v2 2021                                                         
------------------------------------------------------------------------------


Reading SHARK input file inpJ.SHARKINP.tmp ... ok
----------------------
SHARK INTEGRAL PACKAGE
----------------------

Number of atoms                             ...     73
Number of basis functions                   ...    509
Number of shells                            ...    335
Maximum angular momentum                    ...      1
Integral batch strategy                     ... SHARK/LIBINT Hybrid
RI-J (if used) integral strategy            ... SPLIT-RIJ (Revised 2003 algorithm where possible)
Printlevel                                  ...      1
Contraction scheme used                     ... SEGMENTED contraction
Coulomb Range Separation                    ... NOT USED
Exchange Range Separation                   ... NOT USED
Finite Nucleus Model                        ... NOT USED
Auxiliary Coulomb fitting basis             ... AVAILABLE
   # of basis functions in Aux-J            ...   1905
   # of shells in Aux-J                     ...    655
   Maximum angular momentum in Aux-J        ...      4
Auxiliary J/K fitting basis                 ... NOT available
Auxiliary Correlation fitting basis         ... NOT available
Auxiliary 'external' fitting basis          ... NOT available
Integral threshold                          ...     3.000000e-11
Primitive cut-off                           ...     1.000000e-12
Primitive pair pre-selection threshold      ...     1.000000e-12

Calculating pre-screening integrals         ... done (  0.0 sec) Dimension = 335
Organizing shell pair data                  ... done (  0.1 sec)
Shell pair information
Total number of shell pairs                 ...     56280
Shell pairs after pre-screening             ...     22032
Total number of primitive shell pairs       ...    145865
Primitive shell pairs kept                  ...     37840
          la=0 lb=0:  11081 shell pairs
          la=1 lb=0:   9064 shell pairs
          la=1 lb=1:   1887 shell pairs

Calculating one electron integrals          ... done (  0.0 sec)
Calculating RI/J V-Matrix + Cholesky decomp.... done (  0.2 sec)
Calculating Nuclear repulsion               ... done (  0.0 sec) ENN=   2799.653010439374 Eh

SHARK setup successfully completed in   0.4 seconds

Maximum memory used throughout the entire GTOINT-calculation: 46.4 MB


           ************************************************************
           *        Program running with 4 parallel MPI-processes     *
           *              working on a common directory               *
           ************************************************************
-------------------------------------------------------------------------------
                                 ORCA SCF
-------------------------------------------------------------------------------

------------
SCF SETTINGS
------------
Hamiltonian:
 Density Functional     Method          .... DFT(GTOs)
 Exchange Functional    Exchange        .... PBE
   PBE kappa parameter   XKappa         ....  0.804000
   PBE mue parameter    XMuePBE         ....  0.219520
 Correlation Functional Correlation     .... PBE
   PBE beta parameter  CBetaPBE         ....  0.066725
 LDA part of GGA corr.  LDAOpt          .... PW91-LDA
 Gradients option       PostSCFGGA      .... off
 Hybrid DFT is turned on
   Fraction HF Exchange ScalHFX         ....  0.250000
   Scaling of DF-GGA-X  ScalDFX         ....  0.750000
   Scaling of DF-GGA-C  ScalDFC         ....  1.000000
   Scaling of DF-LDA-C  ScalLDAC        ....  1.000000
   Perturbative correction              ....  0.000000
   Density functional embedding theory  .... OFF
   NL short-range parameter             ....  6.900000
 RI-approximation to the Coulomb term is turned on
   Number of AuxJ basis functions       .... 1905
   RIJ-COSX (HFX calculated with COS-X)).... on


General Settings:
 Integral files         IntName         .... inpJ
 Hartree-Fock type      HFTyp           .... RHF
 Total Charge           Charge          ....    0
 Multiplicity           Mult            ....    1
 Number of Electrons    NEL             ....  220
 Basis Dimension        Dim             ....  509
 Nuclear Repulsion      ENuc            ....   2799.6530104394 Eh

Convergence Acceleration:
 DIIS                   CNVDIIS         .... on
   Start iteration      DIISMaxIt       ....    12
   Startup error        DIISStart       ....  0.200000
   # of expansion vecs  DIISMaxEq       ....     5
   Bias factor          DIISBfac        ....   1.050
   Max. coefficient     DIISMaxC        ....  10.000
 Trust-Rad. Augm. Hess. CNVTRAH         .... auto
   Auto Start mean grad. ratio tolernc. ....  1.125000
   Auto Start start iteration           ....    20
   Auto Start num. interpolation iter.  ....    10
   Max. Number of Micro iterations      ....    16
   Max. Number of Macro iterations      .... Maxiter - #DIIS iter
   Number of Davidson start vectors     ....     2
   Converg. threshold I  (grad. norm)   ....   1.000e-04
   Converg. threshold II (energy diff.) ....   1.000e-07
   Grad. Scal. Fac. for Micro threshold ....   0.100
   Minimum threshold for Micro iter.    ....   0.010
   NR start threshold (gradient norm)   ....   0.001
   Initial trust radius                 ....   0.400
   Minimum AH scaling param. (alpha)    ....   1.000
   Maximum AH scaling param. (alpha)    .... 1000.000
   Orbital update algorithm             .... Taylor
   White noise on init. David. guess    .... on
   Maximum white noise                  ....   0.010
   Quad. conv. algorithm                .... NR
 SOSCF                  CNVSOSCF        .... off
 Level Shifting         CNVShift        .... on
   Level shift para.    LevelShift      ....    0.2500
   Turn off err/grad.   ShiftErr        ....    0.0010
 Zerner damping         CNVZerner       .... off
 Static damping         CNVDamp         .... on
   Fraction old density DampFac         ....    0.7000
   Max. Damping (<1)    DampMax         ....    0.9800
   Min. Damping (>=0)   DampMin         ....    0.0000
   Turn off err/grad.   DampErr         ....    0.1000
 Fernandez-Rico         CNVRico         .... off

SCF Procedure:
 Maximum # iterations   MaxIter         ....   125
 SCF integral mode      SCFMode         .... Direct
   Integral package                     .... SHARK and LIBINT hybrid scheme
 Reset frequency        DirectResetFreq ....    20
 Integral Threshold     Thresh          ....  3.000e-11 Eh
 Primitive CutOff       TCut            ....  1.000e-12 Eh

Convergence Tolerance:
 Convergence Check Mode ConvCheckMode   .... Total+1el-Energy
 Convergence forced     ConvForced      .... 0
 Energy Change          TolE            ....  1.000e-07 Eh
 1-El. energy change                    ....  1.000e-04 Eh
 DIIS Error             TolErr          ....  1.000e-07


Diagonalization of the overlap matrix:
Smallest eigenvalue                        ... 7.566e-03
Time for diagonalization                   ...    0.030 sec
Threshold for overlap eigenvalues          ... 1.000e-08
Number of eigenvalues below threshold      ... 0
Time for construction of square roots      ...    0.023 sec
Total time needed                          ...    0.054 sec

Time for model grid setup =    0.785 sec

------------------------------
INITIAL GUESS: MODEL POTENTIAL
------------------------------
Loading Hartree-Fock densities                     ... done
Calculating cut-offs                               ... done
Initializing the effective Hamiltonian             ... done
Setting up the integral package (SHARK)            ... done
Starting the Coulomb interaction                   ... done (   0.4 sec)
Reading the grid                                   ... done
Mapping shells                                     ... done
Starting the XC term evaluation                    ... done (   0.1 sec)
  promolecular density results
     # of electrons  =    219.977420229
     EX              =   -164.429485269
     EC              =     -7.327352613
     EX+EC           =   -171.756837881
Transforming the Hamiltonian                       ... done (   0.0 sec)
Diagonalizing the Hamiltonian                      ... done (   0.0 sec)
Back transforming the eigenvectors                 ... done (   0.0 sec)
Now organizing SCF variables                       ... done
                      ------------------
                      INITIAL GUESS DONE (   1.4 sec)
                      ------------------
-------------------
DFT GRID GENERATION
-------------------

General Integration Accuracy     IntAcc      ... 4.388
Radial Grid Type                 RadialGrid  ... OptM3 with GC (2021)
Angular Grid (max. ang.)         AngularGrid ... 4 (Lebedev-302)
Angular grid pruning method      GridPruning ... 4 (adaptive)
Weight generation scheme         WeightScheme... Becke
Basis function cutoff            BFCut       ... 1.0000e-11
Integration weight cutoff        WCut        ... 1.0000e-14
Angular grids for H and He will be reduced by one unit
Partially contracted basis set               ... off
Rotationally invariant grid construction     ... off

Total number of grid points                  ...   309813
Total number of batches                      ...     4883
Average number of points per batch           ...       63
Average number of grid points per atom       ...     4244
Time for grid setup =    2.754 sec

--------------------
COSX GRID GENERATION
--------------------

GRIDX 1
-------
General Integration Accuracy     IntAcc      ... 3.816
Radial Grid Type                 RadialGrid  ... OptM3 with GC (2021)
Angular Grid (max. ang.)         AngularGrid ... 1 (Lebedev-50)
Angular grid pruning method      GridPruning ... 4 (adaptive)
Weight generation scheme         WeightScheme... Becke
Basis function cutoff            BFCut       ... 1.0000e-11
Integration weight cutoff        WCut        ... 1.0000e-14
Angular grids for H and He will be reduced by one unit
Partially contracted basis set               ... on
Rotationally invariant grid construction     ... off

Total number of grid points                  ...    39380
Total number of batches                      ...      654
Average number of points per batch           ...       60
Average number of grid points per atom       ...      539
UseSFitting                                  ... on

GRIDX 2
-------
General Integration Accuracy     IntAcc      ... 4.020
Radial Grid Type                 RadialGrid  ... OptM3 with GC (2021)
Angular Grid (max. ang.)         AngularGrid ... 2 (Lebedev-110)
Angular grid pruning method      GridPruning ... 4 (adaptive)
Weight generation scheme         WeightScheme... Becke
Basis function cutoff            BFCut       ... 1.0000e-11
Integration weight cutoff        WCut        ... 1.0000e-14
Angular grids for H and He will be reduced by one unit
Partially contracted basis set               ... on
Rotationally invariant grid construction     ... off

Total number of grid points                  ...    81353
Total number of batches                      ...     1306
Average number of points per batch           ...       62
Average number of grid points per atom       ...     1114
UseSFitting                                  ... on

GRIDX 3
-------
General Integration Accuracy     IntAcc      ... 4.338
Radial Grid Type                 RadialGrid  ... OptM3 with GC (2021)
Angular Grid (max. ang.)         AngularGrid ... 3 (Lebedev-194)
Angular grid pruning method      GridPruning ... 4 (adaptive)
Weight generation scheme         WeightScheme... Becke
Basis function cutoff            BFCut       ... 1.0000e-11
Integration weight cutoff        WCut        ... 1.0000e-14
Angular grids for H and He will be reduced by one unit
Partially contracted basis set               ... on
Rotationally invariant grid construction     ... off

Total number of grid points                  ...   176132
Total number of batches                      ...     2790
Average number of points per batch           ...       63
Average number of grid points per atom       ...     2413
UseSFitting                                  ... on

Time for X-Grid setup             =    2.837 sec


--------------------
CPCM SOLVATION MODEL
--------------------
CPCM parameters:
  Epsilon                                         ...       4.9000
  Refrac                                          ...       1.4500
  Rsolv                                           ...       1.3000
  Surface type                                    ... GAUSSIAN VDW
  Epsilon function type                           ...         CPCM
Radii:
 Radius for C  used is    3.8550 Bohr (=   2.0400 Ang.)
 Radius for H  used is    2.4944 Bohr (=   1.3200 Ang.)
 Radius for O  used is    3.4469 Bohr (=   1.8240 Ang.)
Calculating surface                               ...        done! (  0.0s)
GEPOL surface points                              ...         3610
GEPOL Volume                                      ...    3604.4862
GEPOL Surface-area                                ...    1786.0772
Calculating surface distance matrix               ...        done! (  0.1s)
Performing Cholesky decomposition & store         ...        done! (  0.5s)
Overall time for CPCM initialization              ...                 0.7s
--------------
SCF ITERATIONS
--------------
ITER       Energy         Delta-E        Max-DP      RMS-DP      [F,P]     Damp
               ***  Starting incremental Fock matrix formation  ***

  HOMO= 109 E= -3.998 eV LUMO=  7.700 eV gap=  11.697 eV
  0  -1165.0092434475   0.000000000000 0.09739805  0.00106510  0.1963684 0.7000

  HOMO= 109 E= -4.856 eV LUMO=  7.019 eV gap=  11.875 eV
  1  -1165.2283000948  -0.219056647331 0.06534038  0.00078375  0.0950757 0.7000
                               ***Turning on DIIS***

  HOMO= 109 E= -5.450 eV LUMO=  6.473 eV gap=  11.923 eV
  2  -1165.3291209902  -0.100820895424 0.10305480  0.00138642  0.0375607 0.0000

  HOMO= 109 E= -6.006 eV LUMO=  5.945 eV gap=  11.950 eV
  3  -1165.4735749775  -0.144453987307 0.05136318  0.00057326  0.0462899 0.0000

  HOMO= 109 E= -6.076 eV LUMO=  5.874 eV gap=  11.949 eV
  4  -1165.5090905293  -0.035515551749 0.01186461  0.00013483  0.0058693 0.0000

  HOMO= 109 E= -6.025 eV LUMO=  5.932 eV gap=  11.957 eV
  5  -1165.5099387841  -0.000848254799 0.00252838  0.00003799  0.0050731 0.0000

  HOMO= 109 E= -6.011 eV LUMO=  5.946 eV gap=  11.957 eV
  6  -1165.5100197137  -0.000080929611 0.00116030  0.00001174  0.0010394 0.0000

  HOMO= 109 E= -6.013 eV LUMO= -0.859 eV gap=   5.154 eV
  7  -1165.5100250913  -0.000005377588 0.00049760  0.00000599  0.0002300 0.0000
               *** Restarting incremental Fock matrix formation ***
                                   *** Resetting DIIS ***

  HOMO= 109 E= -6.012 eV LUMO= -0.857 eV gap=   5.155 eV
  8  -1165.5099984042   0.000026687117 0.00032486  0.00000273  0.0001241 0.0000

  HOMO= 109 E= -6.013 eV LUMO= -0.857 eV gap=   5.155 eV
  9  -1165.5099984432  -0.000000039066 0.00014411  0.00000126  0.0001669 0.0000

  HOMO= 109 E= -6.013 eV LUMO= -0.858 eV gap=   5.155 eV
 10  -1165.5099985795  -0.000000136253 0.00006160  0.00000039  0.0000310 0.0000

  HOMO= 109 E= -6.013 eV LUMO= -0.858 eV gap=   5.155 eV
 11  -1165.5099986063  -0.000000026806 0.00002424  0.00000017  0.0000173 0.0000

  HOMO= 109 E= -6.013 eV LUMO= -0.858 eV gap=   5.155 eV
 12  -1165.5099985975   0.000000008764 0.00000714  0.00000004  0.0000033 0.0000
                 **** Energy Check signals convergence ****

               *****************************************************
               *                     SUCCESS                       *
               *           SCF CONVERGED AFTER  13 CYCLES          *
               *****************************************************

Old exchange energy                            =    -42.067453220 Eh
New exchange energy                            =    -42.067506604 Eh
Exchange energy change after final integration =     -0.000053384 Eh
Total energy after final integration           =  -1165.510051991 Eh
Final COS-X integration done in                =    13.248 sec

----------------
TOTAL SCF ENERGY
----------------

Total Energy       :        -1165.51005199 Eh          -31715.14088 eV

Components:
Nuclear Repulsion  :         2799.65301044 Eh           76182.43145 eV
Electronic Energy  :        -3965.16306243 Eh         -107897.57234 eV
One Electron Energy:        -7141.04743059 Eh         -194317.77951 eV
Two Electron Energy:         3175.88436816 Eh           86420.20718 eV
Max COSX asymmetry :            0.00000228 Eh               0.00006 eV
CPCM Dielectric    :           -0.01384514 Eh              -0.37675 eV

Virial components:
Potential Energy   :        -2322.40482919 Eh          -63195.84822 eV
Kinetic Energy     :         1156.89477720 Eh           31480.70734 eV
Virial Ratio       :            2.00744690


DFT components:
N(Alpha)           :      110.000237470817 electrons
N(Beta)            :      110.000237470817 electrons
N(Total)           :      220.000474941634 electrons
E(X)               :     -125.745227314495 Eh       
E(C)               :       -7.327968490364 Eh       
E(XC)              :     -133.073195804858 Eh       
DFET-embed. en.    :        0.000000000000 Eh       
CPCM Solvation Model Properties:
Surface-charge          :           -0.03432139
Charge-correction       :           -0.00008203 Eh              -0.00223 eV
Free-energy (cav+disp)  :  This term is not implemented in the current solvation scheme

---------------
SCF CONVERGENCE
---------------

  Last Energy change         ...   -1.0070e-08  Tolerance :   1.0000e-07
  Last MAX-Density change    ...    0.0000e+00  Tolerance :   1.0000e-05
  Last RMS-Density change    ...    0.0000e+00  Tolerance :   1.0000e-06
  Last DIIS Error            ...    2.1169e-06  Tolerance :   1.0000e-07

             **** THE GBW FILE WAS UPDATED (inpJ.gbw) ****
             **** DENSITY inpJ.scfp WAS UPDATED ****
             **** ENERGY FILE WAS UPDATED (inpJ.en.tmp) ****
             **** THE GBW FILE WAS UPDATED (inpJ.gbw) ****
             **** DENSITY inpJ.scfp WAS UPDATED ****
----------------
ORBITAL ENERGIES
----------------

  NO   OCC          E(Eh)            E(eV) 
   0   2.0000     -19.212432      -522.7968 
   1   2.0000     -10.300524      -280.2915 
   2   2.0000     -10.270389      -279.4715 
   3   2.0000     -10.268332      -279.4155 
   4   2.0000     -10.263684      -279.2890 
   5   2.0000     -10.257435      -279.1190 
   6   2.0000     -10.257055      -279.1087 
   7   2.0000     -10.252046      -278.9724 
   8   2.0000     -10.249302      -278.8977 
   9   2.0000     -10.248326      -278.8711 
  10   2.0000     -10.248049      -278.8636 
  11   2.0000     -10.247725      -278.8548 
  12   2.0000     -10.245992      -278.8076 
  13   2.0000     -10.245438      -278.7925 
  14   2.0000     -10.244664      -278.7715 
  15   2.0000     -10.244491      -278.7668 
  16   2.0000     -10.242909      -278.7237 
  17   2.0000     -10.241901      -278.6963 
  18   2.0000     -10.241766      -278.6926 
  19   2.0000     -10.241375      -278.6820 
  20   2.0000     -10.240000      -278.6446 
  21   2.0000     -10.234127      -278.4848 
  22   2.0000     -10.233929      -278.4794 
  23   2.0000     -10.232935      -278.4523 
  24   2.0000     -10.227118      -278.2940 
  25   2.0000     -10.225511      -278.2503 
  26   2.0000     -10.224618      -278.2260 
  27   2.0000     -10.223965      -278.2082 
  28   2.0000     -10.220707      -278.1196 
  29   2.0000      -1.043120       -28.3847 
  30   2.0000      -0.901586       -24.5334 
  31   2.0000      -0.882230       -24.0067 
  32   2.0000      -0.859577       -23.3903 
  33   2.0000      -0.845637       -23.0110 
  34   2.0000      -0.822556       -22.3829 
  35   2.0000      -0.814435       -22.1619 
  36   2.0000      -0.795935       -21.6585 
  37   2.0000      -0.795073       -21.6350 
  38   2.0000      -0.777262       -21.1504 
  39   2.0000      -0.758180       -20.6311 
  40   2.0000      -0.740432       -20.1482 
  41   2.0000      -0.734085       -19.9755 
  42   2.0000      -0.715272       -19.4635 
  43   2.0000      -0.703261       -19.1367 
  44   2.0000      -0.702889       -19.1266 
  45   2.0000      -0.696075       -18.9412 
  46   2.0000      -0.670591       -18.2477 
  47   2.0000      -0.662447       -18.0261 
  48   2.0000      -0.632361       -17.2074 
  49   2.0000      -0.622260       -16.9326 
  50   2.0000      -0.612752       -16.6738 
  51   2.0000      -0.607658       -16.5352 
  52   2.0000      -0.596641       -16.2354 
  53   2.0000      -0.579822       -15.7778 
  54   2.0000      -0.562025       -15.2935 
  55   2.0000      -0.542883       -14.7726 
  56   2.0000      -0.539562       -14.6822 
  57   2.0000      -0.529381       -14.4052 
  58   2.0000      -0.515324       -14.0227 
  59   2.0000      -0.509404       -13.8616 
  60   2.0000      -0.502084       -13.6624 
  61   2.0000      -0.492204       -13.3936 
  62   2.0000      -0.482113       -13.1190 
  63   2.0000      -0.480487       -13.0747 
  64   2.0000      -0.477835       -13.0026 
  65   2.0000      -0.469369       -12.7722 
  66   2.0000      -0.464859       -12.6495 
  67   2.0000      -0.459184       -12.4950 
  68   2.0000      -0.456095       -12.4110 
  69   2.0000      -0.453044       -12.3280 
  70   2.0000      -0.450493       -12.2585 
  71   2.0000      -0.443030       -12.0555 
  72   2.0000      -0.436239       -11.8707 
  73   2.0000      -0.432828       -11.7779 
  74   2.0000      -0.427205       -11.6248 
  75   2.0000      -0.421708       -11.4753 
  76   2.0000      -0.415607       -11.3092 
  77   2.0000      -0.413745       -11.2586 
  78   2.0000      -0.410098       -11.1593 
  79   2.0000      -0.403624       -10.9832 
  80   2.0000      -0.402484       -10.9522 
  81   2.0000      -0.398022       -10.8307 
  82   2.0000      -0.396019       -10.7762 
  83   2.0000      -0.391157       -10.6439 
  84   2.0000      -0.385199       -10.4818 
  85   2.0000      -0.382185       -10.3998 
  86   2.0000      -0.377329       -10.2677 
  87   2.0000      -0.375134       -10.2079 
  88   2.0000      -0.373075       -10.1519 
  89   2.0000      -0.363358        -9.8875 
  90   2.0000      -0.360944        -9.8218 
  91   2.0000      -0.359066        -9.7707 
  92   2.0000      -0.355543        -9.6748 
  93   2.0000      -0.345566        -9.4033 
  94   2.0000      -0.340815        -9.2741 
  95   2.0000      -0.338995        -9.2245 
  96   2.0000      -0.333567        -9.0768 
  97   2.0000      -0.331658        -9.0249 
  98   2.0000      -0.331319        -9.0156 
  99   2.0000      -0.328757        -8.9459 
 100   2.0000      -0.327201        -8.9036 
 101   2.0000      -0.324414        -8.8277 
 102   2.0000      -0.319201        -8.6859 
 103   2.0000      -0.316050        -8.6002 
 104   2.0000      -0.310473        -8.4484 
 105   2.0000      -0.300748        -8.1838 
 106   2.0000      -0.276538        -7.5250 
 107   2.0000      -0.274956        -7.4819 
 108   2.0000      -0.256754        -6.9866 
 109   2.0000      -0.220965        -6.0127 
 110   0.0000      -0.031513        -0.8575 
 111   0.0000       0.019370         0.5271 
 112   0.0000       0.026298         0.7156 
 113   0.0000       0.079246         2.1564 
 114   0.0000       0.087835         2.3901 
 115   0.0000       0.101269         2.7557 
 116   0.0000       0.103562         2.8181 
 117   0.0000       0.107810         2.9337 
 118   0.0000       0.111168         3.0250 
 119   0.0000       0.112379         3.0580 
 120   0.0000       0.118222         3.2170 
 121   0.0000       0.120662         3.2834 
 122   0.0000       0.126664         3.4467 
 123   0.0000       0.131752         3.5852 
 124   0.0000       0.132381         3.6023 
 125   0.0000       0.137375         3.7382 
 126   0.0000       0.139092         3.7849 
 127   0.0000       0.140464         3.8222 
 128   0.0000       0.143703         3.9104 
 129   0.0000       0.152300         4.1443 
 130   0.0000       0.154138         4.1943 
 131   0.0000       0.155237         4.2242 
 132   0.0000       0.163475         4.4484 
 133   0.0000       0.164350         4.4722 
 134   0.0000       0.167815         4.5665 
 135   0.0000       0.170681         4.6445 
 136   0.0000       0.174464         4.7474 
 137   0.0000       0.174975         4.7613 
 138   0.0000       0.177734         4.8364 
 139   0.0000       0.179884         4.8949 
 140   0.0000       0.183649         4.9974 
 141   0.0000       0.185697         5.0531 
 142   0.0000       0.186592         5.0774 
 143   0.0000       0.191763         5.2181 
 144   0.0000       0.195960         5.3323 
 145   0.0000       0.196859         5.3568 
 146   0.0000       0.200758         5.4629 
 147   0.0000       0.202751         5.5171 
 148   0.0000       0.204739         5.5712 
 149   0.0000       0.210703         5.7335 
 150   0.0000       0.213747         5.8164 
 151   0.0000       0.219869         5.9829 
 152   0.0000       0.224680         6.1139 
 153   0.0000       0.229216         6.2373 
 154   0.0000       0.231774         6.3069 
 155   0.0000       0.233797         6.3619 
 156   0.0000       0.241634         6.5752 
 157   0.0000       0.243825         6.6348 
 158   0.0000       0.246619         6.7108 
 159   0.0000       0.252885         6.8814 
 160   0.0000       0.257430         7.0050 
 161   0.0000       0.259071         7.0497 
 162   0.0000       0.261005         7.1023 
 163   0.0000       0.263874         7.1804 
 164   0.0000       0.269870         7.3435 
 165   0.0000       0.275942         7.5088 
 166   0.0000       0.277565         7.5529 
 167   0.0000       0.278418         7.5761 
 168   0.0000       0.291058         7.9201 
 169   0.0000       0.296773         8.0756 
 170   0.0000       0.298475         8.1219 
 171   0.0000       0.301722         8.2103 
 172   0.0000       0.307208         8.3595 
 173   0.0000       0.312498         8.5035 
 174   0.0000       0.318186         8.6583 
 175   0.0000       0.321119         8.7381 
 176   0.0000       0.328014         8.9257 
 177   0.0000       0.333788         9.0828 
 178   0.0000       0.345473         9.4008 
 179   0.0000       0.358450         9.7539 
 180   0.0000       0.361947         9.8491 
 181   0.0000       0.379702        10.3322 
 182   0.0000       0.381902        10.3921 
 183   0.0000       0.410486        11.1699 
 184   0.0000       0.420634        11.4460 
 185   0.0000       0.464316        12.6347 
 186   0.0000       0.473858        12.8943 
 187   0.0000       0.491237        13.3672 
 188   0.0000       0.507177        13.8010 
 189   0.0000       0.515983        14.0406 
 190   0.0000       0.520886        14.1740 
 191   0.0000       0.525037        14.2870 
 192   0.0000       0.542208        14.7542 
 193   0.0000       0.564898        15.3717 
 194   0.0000       0.572100        15.5676 
 195   0.0000       0.573756        15.6127 
 196   0.0000       0.578610        15.7448 
 197   0.0000       0.587467        15.9858 
 198   0.0000       0.594986        16.1904 
 199   0.0000       0.607933        16.5427 
 200   0.0000       0.614667        16.7259 
 201   0.0000       0.623902        16.9772 
 202   0.0000       0.627385        17.0720 
 203   0.0000       0.633119        17.2280 
 204   0.0000       0.637159        17.3380 
 205   0.0000       0.646197        17.5839 
 206   0.0000       0.656874        17.8745 
 207   0.0000       0.658893        17.9294 
 208   0.0000       0.666734        18.1428 
 209   0.0000       0.668721        18.1968 
 210   0.0000       0.676932        18.4202 
 211   0.0000       0.682127        18.5616 
 212   0.0000       0.687618        18.7110 
 213   0.0000       0.691466        18.8157 
 214   0.0000       0.704710        19.1761 
 215   0.0000       0.706664        19.2293 
 216   0.0000       0.710144        19.3240 
 217   0.0000       0.714500        19.4425 
 218   0.0000       0.717240        19.5171 
 219   0.0000       0.720712        19.6116 
 220   0.0000       0.726551        19.7705 
 221   0.0000       0.733064        19.9477 
 222   0.0000       0.735567        20.0158 
 223   0.0000       0.739615        20.1259 
 224   0.0000       0.741013        20.1640 
 225   0.0000       0.747167        20.3314 
 226   0.0000       0.751920        20.4608 
 227   0.0000       0.756829        20.5944 
 228   0.0000       0.760126        20.6841 
 229   0.0000       0.763777        20.7834 
 230   0.0000       0.772747        21.0275 
 231   0.0000       0.775584        21.1047 
 232   0.0000       0.779672        21.2160 
 233   0.0000       0.783013        21.3069 
 234   0.0000       0.788441        21.4546 
 235   0.0000       0.794362        21.6157 
 236   0.0000       0.798425        21.7262 
 237   0.0000       0.804937        21.9034 
 238   0.0000       0.809526        22.0283 
 239   0.0000       0.813852        22.1460 
 240   0.0000       0.822935        22.3932 
 241   0.0000       0.826193        22.4819 
 242   0.0000       0.837275        22.7834 
 243   0.0000       0.848430        23.0870 
 244   0.0000       0.854115        23.2416 
 245   0.0000       0.857037        23.3212 
 246   0.0000       0.863848        23.5065 
 247   0.0000       0.867030        23.5931 
 248   0.0000       0.869225        23.6528 
 249   0.0000       0.872370        23.7384 
 250   0.0000       0.872544        23.7431 
 251   0.0000       0.875718        23.8295 
 252   0.0000       0.877068        23.8662 
 253   0.0000       0.880052        23.9474 
 254   0.0000       0.883233        24.0340 
 255   0.0000       0.884316        24.0634 
 256   0.0000       0.888967        24.1900 
 257   0.0000       0.890854        24.2414 
 258   0.0000       0.892412        24.2838 
 259   0.0000       0.898646        24.4534 
 260   0.0000       0.900297        24.4983 
 261   0.0000       0.902205        24.5502 
 262   0.0000       0.908115        24.7111 
 263   0.0000       0.908754        24.7285 
 264   0.0000       0.911646        24.8071 
 265   0.0000       0.914452        24.8835 
 266   0.0000       0.923050        25.1175 
 267   0.0000       0.926719        25.2173 
 268   0.0000       0.930950        25.3324 
 269   0.0000       0.935526        25.4570 
 270   0.0000       0.939564        25.5668 
 271   0.0000       0.943618        25.6771 
 272   0.0000       0.947176        25.7740 
 273   0.0000       0.950581        25.8666 
 274   0.0000       0.956887        26.0382 
 275   0.0000       0.960381        26.1333 
 276   0.0000       0.964935        26.2572 
 277   0.0000       0.969877        26.3917 
 278   0.0000       0.972257        26.4564 
 279   0.0000       0.982173        26.7263 
 280   0.0000       0.993072        27.0229 
 281   0.0000       1.001567        27.2540 
 282   0.0000       1.006997        27.4018 
 283   0.0000       1.009199        27.4617 
 284   0.0000       1.013320        27.5739 
 285   0.0000       1.024498        27.8780 
 286   0.0000       1.039604        28.2891 
 287   0.0000       1.043191        28.3867 
 288   0.0000       1.061459        28.8838 
 289   0.0000       1.063783        28.9470 
 290   0.0000       1.074810        29.2471 
 291   0.0000       1.078747        29.3542 
 292   0.0000       1.091788        29.7091 
 293   0.0000       1.101731        29.9796 
 294   0.0000       1.115151        30.3448 
 295   0.0000       1.118674        30.4407 
 296   0.0000       1.123158        30.5627 
 297   0.0000       1.133250        30.8373 
 298   0.0000       1.143791        31.1241 
 299   0.0000       1.151182        31.3253 
 300   0.0000       1.162867        31.6432 
 301   0.0000       1.171813        31.8866 
 302   0.0000       1.179649        32.0999 
 303   0.0000       1.209210        32.9043 
 304   0.0000       1.232595        33.5406 
 305   0.0000       1.236120        33.6365 
 306   0.0000       1.245692        33.8970 
 307   0.0000       1.278376        34.7864 
 308   0.0000       1.281889        34.8820 
 309   0.0000       1.307088        35.5677 
 310   0.0000       1.324038        36.0289 
 311   0.0000       1.334707        36.3192 
 312   0.0000       1.366036        37.1717 
 313   0.0000       1.371983        37.3336 
 314   0.0000       1.410351        38.3776 
 315   0.0000       1.490526        40.5593 
 316   0.0000       1.527059        41.5534 
 317   0.0000       1.560856        42.4730 
 318   0.0000       1.591247        43.3000 
 319   0.0000       1.675193        45.5843 
 320   0.0000       6.202022       168.7656 
 321   0.0000       6.231976       169.5807 
 322   0.0000       6.260196       170.3486 
 323   0.0000       6.268056       170.5625 
 324   0.0000       6.276903       170.8032 
 325   0.0000       6.289456       171.1448 
 326   0.0000       6.299056       171.4060 
 327   0.0000       6.302276       171.4937 
 328   0.0000       6.316326       171.8760 
 329   0.0000       6.335631       172.4013 
 330   0.0000       6.343778       172.6230 
 331   0.0000       6.351127       172.8230 
 332   0.0000       6.362502       173.1325 
 333   0.0000       6.370604       173.3529 
 334   0.0000       6.385615       173.7614 
 335   0.0000       6.393119       173.9656 
 336   0.0000       6.407475       174.3563 
 337   0.0000       6.415073       174.5630 
 338   0.0000       6.420904       174.7217 
 339   0.0000       6.428458       174.9272 
 340   0.0000       6.442913       175.3206 
 341   0.0000       6.444390       175.3608 
 342   0.0000       6.453154       175.5993 
 343   0.0000       6.458040       175.7322 
 344   0.0000       6.474128       176.1700 
 345   0.0000       6.483182       176.4163 
 346   0.0000       6.485976       176.4924 
 347   0.0000       6.491176       176.6339 
 348   0.0000       6.510277       177.1536 
 349   0.0000       6.513254       177.2347 
 350   0.0000       6.520402       177.4291 
 351   0.0000       6.526794       177.6031 
 352   0.0000       6.536037       177.8546 
 353   0.0000       6.545812       178.1206 
 354   0.0000       6.548057       178.1817 
 355   0.0000       6.553256       178.3232 
 356   0.0000       6.559099       178.4822 
 357   0.0000       6.561353       178.5435 
 358   0.0000       6.571649       178.8237 
 359   0.0000       6.581079       179.0803 
 360   0.0000       6.583833       179.1552 
 361   0.0000       6.586475       179.2271 
 362   0.0000       6.588511       179.2825 
 363   0.0000       6.595463       179.4717 
 364   0.0000       6.598929       179.5660 
 365   0.0000       6.608377       179.8231 
 366   0.0000       6.610166       179.8718 
 367   0.0000       6.611111       179.8975 
 368   0.0000       6.615377       180.0136 
 369   0.0000       6.621846       180.1896 
 370   0.0000       6.625596       180.2916 
 371   0.0000       6.628954       180.3830 
 372   0.0000       6.630415       180.4228 
 373   0.0000       6.634991       180.5473 
 374   0.0000       6.635087       180.5499 
[...]
     69 H        0.000      0.000      0.000      0.000      0.000      0.000
     70 H        0.000      0.000      0.000     -0.000      0.001      0.019
     71 H        0.000      0.000      0.000      0.000      0.001      0.015
     72 H        0.000      0.000      0.000      0.000      0.003      0.036
                 25 H       27 H       28 H       30 H       31 H       33 H  
      3 H        0.075     -0.003      0.002      0.000      0.000      0.090
      4 H        2.357     -0.106      0.062      0.000      0.000      2.633
      8 H        0.124      0.000      0.000      0.000      0.000      0.117
      9 H       -0.260      0.014      0.000      0.000      0.000     -0.309
     10 H        0.000      0.000      0.000      0.000      0.000      0.000
     11 H        0.000      0.000      0.000      0.000      0.000      0.000
     13 H       -0.039      0.000      0.000      0.000      0.000      0.000
     16 H       -0.262      0.013     -0.004     -0.030     -0.002     -0.305
     17 H       -0.240      0.012      0.000      0.000      0.000     -0.298
     19 H        0.921     -0.043      0.070      0.061      0.005      0.990
     21 H       -2.896      0.185      0.679     -0.223     -0.028     -2.464
     24 H      -13.513      4.338      2.333      0.677     -0.497     -0.183
     25 H        0.000     12.967      5.255     -0.637     -0.363     -2.279
     27 H       12.967      0.000    -13.627      3.969     13.027      0.066
     28 H        5.255    -13.627      0.000      2.671      4.098      0.286
     30 H       -0.637      3.969      2.671      0.000    -13.010      0.029
     31 H       -0.363     13.027      4.098    -13.010      0.000     -0.313
     33 H       -2.279      0.066      0.286      0.029     -0.313      0.000
     35 H       -0.026      0.001     -0.001      0.000     -0.000     -0.034
     37 H        0.274      0.006     -0.035      0.536     -0.040      6.184
     38 H        0.184      0.002     -0.029     -0.021      0.122     12.296
     40 H       -0.014      0.023      0.139     -0.000     -0.037     -0.247
     41 H        0.009      0.019     -0.030      0.012      0.090     -0.390
     42 H       -0.019      0.007     -0.006     -0.263     -0.390     -0.210
     45 H       -0.061     -0.117     -0.147     -0.150      1.807     -0.478
     46 H       -0.010     -0.196      0.032     -0.198     -0.479     -0.171
     47 H        0.014      0.035      0.059     -0.315      0.058      0.870
     48 H       -0.014      0.031      0.021      0.035      0.017     -0.001
     52 H       -0.002     -0.001      0.010     -0.009      0.003      0.017
     53 H       -0.000      0.000     -0.001      0.000     -0.000     -0.003
     57 H        0.000      0.000      0.000      0.001      0.001      0.000
     58 H        0.000      0.000      0.000      0.000      0.000     -0.000
     61 H        0.000      0.000      0.000      0.000      0.000      0.000
     62 H        0.000      0.000      0.000      0.000     -0.000     -0.000
     63 H        0.000      0.000      0.000      0.000      0.000      0.000
     64 H        0.000      0.000      0.000      0.000      0.000      0.000
     65 H        0.000      0.000      0.000      0.000      0.000      0.000
     66 H        0.000      0.000      0.000      0.000      0.000      0.000
     67 H       -0.000      0.000      0.000      0.000      0.000     -0.000
     68 H        0.000      0.000      0.000      0.000     -0.000      0.000
     69 H        0.000      0.000      0.000      0.000     -0.000     -0.000
     70 H        0.003     -0.003     -0.007     -0.455     -0.102      0.005
     71 H       -0.000     -0.005     -0.005      0.039     -0.002      0.002
     72 H        0.000     -0.008     -0.010      0.051     -0.063      0.007
                 35 H       37 H       38 H       40 H       41 H       42 H  
      3 H       -0.268     -0.001     -0.001      0.000      0.000      0.000
      4 H       -0.647     -0.044     -0.019      0.000      0.000      0.000
      8 H       -0.029     -0.002     -0.002      0.000     -0.000      0.000
      9 H       -0.146      0.005      0.002      0.000      0.001      0.000
     10 H       -0.389     -0.000     -0.000      0.000      0.000      0.000
     11 H       -0.143     -0.002     -0.000      0.000      0.000      0.000
     13 H       12.396      0.000      0.000      0.000      0.000      0.000
     16 H       -0.003      0.004      0.004      0.000      0.001     -0.001
     17 H       -0.001      0.005      0.004     -0.001      0.001      0.000
     19 H        0.042     -0.009      0.086      0.013     -0.006      0.004
     21 H       -0.014      0.047     -0.532     -0.009      0.061     -0.025
     24 H       -0.001     -0.050     -0.080     -0.022      0.074     -0.024
     25 H       -0.026      0.274      0.184     -0.014      0.009     -0.019
     27 H        0.001      0.006      0.002      0.023      0.019      0.007
     28 H       -0.001     -0.035     -0.029      0.139     -0.030     -0.006
     30 H        0.000      0.536     -0.021     -0.000      0.012     -0.263
     31 H       -0.000     -0.040      0.122     -0.037      0.090     -0.390
     33 H       -0.034      6.184     12.296     -0.247     -0.390     -0.210
     35 H        0.000      0.000     -0.000      0.000      0.000      0.000
     37 H        0.000      0.000    -12.103      9.417      2.216     -0.248
     38 H       -0.000    -12.103      0.000      7.230     11.216     -0.461
     40 H        0.000      9.417      7.230      0.000    -14.052      9.674
     41 H        0.000      2.216     11.216    -14.052      0.000      8.039
     42 H        0.000     -0.248     -0.461      9.674      8.039      0.000
     45 H       -0.000      0.100     -0.070     -0.113     -0.039     -0.093
     46 H        0.000      0.049      0.032     -0.071      0.016      0.981
     47 H        0.000     -0.159      0.014      0.040      0.036     -0.398
     48 H        0.000      0.138      0.005     -0.155     -0.451     10.618
     52 H        0.000     -0.008     -0.001     -0.025      0.071     -0.564
     53 H        0.000      0.008      0.017     -0.184     -0.029     -0.418
     57 H        0.000      0.001      0.005     -0.011     -0.003      0.059
     58 H        0.000      0.000      0.000     -0.001     -0.002     -0.001
     61 H        0.000      0.000      0.000     -0.000     -0.001     -0.001
     62 H        0.000      0.000      0.000      0.003      0.004     -0.005
     63 H        0.000      0.000      0.000     -0.000     -0.000      0.000
     64 H        0.000      0.000      0.000     -0.001     -0.001     -0.001
     65 H        0.000      0.000      0.000      0.001     -0.000      0.000
     66 H        0.000      0.000      0.000     -0.000      0.001     -0.003
     67 H        0.000     -0.000     -0.000     -0.104     -0.013     -0.002
     68 H        0.000     -0.001     -0.001     -0.008     -0.001     -0.003
     69 H        0.000      0.000      0.002     -0.019     -0.003      0.003
     70 H        0.000     -0.016     -0.002      0.034     -0.002     -0.163
     71 H        0.000     -0.025      0.031     -0.003     -0.071     -0.347
     72 H        0.000      0.062      0.009     -0.041     -0.012     -0.445
                 45 H       46 H       47 H       48 H       52 H       53 H  
      3 H        0.001     -0.000     -0.001      0.000      0.000      0.000
      4 H        0.026     -0.021      0.000      0.000      0.000      0.000
      8 H        0.001     -0.001      0.000      0.000      0.000      0.000
      9 H       -0.003      0.003      0.000      0.000      0.000      0.000
     10 H        0.000     -0.000      0.000      0.000      0.000      0.000
     11 H        0.000      0.000      0.000      0.000      0.000      0.000
     13 H        0.000      0.000      0.000      0.000      0.000      0.000
     16 H       -0.003      0.001      0.002     -0.002      0.000      0.000
     17 H       -0.003      0.001      0.001     -0.002      0.000      0.000
     19 H        0.010     -0.011     -0.008      0.005      0.000      0.000
     21 H       -0.019      0.045      0.013     -0.015      0.001     -0.000
     24 H       -0.022     -0.022     -0.015      0.003      0.000     -0.000
     25 H       -0.061     -0.010      0.014     -0.014     -0.002     -0.000
     27 H       -0.117     -0.196      0.035      0.031     -0.001      0.000
     28 H       -0.147      0.032      0.059      0.021      0.010     -0.001
     30 H       -0.150     -0.198     -0.315      0.035     -0.009      0.000
     31 H        1.807     -0.479      0.058      0.017      0.003     -0.000
     33 H       -0.478     -0.171      0.870     -0.001      0.017     -0.003
     35 H       -0.000      0.000      0.000      0.000      0.000      0.000
     37 H        0.100      0.049     -0.159      0.138     -0.008      0.008
     38 H       -0.070      0.032      0.014      0.005     -0.001      0.017
     40 H       -0.113     -0.071      0.040     -0.155     -0.025     -0.184
     41 H       -0.039      0.016      0.036     -0.451      0.071     -0.029
     42 H       -0.093      0.981     -0.398     10.618     -0.564     -0.418
     45 H        0.000    -13.652    -13.103     -0.239      0.016     -0.000
     46 H      -13.652      0.000    -13.036     -0.140      0.015      0.003
     47 H      -13.103    -13.036      0.000     -0.045      0.009     -0.004
     48 H       -0.239     -0.140     -0.045      0.000      5.825     -2.051
     52 H        0.016      0.015      0.009      5.825      0.000     16.783
     53 H       -0.000      0.003     -0.004     -2.051     16.783      0.000
     57 H       -0.001      0.000     -0.001      0.233     -0.741     10.068
     58 H       -0.000     -0.000     -0.000     -0.071      0.148     -0.177
     61 H       -0.000      0.000     -0.000     -0.048      0.053     -0.318
     62 H        0.000      0.000      0.000      0.106     -0.331     -0.034
     63 H       -0.000      0.000     -0.000     -0.056      0.123     -0.160
     64 H        0.000      0.000      0.000      0.005     -0.010      0.056
     65 H        0.000      0.000      0.000     -0.016      0.003      0.017
     66 H        0.000      0.000      0.000      0.163     -0.079      0.051
     67 H       -0.000     -0.000      0.000     -0.013      0.048     -0.186
     68 H        0.000      0.000      0.000      0.004      0.095     -0.036
     69 H       -0.000      0.000      0.000      0.018     -0.025      0.011
     70 H       -0.026     -0.077     -0.315      5.591     -0.029     -0.409
     71 H        0.020     -0.038     -0.059     12.410     -0.237      0.143
     72 H       -0.011     -0.031     -0.020      1.905     -0.216     -0.046
                 57 H       58 H       61 H       62 H       63 H       64 H  
      3 H        0.000      0.000      0.000      0.000      0.000      0.000
      4 H        0.000      0.000      0.000      0.000      0.000      0.000
      8 H        0.000      0.000      0.000      0.000      0.000      0.000
      9 H        0.000      0.000      0.000      0.000      0.000      0.000
     10 H        0.000      0.000      0.000      0.000      0.000      0.000
     11 H        0.000      0.000      0.000      0.000      0.000      0.000
     13 H        0.000      0.000      0.000      0.000      0.000      0.000
     16 H        0.000      0.000      0.000      0.000      0.000      0.000
     17 H        0.000      0.000      0.000      0.000      0.000      0.000
     19 H        0.000      0.000      0.000      0.000      0.000      0.000
     21 H        0.000      0.000      0.000      0.000      0.000      0.000
     24 H        0.000      0.000      0.000      0.000      0.000      0.000
     25 H        0.000      0.000      0.000      0.000      0.000      0.000
     27 H        0.000      0.000      0.000      0.000      0.000      0.000
     28 H        0.000      0.000      0.000      0.000      0.000      0.000
     30 H        0.001      0.000      0.000      0.000      0.000      0.000
     31 H        0.001      0.000      0.000     -0.000      0.000      0.000
     33 H        0.000     -0.000      0.000     -0.000      0.000      0.000
     35 H        0.000      0.000      0.000      0.000      0.000      0.000
     37 H        0.001      0.000      0.000      0.000      0.000      0.000
     38 H        0.005      0.000      0.000      0.000      0.000      0.000
     40 H       -0.011     -0.001     -0.000      0.003     -0.000     -0.001
     41 H       -0.003     -0.002     -0.001      0.004     -0.000     -0.001
     42 H        0.059     -0.001     -0.001     -0.005      0.000     -0.001
     45 H       -0.001     -0.000     -0.000      0.000     -0.000      0.000
     46 H        0.000     -0.000      0.000      0.000      0.000      0.000
     47 H       -0.001     -0.000     -0.000      0.000     -0.000      0.000
     48 H        0.233     -0.071     -0.048      0.106     -0.056      0.005
     52 H       -0.741      0.148      0.053     -0.331      0.123     -0.010
     53 H       10.068     -0.177     -0.318     -0.034     -0.160      0.056
     57 H        0.000      2.905     13.055      2.735      4.166     -0.319
     58 H        2.905      0.000     -0.553     -0.446      0.329      2.743
     61 H       13.055     -0.553      0.000    -12.343    -12.916      0.026
     62 H        2.735     -0.446    -12.343      0.000    -13.033      0.008
     63 H        4.166      0.329    -12.916    -13.033      0.000      0.036
     64 H       -0.319      2.743      0.026      0.008      0.036      0.000
     65 H       -0.267     13.230      0.037     -0.312     -0.109    -12.030
     66 H       -0.155      4.367      0.067     -0.151     -0.061    -12.698
     67 H       -0.398      3.012     -0.016      0.057      0.023      2.845
     68 H        0.498      3.971     -0.098      0.038     -0.143     -0.021
     69 H       -0.532     13.151     -0.153     -0.016     -0.108     -0.249
     70 H        0.020     -0.019     -0.020      0.185     -0.010      0.000
     71 H       -0.011      0.004      0.002     -0.026      0.001     -0.000
     72 H       -0.000     -0.001     -0.003      0.020     -0.001      0.000
                 65 H       66 H       67 H       68 H       69 H       70 H  
      3 H        0.000      0.000      0.000      0.000      0.000      0.000
      4 H        0.000      0.000      0.000      0.000      0.000      0.000
      8 H        0.000      0.000      0.000      0.000      0.000      0.000
      9 H        0.000      0.000      0.000      0.000      0.000      0.000
     10 H        0.000      0.000      0.000      0.000      0.000      0.000
     11 H        0.000      0.000      0.000      0.000      0.000      0.000
     13 H        0.000      0.000      0.000      0.000      0.000      0.000
     16 H        0.000      0.000      0.000      0.000      0.000      0.000
     17 H        0.000      0.000      0.000      0.000      0.000      0.000
     19 H        0.000      0.000      0.000      0.000      0.000     -0.000
     21 H        0.000      0.000     -0.000      0.000      0.000      0.001
     24 H        0.000      0.000      0.000      0.000      0.000      0.019
     25 H        0.000      0.000     -0.000      0.000      0.000      0.003
     27 H        0.000      0.000      0.000      0.000      0.000     -0.003
     28 H        0.000      0.000      0.000      0.000      0.000     -0.007
     30 H        0.000      0.000      0.000      0.000      0.000     -0.455
     31 H        0.000      0.000      0.000     -0.000     -0.000     -0.102
     33 H        0.000      0.000     -0.000      0.000     -0.000      0.005
     35 H        0.000      0.000      0.000      0.000      0.000      0.000
     37 H        0.000      0.000     -0.000     -0.001      0.000     -0.016
     38 H        0.000      0.000     -0.000     -0.001      0.002     -0.002
     40 H        0.001     -0.000     -0.104     -0.008     -0.019      0.034
     41 H       -0.000      0.001     -0.013     -0.001     -0.003     -0.002
     42 H        0.000     -0.003     -0.002     -0.003      0.003     -0.163
     45 H        0.000      0.000     -0.000      0.000     -0.000     -0.026
     46 H        0.000      0.000     -0.000      0.000      0.000     -0.077
     47 H        0.000      0.000      0.000      0.000      0.000     -0.315
     48 H       -0.016      0.163     -0.013      0.004      0.018      5.591
     52 H        0.003     -0.079      0.048      0.095     -0.025     -0.029
     53 H        0.017      0.051     -0.186     -0.036      0.011     -0.409
     57 H       -0.267     -0.155     -0.398      0.498     -0.532      0.020
     58 H       13.230      4.367      3.012      3.971     13.151     -0.019
     61 H        0.037      0.067     -0.016     -0.098     -0.153     -0.020
     62 H       -0.312     -0.151      0.057      0.038     -0.016      0.185
     63 H       -0.109     -0.061      0.023     -0.143     -0.108     -0.010
     64 H      -12.030    -12.698      2.845     -0.021     -0.249      0.000
     65 H        0.000    -13.041     -0.259     -0.218     -0.331      0.000
     66 H      -13.041      0.000     -0.130     -0.215     -0.212      0.000
     67 H       -0.259     -0.130      0.000    -13.145    -12.168     -0.002
     68 H       -0.218     -0.215    -13.145      0.000    -13.017      0.000
     69 H       -0.331     -0.212    -12.168    -13.017      0.000      0.002
     70 H        0.000      0.000     -0.002      0.000      0.002      0.000
     71 H        0.000      0.000      0.001      0.000     -0.000    -11.535
     72 H        0.000     -0.000     -0.000     -0.001      0.001    -13.445
                 71 H       72 H  
      3 H        0.000      0.000
      4 H        0.000      0.000
      8 H        0.000      0.000
      9 H        0.000      0.000
     10 H        0.000      0.000
     11 H        0.000      0.000
     13 H        0.000      0.000
     16 H        0.000      0.000
     17 H        0.000      0.000
     19 H        0.000      0.000
     21 H        0.001      0.003
     24 H        0.015      0.036
     25 H       -0.000      0.000
     27 H       -0.005     -0.008
     28 H       -0.005     -0.010
     30 H        0.039      0.051
     31 H       -0.002     -0.063
     33 H        0.002      0.007
     35 H        0.000      0.000
     37 H       -0.025      0.062
     38 H        0.031      0.009
     40 H       -0.003     -0.041
     41 H       -0.071     -0.012
     42 H       -0.347     -0.445
     45 H        0.020     -0.011
     46 H       -0.038     -0.031
     47 H       -0.059     -0.020
     48 H       12.410      1.905
     52 H       -0.237     -0.216
     53 H        0.143     -0.046
     57 H       -0.011     -0.000
     58 H        0.004     -0.001
     61 H        0.002     -0.003
     62 H       -0.026      0.020
     63 H        0.001     -0.001
     64 H       -0.000      0.000
     65 H        0.000      0.000
     66 H        0.000     -0.000
     67 H        0.001     -0.000
     68 H        0.000     -0.001
     69 H       -0.000      0.001
     70 H      -11.535    -13.445
     71 H        0.000    -13.064
     72 H      -13.064      0.000

Maximum memory used throughout the entire EPRNMR-calculation: 984.3 MB

Timings for individual modules:

Sum of individual times         ...      395.861 sec (=   6.598 min)
GTO integral calculation        ...        0.619 sec (=   0.010 min)   0.2 %
SCF iterations                  ...      103.371 sec (=   1.723 min)  26.1 %
EPR/NMR calculation             ...      291.872 sec (=   4.865 min)  73.7 %
                             ****ORCA TERMINATED NORMALLY****
TOTAL RUN TIME: 0 days 0 hours 6 minutes 36 seconds 280 msec
