
                                 *****************
                                 * O   R   C   A *
                                 *****************

                                            #,                                       
                                            ###                                      
                                            ####                                     
                                            #####                                    
                                            ######                                   
                                           ########,                                 
                                     ,,################,,,,,                         
                               ,,#################################,,                 
                          ,,##########################################,,             
                       ,#########################################, ''#####,          
                    ,#############################################,,   '####,        
                  ,##################################################,,,,####,       
                ,###########''''           ''''###############################       
              ,#####''   ,,,,##########,,,,          '''####'''          '####       
            ,##' ,,,,###########################,,,                        '##       
           ' ,,###''''                  '''############,,,                           
         ,,##''                                '''############,,,,        ,,,,,,###''
      ,#''                                            '''#######################'''  
     '                                                          ''''####''''         
             ,#######,   #######,   ,#######,      ##                                
            ,#'     '#,  ##    ##  ,#'     '#,    #''#        ,####,   ,####,        
            ##       ##  ##   ,#'  ##            #'  '#       #'       #'  '#        
            ##       ##  #######   ##           ,######,      #####,   #    #        
            '#,     ,#'  ##    ##  '#,     ,#' ,#      #,     #,   #   #,  ,#        
             '#######'   ##     ##  '#######'  #'      '#     '####' # '####'        



                #########################################################
                #                        -***-                          #
                #          Department of theory and spectroscopy        #
                #                                                       #
                #                      Frank Neese                      #
                #                                                       #
                #     Directorship, Architecture, Infrastructure        #
                #                    SHARK, DRIVERS                     #
                #        Core code/Algorithms in most modules           #
                #                                                       #
                #        Max Planck Institute fuer Kohlenforschung      #
                #                Kaiser Wilhelm Platz 1                 #
                #                 D-45470 Muelheim/Ruhr                 #
                #                      Germany                          #
                #                                                       #
                #                  All rights reserved                  #
                #                        -***-                          #
                #########################################################


                         Program Version 6.0.0  -   RELEASE  -


 With contributions from (in alphabetic order):
   Daniel Aravena         : Magnetic Suceptibility
   Michael Atanasov       : Ab Initio Ligand Field Theory (pilot matlab implementation)
   Alexander A. Auer      : GIAO ZORA, VPT2 properties, NMR spectrum
   Ute Becker             : All parallelization in ORCA, NUMFREQ, NUMCALC
   Giovanni Bistoni       : ED, misc. LED, open-shell LED, HFLD
   Martin Brehm           : Molecular dynamics
   Dmytro Bykov           : pre 5.0 version of the SCF Hessian
   Marcos Casanova-Páez   : Triplet and SCS-CIS(D). UHF-(DLPNO)-IP/EA/STEOM-CCSD. UHF-CVS-IP/STEOM-CCSD
   Vijay G. Chilkuri      : MRCI spin determinant printing, contributions to CSF-ICE
   Pauline Colinet        : FMM embedding
   Dipayan Datta          : RHF DLPNO-CCSD density
   Achintya Kumar Dutta   : EOM-CC, STEOM-CC
   Nicolas Foglia         : Exact transition moments, OPA infrastructure, MCD improvements
   Dmitry Ganyushin       : Spin-Orbit,Spin-Spin,Magnetic field MRCI
   Miquel Garcia          : C-PCM and meta-GGA Hessian, CCSD/C-PCM, Gaussian charge scheme
   Tiago L. C. Gouveia    : GS-ROHF, GS-ROCIS
   Yang Guo               : DLPNO-NEVPT2, F12-NEVPT2, CIM, IAO-localization
   Andreas Hansen         : Spin unrestricted coupled pair/coupled cluster methods
   Ingolf Harden          : AUTO-CI MPn and infrastructure 
   Benjamin Helmich-Paris : MC-RPA, TRAH-(SCF,CASSCF), AVAS, COSX integrals, SCF dyn. polar.
   Lee Huntington         : MR-EOM, pCC
   Robert Izsak           : Overlap fitted RIJCOSX, COSX-SCS-MP3, EOM
   Riya Kayal             : Wick's Theorem for AUTO-CI, AUTO-CI UHF-CCSDT
   Emily Kempfer          : AUTO-CI, RHF CISDT and CCSDT
   Christian Kollmar      : KDIIS, OOCD, Brueckner-CCSD(T), CCSD density, CASPT2, CASPT2-K, improved NEVPT2
   Axel Koslowski         : Symmetry handling
   Simone Kossmann        : Meta GGA functionals, TD-DFT gradient, OOMP2, (MP2 Hessian; deprecated post 5.0)
   Lucas Lang             : DCDCAS
   Marvin Lechner         : AUTO-CI (C++ implementation), FIC-MRCC
   Spencer Leger          : CASSCF response
   Dagmar Lenk            : GEPOL surface, SMD, ORCA-2-JSON
   Dimitrios Liakos       : Extrapolation schemes; Compound Job, initial MDCI parallelization
   Dimitrios Manganas     : Further ROCIS development; embedding schemes. LFT, Crystal Embedding
   Dimitrios Pantazis     : SARC Basis sets
   Anastasios Papadopoulos: AUTO-CI, single reference methods and gradients
   Taras Petrenko         : pre 6.0 DFT Hessian and TD-DFT gradient, (ASA, deprecated), ECA, 1-Electron XAS/XES, NRVS
   Peter Pinski           : DLPNO-MP2, DLPNO-MP2 Gradient
   Christoph Reimann      : Effective Core Potentials
   Marius Retegan         : Local ZFS, SOC
   Christoph Riplinger    : Optimizer, TS searches, QM/MM, DLPNO-CCSD(T), (RO)-DLPNO pert. Triples
   Michael Roemelt        : Original ROCIS implementation
   Masaaki Saitow         : Open-shell DLPNO-CCSD energy and density
   Barbara Sandhoefer     : DKH picture change effects
   Kantharuban Sivalingam : CASSCF convergence/infrastructure, NEVPT2 and variants, FIC-MRCI
   Bernardo de Souza      : ESD, SOC TD-DFT
   Georgi Stoychev        : AutoAux, RI-MP2 NMR, DLPNO-MP2 response, X2C
   Van Anh Tran           : RI-MP2 g-tensors
   Willem Van den Heuvel  : Paramagnetic NMR
   Zikuan Wang            : NOTCH, Electric field optimization 
   Frank Wennmohs         : Technical directorship and infrastructure
   Hang Xu                : AUTO-CI-Response properties 


 We gratefully acknowledge several colleagues who have allowed us to
 interface, adapt or use parts of their codes:
   Stefan Grimme, W. Hujo, H. Kruse, P. Pracht,  : VdW corrections, initial TS optimization,
                  C. Bannwarth, S. Ehlert,         DFT functionals, gCP, sTDA/sTD-DF
                  L. Wittmann, M. Mueller
   Ed Valeev, F. Pavosevic, A. Kumar             : LibInt (2-el integral package), F12 methods
   Garnet Chan, S. Sharma, J. Yang, R. Olivares  : DMRG
   Ulf Ekstrom                                   : XCFun DFT Library
   Mihaly Kallay                                 : mrcc  (arbitrary order and MRCC methods)
   Frank Weinhold                                : gennbo (NPA and NBO analysis)
   Simon Mueller                                 : openCOSMO-RS
   Christopher J. Cramer and Donald G. Truhlar   : smd solvation model
   Lars Goerigk                                  : TD-DFT with DH, B97 family of functionals
   V. Asgeirsson, H. Jonsson                     : NEB implementation
   FAccTs GmbH                                   : IRC, NEB, NEB-TS, DLPNO-Multilevel, CI-OPT
                                                   MM, QMMM, 2- and 3-layer-ONIOM, Crystal-QMMM,
                                                   LR-CPCM, SF, NACMEs, symmetry and pop. for TD-DFT,
                                                   nearIR, NL-DFT gradient (VV10), updates on ESD,
                                                   ML-optimized integration grids, MBIS, APM,
                                                   GOAT, DOCKER, SOLVATOR, interface openCOSMO-RS
   S Lehtola, MJT Oliveira, MAL Marques          : LibXC Library
   Liviu Ungur et al                             : ANISO software


 Your calculation uses the libint2 library for the computation of 2-el integrals
 For citations please refer to: http://libint.valeyev.net

 Your ORCA version has been built with support for libXC version: 6.2.2
 For citations please refer to: https://libxc.gitlab.io

 This ORCA versions uses:
   CBLAS   interface :  Fast vector & matrix operations
   LAPACKE interface :  Fast linear algebra routines
   SCALAPACK package :  Parallel linear algebra routines
   Shared memory     :  Shared parallel matrices
   BLAS/LAPACK       :  OpenBLAS 0.3.27  USE64BITINT DYNAMIC_ARCH NO_AFFINITY Zen SINGLE_THREADED
        Core in use  :  Zen
   Copyright (c) 2011-2014, The OpenBLAS Project


NOTE: MaxCore=8000 MB was set to SCF,MP2,MDCI,CIPSI,MRCI and CIS
      => If you want to overwrite this, your respective input block should be placed after the MaxCore statement
Your calculation utilizes the atom-pairwise dispersion correction
based on EEQ partial charges (D4)


================================================================================

----- Orbital basis set information -----
Your calculation utilizes the basis: def2-SVP
   F. Weigend and R. Ahlrichs, Phys. Chem. Chem. Phys. 7, 3297 (2005).

----- AuxJ basis set information -----
Your calculation utilizes the auxiliary basis: def2/J
   F. Weigend, Phys. Chem. Chem. Phys. 8, 1057 (2006).

================================================================================
                                        WARNINGS
                       Please study these warnings very carefully!
================================================================================

WARNING: Old DensityContainer found on disk!
         Will remove this file - 
         If you want to keep old densities, please start your calculation with a different basename. 


================================================================================
                                       INPUT FILE
================================================================================
NAME = inpS
|  1> ! wb97x-d4
|  2> ! def2-svp
|  3> ! def2/J RIJCOSX
|  4> ! DEFGRID2
|  5> ! scfconv7
|  6> ! smallprint printgap noloewdin
|  7> ! NOSOSCF
|  8> %MaxCore 8000
|  9> %output
| 10>        print[P_BondOrder_M] 1
| 11>        print[P_Mayer] 1
| 12>        print[P_basis] 2
| 13> end
| 14> %pal
| 15>     nprocs 4
| 16> end
| 17> ! CPCM(chloroform)
| 18> *xyz 0 1
| 19> C   -4.9995135000   0.2311745500  -0.4594494300
| 20> C   -6.4541660400  -0.1445151900  -0.6160925200
| 21> C   -7.3360341500   0.7460846300   0.2683417000
| 22> H   -6.6108842800  -1.1989873800  -0.3625154800
| 23> H   -6.7677155800   0.0042739400  -1.6599997200
| 24> C   -4.7199310000   1.6654087500  -0.6915964800
| 25> C   -5.6287363400   2.6107460800   0.0625236600
| 26> C   -7.1068666500   2.2193019900  -0.0739096600
| 27> H   -5.4696092200   3.6398880700  -0.2765990600
| 28> H   -5.3532621600   2.5777397500   1.1276995900
| 29> H   -7.4390666000   2.3892348900  -1.1071226100
| 30> H   -7.7239403000   2.8472467300   0.5790576400
| 31> O   -7.0934353700   0.4804474700   1.6597380300
| 32> H   -8.3909808200   0.4924744500   0.1064758900
| 33> C   -4.0777524600  -0.6819105000  -0.0710257000
| 34> C   -3.7699922200   2.0983732700  -1.5277224600
| 35> H   -3.1382306500   1.4031296900  -2.0740272500
| 36> H   -3.6103666300   3.1616069700  -1.6909645100
| 37> C   -2.6864840500  -0.4198074200   0.2188091400
| 38> H   -4.4369966200  -1.7010686600   0.0661131800
| 39> C   -1.7411506400  -1.3405458600   0.5033710900
| 40> H   -2.3924140800   0.6273829300   0.2177177500
| 41> C   -1.9456106100  -2.8338220200   0.5189032200
| 42> C   -0.9468505500  -3.5469031400  -0.4127253600
| 43> H   -2.9667539800  -3.1170777400   0.2506199900
| 44> H   -1.7689668400  -3.1893993400   1.5464021000
| 45> C    0.5065691000  -3.1320370000  -0.1498638900
| 46> H   -1.2134455900  -3.3301885700  -1.4549486200
| 47> H   -1.0473241700  -4.6316597300  -0.2846138700
| 48> C    0.6860560900  -1.6086453100  -0.2072673300
| 49> H    1.1550231400  -3.6378888700  -0.8723512900
| 50> H    0.8067479800  -3.4803830500   0.8498716400
| 51> C   -0.3200280800  -0.9809941100   0.8107644600
| 52> H   -0.0781269700  -1.4689834400   1.7728391400
| 53> C    0.1192132600   0.4757258100   0.9200826400
| 54> H   -6.1371753100   0.3912378100   1.7787676400
| 55> C    1.6613665300   0.4012588500   0.8005607800
| 56> H   -0.2127907000   0.9360994600   1.8564168000
| 57> H   -0.2989539100   1.0716090500   0.1013117000
| 58> C    2.0187960700  -1.0533863100   0.3677425500
| 59> H    2.1531808100   0.6563489300   1.7444182300
| 60> H    2.0235106700   1.1177729900   0.0533614600
| 61> H    2.2406795900  -1.6415017900   1.2731755800
| 62> C    3.2920151900  -1.1019942500  -0.5120091900
| 63> C    0.4360195500  -1.0748717000  -1.6249390500
| 64> H    0.6701103200  -0.0083771200  -1.7030248200
| 65> H   -0.6097666000  -1.2009402000  -1.9216799800
| 66> H    1.0585274200  -1.6054179900  -2.3535983900
| 67> H    3.0944278100  -0.4718575500  -1.3952991800
| 68> C    3.6427522400  -2.5071388100  -0.9975670500
| 69> C    4.4201662400  -0.4422929600   0.2475783700
| 70> C    5.5163731500  -1.0407157200   0.7138855100
| 71> H    4.2817975800   0.6218485100   0.4344498000
| 72> H    5.6527420100  -2.1083469600   0.5353654500
| 73> C    6.5982749800  -0.4227420900   1.5716723600
| 74> C    6.4151732700  -0.9561857800   3.0054843300
| 75> C    6.6818999500   1.1150865500   1.5094420900
| 76> H    7.5647462900  -0.8089066800   1.2044573900
| 77> H    5.6882811300   1.5231065000   1.7499899100
| 78> C    7.0851249900   1.5874310900   0.1081074700
| 79> C    7.6725792100   1.6775870100   2.5346042100
| 80> H    5.5324198000  -0.4983414500   3.4686212400
| 81> H    7.2865325100  -0.7479613800   3.6331529300
| 82> H    6.2617609600  -2.0406381800   2.9941378900
| 83> H    6.4148838500   1.2033142600  -0.6653536300
| 84> H    8.1008316700   1.2422191500  -0.1238071300
| 85> H    7.0837513000   2.6815463900   0.0506652100
| 86> H    7.3456743700   1.5106372800   3.5648010100
| 87> H    7.7902448000   2.7576744100   2.3939271900
| 88> H    8.6605921300   1.2150875700   2.4109745000
| 89> H    2.9033962600  -2.8703235800  -1.7141228700
| 90> H    3.6841555500  -3.2204313000  -0.1659986800
| 91> H    4.6177033100  -2.5101563900  -1.4966932200
| 92> *
| 93> %eprnmr
| 94>  Nuclei = all C { shift }
| 95>  origin giao
| 96>  giao_2el giao_2el_same_as_scf
| 97>  giao_1el giao_1el_analytic
| 98> end
| 99> 
|100>                          ****END OF INPUT****
================================================================================

                       ****************************
                       * Single Point Calculation *
                       ****************************

---------------------------------
CARTESIAN COORDINATES (ANGSTROEM)
---------------------------------
  C     -4.999513    0.231175   -0.459449
  C     -6.454166   -0.144515   -0.616093
  C     -7.336034    0.746085    0.268342
  H     -6.610884   -1.198987   -0.362515
  H     -6.767716    0.004274   -1.660000
  C     -4.719931    1.665409   -0.691596
  C     -5.628736    2.610746    0.062524
  C     -7.106867    2.219302   -0.073910
  H     -5.469609    3.639888   -0.276599
  H     -5.353262    2.577740    1.127700
  H     -7.439067    2.389235   -1.107123
  H     -7.723940    2.847247    0.579058
  O     -7.093435    0.480447    1.659738
  H     -8.390981    0.492474    0.106476
  C     -4.077752   -0.681910   -0.071026
  C     -3.769992    2.098373   -1.527722
  H     -3.138231    1.403130   -2.074027
  H     -3.610367    3.161607   -1.690965
  C     -2.686484   -0.419807    0.218809
  H     -4.436997   -1.701069    0.066113
  C     -1.741151   -1.340546    0.503371
  H     -2.392414    0.627383    0.217718
  C     -1.945611   -2.833822    0.518903
  C     -0.946851   -3.546903   -0.412725
  H     -2.966754   -3.117078    0.250620
  H     -1.768967   -3.189399    1.546402
  C      0.506569   -3.132037   -0.149864
  H     -1.213446   -3.330189   -1.454949
  H     -1.047324   -4.631660   -0.284614
  C      0.686056   -1.608645   -0.207267
  H      1.155023   -3.637889   -0.872351
  H      0.806748   -3.480383    0.849872
  C     -0.320028   -0.980994    0.810764
  H     -0.078127   -1.468983    1.772839
  C      0.119213    0.475726    0.920083
  H     -6.137175    0.391238    1.778768
  C      1.661367    0.401259    0.800561
  H     -0.212791    0.936099    1.856417
  H     -0.298954    1.071609    0.101312
  C      2.018796   -1.053386    0.367743
  H      2.153181    0.656349    1.744418
  H      2.023511    1.117773    0.053361
  H      2.240680   -1.641502    1.273176
  C      3.292015   -1.101994   -0.512009
  C      0.436020   -1.074872   -1.624939
  H      0.670110   -0.008377   -1.703025
  H     -0.609767   -1.200940   -1.921680
  H      1.058527   -1.605418   -2.353598
  H      3.094428   -0.471858   -1.395299
  C      3.642752   -2.507139   -0.997567
  C      4.420166   -0.442293    0.247578
  C      5.516373   -1.040716    0.713886
  H      4.281798    0.621849    0.434450
  H      5.652742   -2.108347    0.535365
  C      6.598275   -0.422742    1.571672
  C      6.415173   -0.956186    3.005484
  C      6.681900    1.115087    1.509442
  H      7.564746   -0.808907    1.204457
  H      5.688281    1.523106    1.749990
  C      7.085125    1.587431    0.108107
  C      7.672579    1.677587    2.534604
  H      5.532420   -0.498341    3.468621
  H      7.286533   -0.747961    3.633153
  H      6.261761   -2.040638    2.994138
  H      6.414884    1.203314   -0.665354
  H      8.100832    1.242219   -0.123807
  H      7.083751    2.681546    0.050665
  H      7.345674    1.510637    3.564801
  H      7.790245    2.757674    2.393927
  H      8.660592    1.215088    2.410975
  H      2.903396   -2.870324   -1.714123
  H      3.684156   -3.220431   -0.165999
  H      4.617703   -2.510156   -1.496693

----------------------------
CARTESIAN COORDINATES (A.U.)
----------------------------
  NO LB      ZA    FRAG     MASS         X           Y           Z
   0 C     6.0000    0    12.011   -9.447711    0.436857   -0.868234
   1 C     6.0000    0    12.011  -12.196606   -0.273094   -1.164246
   2 C     6.0000    0    12.011  -13.863095    1.409896    0.507092
   3 H     1.0000    0     1.008  -12.492761   -2.265758   -0.685055
   4 H     1.0000    0     1.008  -12.789129    0.008077   -3.136945
   5 C     6.0000    0    12.011   -8.919377    3.147166   -1.306928
   6 C     6.0000    0    12.011  -10.636770    4.933595    0.118153
   7 C     6.0000    0    12.011  -13.430032    4.193873   -0.139669
   8 H     1.0000    0     1.008  -10.336063    6.878392   -0.522696
   9 H     1.0000    0     1.008  -10.116199    4.871222    2.131043
  10 H     1.0000    0     1.008  -14.057799    4.515000   -2.092159
  11 H     1.0000    0     1.008  -14.596132    5.380517    1.094260
  12 O     8.0000    0    15.999  -13.404650    0.907914    3.136450
  13 H     1.0000    0     1.008  -15.856656    0.930642    0.201210
  14 C     6.0000    0    12.011   -7.705835   -1.288624   -0.134219
  15 C     6.0000    0    12.011   -7.124253    3.965351   -2.886977
  16 H     1.0000    0     1.008   -5.930396    2.651531   -3.919343
  17 H     1.0000    0     1.008   -6.822604    5.974571   -3.195460
  18 C     6.0000    0    12.011   -5.076719   -0.793321    0.413489
  19 H     1.0000    0     1.008   -8.384708   -3.214554    0.124936
  20 C     6.0000    0    12.011   -3.290298   -2.533265    0.951234
  21 H     1.0000    0     1.008   -4.521007    1.185582    0.411427
  22 C     6.0000    0    12.011   -3.676671   -5.355148    0.980585
  23 C     6.0000    0    12.011   -1.789288   -6.702676   -0.779938
  24 H     1.0000    0     1.008   -5.606353   -5.890423    0.473603
  25 H     1.0000    0     1.008   -3.342863   -6.027091    2.922276
  26 C     6.0000    0    12.011    0.957277   -5.918692   -0.283202
  27 H     1.0000    0     1.008   -2.293080   -6.293144   -2.749454
  28 H     1.0000    0     1.008   -1.979156   -8.752568   -0.537842
  29 C     6.0000    0    12.011    1.296458   -3.039899   -0.391678
  30 H     1.0000    0     1.008    2.182677   -6.874614   -1.648505
  31 H     1.0000    0     1.008    1.524533   -6.576971    1.606025
  32 C     6.0000    0    12.011   -0.604765   -1.853810    1.532123
  33 H     1.0000    0     1.008   -0.147639   -2.775976    3.350180
  34 C     6.0000    0    12.011    0.225280    0.898991    1.738704
  35 H     1.0000    0     1.008  -11.597581    0.739332    3.361384
  36 C     6.0000    0    12.011    3.139528    0.758269    1.512841
  37 H     1.0000    0     1.008   -0.402116    1.768972    3.508119
  38 H     1.0000    0     1.008   -0.564941    2.025048    0.191451
  39 C     6.0000    0    12.011    3.814972   -1.990612    0.694933
  40 H     1.0000    0     1.008    4.068922    1.240320    3.296473
  41 H     1.0000    0     1.008    3.823881    2.112285    0.100839
  42 H     1.0000    0     1.008    4.234271   -3.101989    2.405953
  43 C     6.0000    0    12.011    6.221007   -2.082467   -0.967557
  44 C     6.0000    0    12.011    0.823958   -2.031213   -3.070690
  45 H     1.0000    0     1.008    1.266325   -0.015830   -3.218251
  46 H     1.0000    0     1.008   -1.152292   -2.269448   -3.631449
  47 H     1.0000    0     1.008    2.000327   -3.033800   -4.447656
  48 H     1.0000    0     1.008    5.847621   -0.891682   -2.636733
  49 C     6.0000    0    12.011    6.883804   -4.737806   -1.885129
  50 C     6.0000    0    12.011    8.352904   -0.835813    0.467855
  51 C     6.0000    0    12.011   10.424435   -1.966668    1.349048
  52 H     1.0000    0     1.008    8.091425    1.175123    0.820991
  53 H     1.0000    0     1.008   10.682134   -3.984198    1.011694
  54 C     6.0000    0    12.011   12.468933   -0.798867    2.970030
  55 C     6.0000    0    12.011   12.122921   -1.806929    5.679542
  56 C     6.0000    0    12.011   12.626961    2.107208    2.852432
  57 H     1.0000    0     1.008   14.295299   -1.528612    2.276095
  58 H     1.0000    0     1.008   10.749294    2.878254    3.307002
  59 C     6.0000    0    12.011   13.388946    2.999810    0.204294
  60 C     6.0000    0    12.011   14.499073    3.170180    4.789708
  61 H     1.0000    0     1.008   10.454758   -0.941729    6.554744
  62 H     1.0000    0     1.008   13.769551   -1.413442    6.865664
  63 H     1.0000    0     1.008   11.833013   -3.856247    5.658101
  64 H     1.0000    0     1.008   12.122374    2.273934   -1.257336
  65 H     1.0000    0     1.008   15.308353    2.347454   -0.233962
  66 H     1.0000    0     1.008   13.386350    5.067388    0.095743
  67 H     1.0000    0     1.008   13.881313    2.854691    6.736498
  68 H     1.0000    0     1.008   14.721429    5.211249    4.523867
  69 H     1.0000    0     1.008   16.366147    2.296183    4.556082
  70 H     1.0000    0     1.008    5.486624   -5.424125   -3.239223
  71 H     1.0000    0     1.008    6.962045   -6.085733   -0.313692
  72 H     1.0000    0     1.008    8.726195   -4.743508   -2.828340

--------------------------------
INTERNAL COORDINATES (ANGSTROEM)
--------------------------------
 C      0   0   0     0.000000000000     0.00000000     0.00000000
 C      1   0   0     1.510527672873     0.00000000     0.00000000
 C      2   1   0     1.533976301097   110.45279680     0.00000000
 H      2   1   3     1.095798120754   110.67485861   237.85485295
 H      2   1   3     1.100088069862   109.83088016   118.70101805
 C      1   2   3     1.479556138705   114.00387963   306.22760501
 C      6   1   2     1.512708497715   114.45898750    49.51610082
 C      3   2   1     1.529713413121   110.12184611    56.87174286
 H      7   6   1     1.095198107705   110.21734351   188.91543330
 H      7   6   1     1.100715768724   108.26010628    72.26291799
 H      8   3   2     1.098527649780   108.30697003    64.29288480
 H      8   3   2     1.096111664424   109.51815164   181.30220828
 O      3   2   1     1.437150310847   110.72299047   292.87387424
 H      3   2   1     1.097010091289   109.48457680   177.31009498
 C      1   2   3     1.354341433104   121.16349960   122.98661250
 C      6   1   2     1.337515837573   123.09880879   231.39534276
 H     16   6   1     1.086708443161   121.33612668   359.06386291
 H     16   6   1     1.087471469367   120.96966179   178.46734182
 C     15   1   2     1.445105548978   126.19128729   185.44045361
 H     15   1   2     1.089287287173   116.25930785     3.19285235
 C     19  15   1     1.349959271365   126.35252654   185.60606262
 H     19  15   1     1.087697553330   115.76652467     6.55865830
 C     21  19  15     1.507288564416   125.65413437     2.63573034
 C     23  21  19     1.540758953316   111.36746685   124.60677469
 H     23  21  19     1.093134701904   112.38935382     1.04765679
 H     23  21  19     1.101540830101   107.91818167   243.10343763
 C     24  23  21     1.534157340541   112.66593128    51.49131013
 H     24  23  21     1.097391199112   108.98888337   289.29903667
 H     24  23  21     1.096906724263   109.12860678   173.37317262
 C     27  24  23     1.535002597934   111.88485014   306.10259398
 H     27  24  23     1.094699410584   108.85315339   182.56996834
 H     27  24  23     1.100419674712   109.17709548    66.13747341
 C     21  19  15     1.497784188523   122.95346459   180.82782355
 H     33  21  19     1.105548471624   106.27478979   127.04640071
 C     33  21  19     1.525423332904   121.14199439     4.57600067
 H     13   3   2     0.967760153057   107.63289952    42.43601029
 C     35  33  21     1.548569504840   103.60937559   196.92823023
 H     35  33  21     1.094939352774   112.05472188    74.98954888
 H     35  33  21     1.095594117348   110.85067121   315.35177720
 C     30  27  24     1.554073606194   116.16958359   165.99848892
 H     37  35  33     1.094449231736   111.69954381   248.78549867
 H     37  35  33     1.096744142799   110.48721447   130.21076601
 H     40  30  27     1.102234587589   106.61461181   320.41651489
 C     40  30  27     1.548358092754   118.93019002    80.68797484
 C     30  27  24     1.535325907993   111.13211299   294.05922248
 H     45  30  27     1.094671898445   111.70037118   186.39240075
 H     45  30  27     1.094356942575   111.46630582    66.37566921
 H     45  30  27     1.095417659075   110.68821011   306.30944453
 H     44  40  30     1.102866374434   106.84606869    62.55864453
 C     44  40  30     1.527486218644   113.47245002   303.41172988
 C     44  40  30     1.511589840185   108.33028596   177.14158729
 C     51  44  40     1.333124802122   126.41013603   113.51789474
 H     51  44  40     1.089249230247   114.69397258   294.96365827
 H     52  51  44     1.091009781085   119.00025778     0.97091871
 C     52  51  44     1.512680156929   127.09098255   185.43518360
 C     55  52  51     1.540748250663   107.53377231   105.36308724
 C     55  52  51     1.541357410893   115.05593941   338.59641452
 H     55  52  51     1.103647007795   107.13969470   220.10379426
 H     57  55  52     1.100736977103   108.18178412    54.28540196
 C     57  55  52     1.532787824378   111.01660843   294.91735927
 C     57  55  52     1.532582635938   111.97806568   172.61284277
 H     56  55  52     1.096982641939   110.12187816   287.50258076
 H     56  55  52     1.093888567138   111.92562090   166.56818323
 H     56  55  52     1.095308671757   110.47490085    46.41101774
 H     60  57  55     1.093165585834   112.16594291    55.42489262
 H     60  57  55     1.097549873586   109.85889714   295.42250446
 H     60  57  55     1.095623014523   110.81422428   176.52167159
 H     61  57  55     1.093638163879   112.38680149   294.02486315
 H     61  57  55     1.095547354825   110.20510051   173.93035376
 H     61  57  55     1.097888686198   110.59624222    54.94471150
 H     50  44  40     1.091788754979   111.04745889    68.29738919
 H     50  44  40     1.096360508388   111.47262708   307.97960643
 H     50  44  40     1.095292485258   110.59632729   187.71726521

---------------------------
INTERNAL COORDINATES (A.U.)
---------------------------
 C      0   0   0     0.000000000000     0.00000000     0.00000000
 C      1   0   0     2.854483619439     0.00000000     0.00000000
 C      2   1   0     2.898795104998   110.45279680     0.00000000
 H      2   1   3     2.070758346290   110.67485861   237.85485295
 H      2   1   3     2.078865175233   109.83088016   118.70101805
 C      1   2   3     2.795955901914   114.00387963   306.22760501
 C      6   1   2     2.858604781136   114.45898750    49.51610082
 C      3   2   1     2.890739414185   110.12184611    56.87174286
 H      7   6   1     2.069624485951   110.21734351   188.91543330
 H      7   6   1     2.080051354177   108.26010628    72.26291799
 H      8   3   2     2.075916408623   108.30697003    64.29288480
 H      8   3   2     2.071350857959   109.51815164   181.30220828
 O      3   2   1     2.715820500781   110.72299047   292.87387424
 H      3   2   1     2.073048638685   109.48457680   177.31009498
 C      1   2   3     2.559334400389   121.16349960   122.98661250
 C      6   1   2     2.527538632795   123.09880879   231.39534276
 H     16   6   1     2.053581344994   121.33612668   359.06386291
 H     16   6   1     2.055023255556   120.96966179   178.46734182
 C     15   1   2     2.730853722178   126.19128729   185.44045361
 H     15   1   2     2.058454653919   116.25930785     3.19285235
 C     19  15   1     2.551053314827   126.35252654   185.60606262
 H     19  15   1     2.055450492331   115.76652467     6.55865830
 C     21  19  15     2.848362591537   125.65413437     2.63573034
 C     23  21  19     2.911612460155   111.36746685   124.60677469
 H     23  21  19     2.065725214084   112.38935382     1.04765679
 H     23  21  19     2.081610494223   107.91818167   243.10343763
 C     24  23  21     2.899137219967   112.66593128    51.49131013
 H     24  23  21     2.073768828097   108.98888337   289.29903667
 H     24  23  21     2.072853303315   109.12860678   173.37317262
 C     27  24  23     2.900734524953   111.88485014   306.10259398
 H     27  24  23     2.068682084969   108.85315339   182.56996834
 H     27  24  23     2.079491817584   109.17709548    66.13747341
 C     21  19  15     2.830401924026   122.95346459   180.82782355
 H     33  21  19     2.089183839145   106.27478979   127.04640071
 C     33  21  19     2.882632337482   121.14199439     4.57600067
 H     13   3   2     1.828801652600   107.63289952    42.43601029
 C     35  33  21     2.926372263490   103.60937559   196.92823023
 H     35  33  21     2.069135509996   112.05472188    74.98954888
 H     35  33  21     2.070372835723   110.85067121   315.35177720
 C     30  27  24     2.936773507662   116.16958359   165.99848892
 H     37  35  33     2.068209315461   111.69954381   248.78549867
 H     37  35  33     2.072546068873   110.48721447   130.21076601
 H     40  30  27     2.082921505879   106.61461181   320.41651489
 C     40  30  27     2.925972752546   118.93019002    80.68797484
 C     30  27  24     2.901345492421   111.13211299   294.05922248
 H     45  30  27     2.068630094561   111.70037118   186.39240075
 H     45  30  27     2.068034914221   111.46630582    66.37566921
 H     45  30  27     2.070039377913   110.68821011   306.30944453
 H     44  40  30     2.084115409990   106.84606869    62.55864453
 C     44  40  30     2.886530626577   113.47245002   303.41172988
 C     44  40  30     2.856490824767   108.33028596   177.14158729
 C     51  44  40     2.519240778348   126.41013603   113.51789474
 H     51  44  40     2.058382736752   114.69397258   294.96365827
 H     52  51  44     2.061709695681   119.00025778     0.97091871
 C     52  51  44     2.858551224812   127.09098255   185.43518360
 C     55  52  51     2.911592235071   107.53377231   105.36308724
 C     55  52  51     2.912743381078   115.05593941   338.59641452
 H     55  52  51     2.085590593254   107.13969470   220.10379426
 H     57  55  52     2.080091432206   108.18178412    54.28540196
 C     57  55  52     2.896549209483   111.01660843   294.91735927
 C     57  55  52     2.896161459525   111.97806568   172.61284277
 H     56  55  52     2.072996766929   110.12187816   287.50258076
 H     56  55  52     2.067149812918   111.92562090   166.56818323
 H     56  55  52     2.069833421730   110.47490085    46.41101774
 H     60  57  55     2.065783576253   112.16594291    55.42489262
 H     60  57  55     2.074068679397   109.85889714   295.42250446
 H     60  57  55     2.070427443469   110.81422428   176.52167159
 H     61  57  55     2.066676619336   112.38680149   294.02486315
 H     61  57  55     2.070284467362   110.20510051   173.93035376
 H     61  57  55     2.074708942445   110.59624222    54.94471150
 H     50  44  40     2.063181743004   111.04745889    68.29738919
 H     50  44  40     2.071821104901   111.47262708   307.97960643
 H     50  44  40     2.069802833679   110.59632729   187.71726521

---------------------
BASIS SET INFORMATION
---------------------
There are 3 groups of distinct atoms

 Group   1 Type C   : 7s4p1d contracted to 3s2p1d pattern {511/31/1}
 Group   2 Type H   : 4s1p contracted to 2s1p pattern {31/1}
 Group   3 Type O   : 7s4p1d contracted to 3s2p1d pattern {511/31/1}

Atom   0C    basis set group =>   1
Atom   1C    basis set group =>   1
Atom   2C    basis set group =>   1
Atom   3H    basis set group =>   2
Atom   4H    basis set group =>   2
Atom   5C    basis set group =>   1
Atom   6C    basis set group =>   1
Atom   7C    basis set group =>   1
Atom   8H    basis set group =>   2
Atom   9H    basis set group =>   2
Atom  10H    basis set group =>   2
Atom  11H    basis set group =>   2
Atom  12O    basis set group =>   3
Atom  13H    basis set group =>   2
Atom  14C    basis set group =>   1
Atom  15C    basis set group =>   1
Atom  16H    basis set group =>   2
Atom  17H    basis set group =>   2
Atom  18C    basis set group =>   1
Atom  19H    basis set group =>   2
Atom  20C    basis set group =>   1
Atom  21H    basis set group =>   2
Atom  22C    basis set group =>   1
Atom  23C    basis set group =>   1
Atom  24H    basis set group =>   2
Atom  25H    basis set group =>   2
Atom  26C    basis set group =>   1
Atom  27H    basis set group =>   2
Atom  28H    basis set group =>   2
Atom  29C    basis set group =>   1
Atom  30H    basis set group =>   2
Atom  31H    basis set group =>   2
Atom  32C    basis set group =>   1
Atom  33H    basis set group =>   2
Atom  34C    basis set group =>   1
Atom  35H    basis set group =>   2
Atom  36C    basis set group =>   1
Atom  37H    basis set group =>   2
Atom  38H    basis set group =>   2
Atom  39C    basis set group =>   1
Atom  40H    basis set group =>   2
Atom  41H    basis set group =>   2
Atom  42H    basis set group =>   2
Atom  43C    basis set group =>   1
Atom  44C    basis set group =>   1
Atom  45H    basis set group =>   2
Atom  46H    basis set group =>   2
Atom  47H    basis set group =>   2
Atom  48H    basis set group =>   2
Atom  49C    basis set group =>   1
Atom  50C    basis set group =>   1
Atom  51C    basis set group =>   1
Atom  52H    basis set group =>   2
Atom  53H    basis set group =>   2
Atom  54C    basis set group =>   1
Atom  55C    basis set group =>   1
Atom  56C    basis set group =>   1
Atom  57H    basis set group =>   2
Atom  58H    basis set group =>   2
Atom  59C    basis set group =>   1
Atom  60C    basis set group =>   1
Atom  61H    basis set group =>   2
Atom  62H    basis set group =>   2
Atom  63H    basis set group =>   2
Atom  64H    basis set group =>   2
Atom  65H    basis set group =>   2
Atom  66H    basis set group =>   2
Atom  67H    basis set group =>   2
Atom  68H    basis set group =>   2
Atom  69H    basis set group =>   2
Atom  70H    basis set group =>   2
Atom  71H    basis set group =>   2
Atom  72H    basis set group =>   2

-------------------------
BASIS SET IN INPUT FORMAT
-------------------------

 # Basis set for element : H 
 NewGTO H 
 S 3 
   1      13.0107010000      0.0334854848
   2       1.9622572000      0.2347218709
   3       0.4445379600      0.8137702853
 S 1 
   1       0.1219496200      1.0000000000
 P 1 
   1       0.8000000000      1.0000000000
  end;

 # Basis set for element : C 
 NewGTO C 
 S 5 
   1    1238.4016938000      0.0055173650
   2     186.2900499200      0.0410888285
   3      42.2511763460      0.1822538213
   4      11.6765579320      0.4682845944
   5       3.5930506482      0.4457581734
 S 1 
   1       0.4024514736      1.0000000000
 S 1 
   1       0.1309018267      1.0000000000
 P 3 
   1       9.4680970621      0.0568883320
   2       2.0103545142      0.3129405934
   3       0.5477100471      0.7606501651
 P 1 
   1       0.1526861379      1.0000000000
 D 1 
   1       0.8000000000      1.0000000000
  end;

 # Basis set for element : O 
 NewGTO O 
 S 5 
   1    2266.1767785000     -0.0053893504
   2     340.8701019100     -0.0402347214
   3      77.3631351670     -0.1800818421
   4      21.4796449400     -0.4682885766
   5       6.6589433124     -0.4469261716
 S 1 
   1       0.8097597567      1.0000000000
 S 1 
   1       0.2553077223      1.0000000000
 P 3 
   1      17.7215043170      0.0626302488
   2       3.8635505440      0.3333113849
   3       1.0480920883      0.7414863830
 P 1 
   1       0.2764154441      1.0000000000
 D 1 
   1       1.2000000000      1.0000000000
  end;

---------------------------------
AUXILIARY/J BASIS SET INFORMATION
---------------------------------
There are 3 groups of distinct atoms

 Group   1 Type C   : 12s5p4d2f1g contracted to 6s4p3d1f1g pattern {711111/2111/211/2/1}
 Group   2 Type H   : 5s2p1d contracted to 3s1p1d pattern {311/2/1}
 Group   3 Type O   : 12s5p4d2f1g contracted to 6s4p3d1f1g pattern {711111/2111/211/2/1}

Atom   0C    basis set group =>   1
Atom   1C    basis set group =>   1
Atom   2C    basis set group =>   1
Atom   3H    basis set group =>   2
Atom   4H    basis set group =>   2
Atom   5C    basis set group =>   1
Atom   6C    basis set group =>   1
Atom   7C    basis set group =>   1
Atom   8H    basis set group =>   2
Atom   9H    basis set group =>   2
Atom  10H    basis set group =>   2
Atom  11H    basis set group =>   2
Atom  12O    basis set group =>   3
Atom  13H    basis set group =>   2
Atom  14C    basis set group =>   1
Atom  15C    basis set group =>   1
Atom  16H    basis set group =>   2
Atom  17H    basis set group =>   2
Atom  18C    basis set group =>   1
Atom  19H    basis set group =>   2
Atom  20C    basis set group =>   1
Atom  21H    basis set group =>   2
Atom  22C    basis set group =>   1
Atom  23C    basis set group =>   1
Atom  24H    basis set group =>   2
Atom  25H    basis set group =>   2
Atom  26C    basis set group =>   1
Atom  27H    basis set group =>   2
Atom  28H    basis set group =>   2
Atom  29C    basis set group =>   1
Atom  30H    basis set group =>   2
Atom  31H    basis set group =>   2
Atom  32C    basis set group =>   1
Atom  33H    basis set group =>   2
Atom  34C    basis set group =>   1
Atom  35H    basis set group =>   2
Atom  36C    basis set group =>   1
Atom  37H    basis set group =>   2
Atom  38H    basis set group =>   2
Atom  39C    basis set group =>   1
Atom  40H    basis set group =>   2
Atom  41H    basis set group =>   2
Atom  42H    basis set group =>   2
Atom  43C    basis set group =>   1
Atom  44C    basis set group =>   1
Atom  45H    basis set group =>   2
Atom  46H    basis set group =>   2
Atom  47H    basis set group =>   2
Atom  48H    basis set group =>   2
Atom  49C    basis set group =>   1
Atom  50C    basis set group =>   1
Atom  51C    basis set group =>   1
Atom  52H    basis set group =>   2
Atom  53H    basis set group =>   2
Atom  54C    basis set group =>   1
Atom  55C    basis set group =>   1
Atom  56C    basis set group =>   1
Atom  57H    basis set group =>   2
Atom  58H    basis set group =>   2
Atom  59C    basis set group =>   1
Atom  60C    basis set group =>   1
Atom  61H    basis set group =>   2
Atom  62H    basis set group =>   2
Atom  63H    basis set group =>   2
Atom  64H    basis set group =>   2
Atom  65H    basis set group =>   2
Atom  66H    basis set group =>   2
Atom  67H    basis set group =>   2
Atom  68H    basis set group =>   2
Atom  69H    basis set group =>   2
Atom  70H    basis set group =>   2
Atom  71H    basis set group =>   2
Atom  72H    basis set group =>   2

-------------------------------------
AUXILIARY/J BASIS SET IN INPUT FORMAT
-------------------------------------

 # Auxiliary/J basis set for element : H 
 NewAuxJGTO H 
 S 3 
   1      15.6752927000      0.1007184237
   2       3.6063578000      0.3404257499
   3       1.2080016000      0.6491996172
 S 1 
   1       0.4726794000      1.0000000000
 S 1 
   1       0.2018100000      1.0000000000
 P 2 
   1       2.0281365000      0.5596620919
   2       0.5358730000      0.5596620919
 D 1 
   1       2.2165124000      1.0000000000
  end;

 # Auxiliary/J basis set for element : C 
 NewAuxJGTO C 
 S 7 
   1    1861.0916331000      0.0134602335
   2     642.9939764000      0.0299160374
   3     235.1105725000      0.1008649584
   4      90.7028894000      0.2370970548
   5      36.7794552000      0.3924037254
   6      15.6046273000      0.3195862154
   7       6.8907294000      0.0530104441
 S 1 
   1       3.1478850000     -1.0000000000
 S 1 
   1       1.4777287000      1.0000000000
 S 1 
   1       0.7076466000      1.0000000000
 S 1 
   1       0.3430122000      1.0000000000
 S 1 
   1       0.1669453000      1.0000000000
 P 2 
   1      13.5472892000     -0.6769313712
   2       5.4669419000     -0.3779500978
 P 1 
   1       2.1751721000      1.0000000000
 P 1 
   1       0.8582194000      1.0000000000
 P 1 
   1       0.3376720000      1.0000000000
 D 2 
   1       5.9287253000     -0.3533329857
   2       1.9809209000     -0.7456525731
 D 1 
   1       0.8055417000     -1.0000000000
 D 1 
   1       0.3531244000     -1.0000000000
 F 2 
   1       1.6755626000      0.6311076882
   2       0.5997536000      0.4968166032
 G 1 
   1       1.0024600000     -1.0000000000
  end;

 # Auxiliary/J basis set for element : O 
 NewAuxJGTO O 
 S 7 
   1    2876.8216605000      0.0168151159
   2    1004.7443032000      0.0340137548
   3     369.7579954000      0.1194951309
   4     142.9442404000      0.2664627624
   5      57.8366425000      0.4202764046
   6      24.3864983000      0.2765077335
   7      10.6622662000      0.0057008815
 S 1 
   1       4.8070437000     -1.0000000000
 S 1 
   1       2.2210770000      1.0000000000
 S 1 
   1       1.0447795000      1.0000000000
 S 1 
   1       0.4968425000      1.0000000000
 S 1 
   1       0.2371384000      1.0000000000
 P 2 
   1      64.2613382000     -0.2731534179
   2      16.3006076000     -0.8168011598
 P 1 
   1       4.3550542000      1.0000000000
 P 1 
   1       1.2019554000      1.0000000000
 P 1 
   1       0.3354196000      1.0000000000
 D 2 
   1       9.2146611000     -0.4661230638
   2       2.8435251000     -0.6600908911
 D 1 
   1       0.9955759000     -1.0000000000
 D 1 
   1       0.3649441000     -1.0000000000
 F 2 
   1       2.6420115000      0.5931563945
   2       0.7345613000      0.5931563945
 G 1 
   1       1.3931000000     -1.0000000000
  end;


Checking for AutoStart:
The File: inpS.gbw exists
Trying to determine its content:
     ... Fine, the file contains calculation information
     ... Fine, the calculation information was read
     ... Fine, the file contains a basis set
     ... Fine, the basis set was read
     ... Fine, the file contains a geometry
     ... Fine, the geometry was read
     ... Fine, the file contains a set of orbitals
     ... Fine, the orbitals can be read
     => possible old guess file was deleted
     => GBW file was renamed to GES file
     => GES file is set as startup file
     => Guess is set to MORead
     ... now leaving AutoStart



           ************************************************************
           *        Program running with 4 parallel MPI-processes     *
           *              working on a common directory               *
           ************************************************************
------------------------------------------------------------------------------
                             ORCA STARTUP CALCULATIONS
                           -- RI-GTO INTEGRALS CHOSEN --
------------------------------------------------------------------------------
------------------------------------------------------------------------------
                   ___                                                        
                  /   \      - P O W E R E D   B Y -                         
                 /     \                                                     
                 |  |  |   _    _      __       _____    __    __             
                 |  |  |  | |  | |    /  \     |  _  \  |  |  /  |          
                  \  \/   | |  | |   /    \    | | | |  |  | /  /          
                 / \  \   | |__| |  /  /\  \   | |_| |  |  |/  /          
                |  |  |   |  __  | /  /__\  \  |    /   |      \           
                |  |  |   | |  | | |   __   |  |    \   |  |\   \          
                \     /   | |  | | |  |  |  |  | |\  \  |  | \   \       
                 \___/    |_|  |_| |__|  |__|  |_| \__\ |__|  \__/        
                                                                              
                      - O R C A' S   B I G   F R I E N D -                    
                                      &                                       
                       - I N T E G R A L  F E E D E R -                       
                                                                              
 v1 FN, 2020, v2 2021, v3 2022-2024                                           
------------------------------------------------------------------------------


----------------------
SHARK INTEGRAL PACKAGE
----------------------

Number of atoms                             ...     73
Number of basis functions                   ...    626
Number of shells                            ...    306
Maximum angular momentum                    ...      2
Integral batch strategy                     ... SHARK/LIBINT Hybrid
RI-J (if used) integral strategy            ... SPLIT-RIJ (Revised 2003 algorithm where possible)
Printlevel                                  ...      1
Contraction scheme used                     ... SEGMENTED contraction
Prescreening option                         ... SCHWARTZ
   Thresh                                   ... 3.000e-11
   Tcut                                     ... 1.000e-12
   Tpresel                                  ... 1.000e-12 
Coulomb Range Separation                    ... NOT USED
Exchange Range Separation                   ... Long Range
   Mu parameter                             ... 3.000e-01
   Scaling (regular/separated)              ... 1.670e-01 8.330e-01
Multipole approximations                    ... NOT USED
Finite Nucleus Model                        ... NOT USED
CABS basis                                  ... NOT available
Auxiliary Coulomb fitting basis             ... AVAILABLE
   # of basis functions in Aux-J            ...   1905
   # of shells in Aux-J                     ...    655
   Maximum angular momentum in Aux-J        ...      4
Auxiliary J/K fitting basis                 ... NOT available
Auxiliary Correlation fitting basis         ... NOT available
Auxiliary 'external' fitting basis          ... NOT available

Checking pre-screening integrals            ... done (  0.0 sec) Dimension = 306
Check shell pair data                       ... done (  0.0 sec)
Shell pair information
Shell pair cut-off parameter TPreSel        ...   1.0e-12
Total number of shell pairs                 ...     46971
Shell pairs after pre-screening             ...     27572
Total number of primitive shell pairs       ...    162105
Primitive shell pairs kept                  ...     60884
          la=0 lb=0:   9654 shell pairs
          la=1 lb=0:  10574 shell pairs
          la=1 lb=1:   2920 shell pairs
          la=2 lb=0:   2760 shell pairs
          la=2 lb=1:   1470 shell pairs
          la=2 lb=2:    194 shell pairs

Calculating one electron integrals          ... done (  0.1 sec)
Calculating RI/J V-Matrix + Cholesky decomp.... done (  0.2 sec)
Calculating Nuclear repulsion               ... done (  0.0 sec) ENN=   2785.205381965402 Eh

Diagonalization of the overlap matrix:
Smallest eigenvalue                        ... 4.434e-04
Time for diagonalization                   ...    0.043 sec
Threshold for overlap eigenvalues          ... 1.000e-07
Number of eigenvalues below threshold      ... 0
Time for construction of square roots      ...    0.025 sec
Total time needed                          ...    0.072 sec

-------------------
DFT GRID GENERATION
-------------------

General Integration Accuracy     IntAcc      ... 4.388
Radial Grid Type                 RadialGrid  ... OptM3 with GC (2021)
Angular Grid (max. ang.)         AngularGrid ... 4 (Lebedev-302)
Angular grid pruning method      GridPruning ... 4 (adaptive)
Weight generation scheme         WeightScheme... mBecke (2022)
Basis function cutoff            BFCut       ... 1.0000e-11
Integration weight cutoff        WCut        ... 1.0000e-14
Partially contracted basis set               ... off
Rotationally invariant grid construction     ... off
Angular grids for H and He will be reduced by one unit

Total number of grid points                  ...   309801
Total number of batches                      ...     4876
Average number of points per batch           ...       63
Average number of grid points per atom       ...     4244

--------------------
COSX GRID GENERATION
--------------------

GRIDX 1
-------
General Integration Accuracy     IntAcc      ... 3.816
Radial Grid Type                 RadialGrid  ... OptM3 with GC (2021)
Angular Grid (max. ang.)         AngularGrid ... 1 (Lebedev-50)
Angular grid pruning method      GridPruning ... 4 (adaptive)
Weight generation scheme         WeightScheme... mBecke (2022)
Basis function cutoff            BFCut       ... 1.0000e-11
Integration weight cutoff        WCut        ... 1.0000e-14
Partially contracted basis set               ... on
Rotationally invariant grid construction     ... off
Angular grids for H and He will be reduced by one unit

Total number of grid points                  ...    39389
Total number of batches                      ...      356
Average number of points per batch           ...      110
Average number of grid points per atom       ...      540
UseSFitting                                  ... on

GRIDX 2
-------
General Integration Accuracy     IntAcc      ... 4.020
Radial Grid Type                 RadialGrid  ... OptM3 with GC (2021)
Angular Grid (max. ang.)         AngularGrid ... 2 (Lebedev-110)
Angular grid pruning method      GridPruning ... 4 (adaptive)
Weight generation scheme         WeightScheme... mBecke (2022)
Basis function cutoff            BFCut       ... 1.0000e-11
Integration weight cutoff        WCut        ... 1.0000e-14
Partially contracted basis set               ... on
Rotationally invariant grid construction     ... off
Angular grids for H and He will be reduced by one unit

Total number of grid points                  ...    81334
Total number of batches                      ...      677
Average number of points per batch           ...      120
Average number of grid points per atom       ...     1114
UseSFitting                                  ... on

GRIDX 3
-------
General Integration Accuracy     IntAcc      ... 4.338
Radial Grid Type                 RadialGrid  ... OptM3 with GC (2021)
Angular Grid (max. ang.)         AngularGrid ... 3 (Lebedev-194)
Angular grid pruning method      GridPruning ... 4 (adaptive)
Weight generation scheme         WeightScheme... mBecke (2022)
Basis function cutoff            BFCut       ... 1.0000e-11
Integration weight cutoff        WCut        ... 1.0000e-14
Partially contracted basis set               ... on
Rotationally invariant grid construction     ... off
Angular grids for H and He will be reduced by one unit

Total number of grid points                  ...   176131
Total number of batches                      ...     1418
Average number of points per batch           ...      124
Average number of grid points per atom       ...     2413
UseSFitting                                  ... on
Initializing property integral containers    ... done (  0.0 sec)

SHARK setup successfully completed in   4.4 seconds

Maximum memory used throughout the entire STARTUP-calculation: 95.8 MB


           ************************************************************
           *        Program running with 4 parallel MPI-processes     *
           *              working on a common directory               *
           ************************************************************
-------------------------------------------------------------------------------
                                 ORCA GUESS
                   Start orbitals & Density for SCF / CASSCF
-------------------------------------------------------------------------------

------------
SCF SETTINGS
------------
Hamiltonian:
 Density Functional     Method          .... DFT(GTOs)
 Exchange Functional    Exchange        .... WB97X-V
 Correlation Functional Correlation     .... WB97X-V
 Gradients option       PostSCFGGA      .... off
 Hybrid DFT is turned on
   Fraction HF Exchange ScalHFX         ....  0.167000
   Scaling of DF-GGA-X  ScalDFX         ....  0.000000
   Scaling of DF-GGA-C  ScalDFC         ....  1.000000
   Scaling of DF-LDA-C  ScalLDAC        ....  1.000000
   Perturbative correction              ....  0.000000
 Long-range corrected/Screened/Range-Separated Hybrid DFT is turned on
   Amount of maximum screened exact exchange              ....  0.833000
   Range separation parameter mu (erf(mu*r12)/r12)        ....  0.300000
 RI-approximation to the Coulomb term is turned on
   Number of AuxJ basis functions       .... 1905
   RIJ-COSX (HFX calculated with COS-X)).... on


General Settings:
 Integral files         IntName         .... inpS
 Hartree-Fock type      HFTyp           .... RHF
 Total Charge           Charge          ....    0
 Multiplicity           Mult            ....    1
 Number of Electrons    NEL             ....  220
 Basis Dimension        Dim             ....  626
 Nuclear Repulsion      ENuc            ....   2785.2053819654 Eh

Convergence Acceleration:
 AO-DIIS                CNVDIIS         .... on
   Start iteration      DIISMaxIt       ....    12
   Startup error        DIISStart       ....  0.200000
   # of expansion vecs  DIISMaxEq       ....     5
   Bias factor          DIISBfac        ....   1.050
   Max. coefficient     DIISMaxC        ....  10.000
 MO-DIIS                CNVKDIIS        .... off
 Trust-Rad. Augm. Hess. CNVTRAH         .... auto
   Auto Start mean grad. ratio tolernc. ....  1.125000
   Auto Start start iteration           ....     1
   Auto Start num. interpolation iter.  ....    10
   Max. Number of Micro iterations      ....    24
   Max. Number of Macro iterations      .... Maxiter - #DIIS iter
   Number of Davidson start vectors     ....     2
   Converg. threshold    (grad. norm)   ....   1.000e-04
   Grad. Scal. Fac. for Micro threshold ....   0.100
   Minimum threshold for Micro iter.    ....   1.000e-02
   NR start threshold (gradient norm)   ....   1.000e-04
   Initial trust radius                 ....   0.400
   Minimum AH scaling param. (alpha)    ....   1.000
   Maximum AH scaling param. (alpha)    .... 1000.000
   Quad. conv. algorithm                .... NR
   White noise on init. David. guess    .... on
   Maximum white noise                  ....   0.010
   Pseudo random numbers                .... off
   Inactive MOs                         .... canonical
   Orbital update algorithm             .... Taylor
   Preconditioner                       .... Diag
   Full preconditioner red. dimension   ....   250
 SOSCF                  CNVSOSCF        .... off
 Level Shifting         CNVShift        .... on
   Level shift para.    LevelShift      ....    0.2500
   Turn off err/grad.   ShiftErr        ....    0.0010
 Zerner damping         CNVZerner       .... off
 Static damping         CNVDamp         .... on
   Fraction old density DampFac         ....    0.7000
   Max. Damping (<1)    DampMax         ....    0.9800
   Min. Damping (>=0)   DampMin         ....    0.0000
   Turn off err/grad.   DampErr         ....    0.1000

SCF Procedure:
 Maximum # iterations   MaxIter         ....   125
 SCF integral mode      SCFMode         .... Direct
   Integral package                     .... SHARK and LIBINT hybrid scheme
 Reset frequency        DirectResetFreq ....    20
 Integral Threshold     Thresh          ....  3.000e-11 Eh
 Primitive CutOff       TCut            ....  1.000e-12 Eh

Convergence Tolerance:
 Convergence Check Mode ConvCheckMode   .... Total+1el-Energy
 Convergence forced     ConvForced      .... 0
 Energy Change          TolE            ....  1.000e-07 Eh
 1-El. energy change                    ....  1.000e-04 Eh
 DIIS Error             TolErr          ....  1.000e-07

---------------------
INITIAL GUESS: MOREAD
---------------------
Guess MOs are being read from file: inpS.ges
Input Geometry matches current geometry (good)
Input basis set matches current basis set (good)
Occupation numbers will be reassigned to an Aufbau configuration
MOs were renormalized
MOs were reorthogonalized (Cholesky)
                      ------------------
                      INITIAL GUESS DONE (   0.2 sec)
                      ------------------
             **** ENERGY FILE WAS UPDATED (inpS.en.tmp) ****
Finished Guess after   0.3 sec
Maximum memory used throughout the entire GUESS-calculation: 52.5 MB


           ************************************************************
           *        Program running with 4 parallel MPI-processes     *
           *              working on a common directory               *
           ************************************************************

-------------------------------------------------------------------------------------------
                                      ORCA LEAN-SCF
                              memory conserving SCF solver
-------------------------------------------------------------------------------------------

--------------------
CPCM SOLVATION MODEL
--------------------
CPCM parameters:
  Epsilon                                         ...       4.8030
  Refrac                                          ...       1.4459
  Rsolv                                           ...       1.3000
  Surface type                                    ... GAUSSIAN VDW
  Discretization scheme                           ... Constant charge density
    Threshold for H atoms                         ...       5.0000 (charges/Ang^2)
    Threshold for non-H atoms                     ...       5.0000 (charges/Ang^2)
  Epsilon function type                           ...         CPCM
Solvent:                                          ... CHLOROFORM
Radii:
  Scheme                                          ... Element-dependent radii
  Radius for C  used is    3.8550 Bohr (=   2.0400 Ang.)
  Radius for H  used is    2.4944 Bohr (=   1.3200 Ang.)
  Radius for O  used is    3.4469 Bohr (=   1.8240 Ang.)
Calculating surface                               ...        done! (  0.0s)
Cavity surface points                             ...         5327
Cavity Volume                                     ...    3602.7123
Cavity Surface-area                               ...    1782.3922
Calculating surface distance matrix               ...        done! (  0.2s)
Performing Cholesky decomposition & store         ...        done! (  0.9s)
Overall time for CPCM initialization              ...                 1.2s

----------------------------------------D-I-I-S--------------------------------------------
Iteration    Energy (Eh)           Delta-E    RMSDP     MaxDP     DIISErr   Damp  Time(sec)
-------------------------------------------------------------------------------------------
               ***  Starting incremental Fock matrix formation  ***
    1    -1168.3592944692913989     0.00e+00  3.25e-08  2.25e-06  4.50e-06  0.700  23.6

  HOMO= 109 E= -7.961 eV LUMO=  8.065 eV gap=  16.026 eV
    2    -1168.3592944673523562     1.94e-09  2.81e-08  1.44e-06  2.69e-06  0.700   4.8
                 **** Energy Check signals convergence ****

  HOMO= 109 E= -7.961 eV LUMO=  8.065 eV gap=  16.026 eV

               *****************************************************
               *                     SUCCESS                       *
               *           SCF CONVERGED AFTER   2 CYCLES          *
               *****************************************************

Recomputing exchange energy using gridx3       ... done (   41.068 sec)
Old exchange energy                            :    -56.782851047 Eh
New exchange energy                            :    -56.782866975 Eh
Exchange energy change after final integration :     -0.000015928 Eh
Total energy after final integration           :  -1168.359310395 Eh
             **** ENERGY FILE WAS UPDATED (inpS.en.tmp) ****

----------------
TOTAL SCF ENERGY
----------------

Total Energy       :      -1168.35931039539582 Eh          -31792.67314 eV

Components:
Nuclear Repulsion  :       2785.20538196540156 Eh           75789.29150 eV
Electronic Energy  :      -3953.55551036690804 Eh         -107581.71479 eV
One Electron Energy:      -7115.38129797439251 Eh         -193619.36854 eV
Two Electron Energy:       3161.82578760748447 Eh           86037.65375 eV
CPCM Dielectric    :         -0.00916606584589 Eh              -0.24942 eV

Virial components:
Potential Energy   :      -2321.66842298194297 Eh          -63175.80959 eV
Kinetic Energy     :       1153.30911258654714 Eh           31383.13644 eV
Virial Ratio       :          2.01304957850814

DFT components:
N(Alpha)           :      110.000162491330 electrons
N(Beta)            :      110.000162491330 electrons
N(Total)           :      220.000324982660 electrons
E(X)               :     -111.769956492009 Eh       
E(C)               :       -8.952742088264 Eh       
E(XC)              :     -120.722698580273 Eh       

CPCM Solvation Model Properties:
Surface-charge          :         -0.04191177122766
Corrected charge        :         -0.00000000000000
Outlying charge corr.   :          0.00006160119364 Eh               0.00168 eV
Free-energy (cav+disp)  :  This term is not implemented in the current solvation scheme

---------------
SCF CONVERGENCE
---------------

  Last Energy change         ...   -1.9390e-09  Tolerance :   1.0000e-07
  Last MAX-Density change    ...    1.4444e-06  Tolerance :   1.0000e-05
  Last RMS-Density change    ...    2.8058e-08  Tolerance :   1.0000e-06
  Last DIIS Error            ...    2.6947e-06  Tolerance :   1.0000e-07


----------------
ORBITAL ENERGIES
----------------

  NO   OCC          E(Eh)            E(eV) 
   0   2.0000     -19.212440      -522.7971 
   1   2.0000     -10.330362      -281.1034 
   2   2.0000     -10.294317      -280.1226 
   3   2.0000     -10.292064      -280.0613 
   4   2.0000     -10.287679      -279.9420 
   5   2.0000     -10.287018      -279.9240 
   6   2.0000     -10.285480      -279.8822 
   7   2.0000     -10.284204      -279.8474 
   8   2.0000     -10.283472      -279.8275 
   9   2.0000     -10.282985      -279.8143 
  10   2.0000     -10.282845      -279.8104 
  11   2.0000     -10.280000      -279.7330 
  12   2.0000     -10.279255      -279.7128 
  13   2.0000     -10.279141      -279.7097 
  14   2.0000     -10.278130      -279.6821 
  15   2.0000     -10.278048      -279.6799 
  16   2.0000     -10.277413      -279.6626 
  17   2.0000     -10.277077      -279.6535 
  18   2.0000     -10.273331      -279.5516 
  19   2.0000     -10.273259      -279.5496 
  20   2.0000     -10.272170      -279.5200 
  21   2.0000     -10.272156      -279.5196 
  22   2.0000     -10.272095      -279.5179 
  23   2.0000     -10.271671      -279.5064 
  24   2.0000     -10.271030      -279.4889 
  25   2.0000     -10.268292      -279.4144 
  26   2.0000     -10.268192      -279.4117 
  27   2.0000     -10.267670      -279.3975 
  28   2.0000     -10.265864      -279.3484 
  29   2.0000      -1.131023       -30.7767 
  30   2.0000      -0.999153       -27.1883 
  31   2.0000      -0.977356       -26.5952 
  32   2.0000      -0.958008       -26.0687 
  33   2.0000      -0.943151       -25.6644 
  34   2.0000      -0.917586       -24.9688 
  35   2.0000      -0.911375       -24.7998 
  36   2.0000      -0.890046       -24.2194 
  37   2.0000      -0.888211       -24.1694 
  38   2.0000      -0.872565       -23.7437 
  39   2.0000      -0.854151       -23.2426 
  40   2.0000      -0.836491       -22.7621 
  41   2.0000      -0.829155       -22.5625 
  42   2.0000      -0.810436       -22.0531 
  43   2.0000      -0.797297       -21.6955 
  44   2.0000      -0.796651       -21.6780 
  45   2.0000      -0.792099       -21.5541 
  46   2.0000      -0.761293       -20.7158 
  47   2.0000      -0.753791       -20.5117 
  48   2.0000      -0.726362       -19.7653 
  49   2.0000      -0.713308       -19.4101 
  50   2.0000      -0.706451       -19.2235 
  51   2.0000      -0.699967       -19.0471 
  52   2.0000      -0.690475       -18.7888 
  53   2.0000      -0.681434       -18.5428 
  54   2.0000      -0.649624       -17.6772 
  55   2.0000      -0.632387       -17.2081 
  56   2.0000      -0.622816       -16.9477 
  57   2.0000      -0.620046       -16.8723 
  58   2.0000      -0.607520       -16.5315 
  59   2.0000      -0.604253       -16.4426 
  60   2.0000      -0.596267       -16.2253 
  61   2.0000      -0.586406       -15.9569 
  62   2.0000      -0.571097       -15.5403 
  63   2.0000      -0.569535       -15.4978 
  64   2.0000      -0.563160       -15.3244 
  65   2.0000      -0.556071       -15.1315 
  66   2.0000      -0.555619       -15.1192 
  67   2.0000      -0.551131       -14.9970 
  68   2.0000      -0.549189       -14.9442 
  69   2.0000      -0.538754       -14.6602 
  70   2.0000      -0.537821       -14.6348 
  71   2.0000      -0.530991       -14.4490 
  72   2.0000      -0.526735       -14.3332 
  73   2.0000      -0.522877       -14.2282 
  74   2.0000      -0.520225       -14.1561 
  75   2.0000      -0.517234       -14.0746 
  76   2.0000      -0.508200       -13.8288 
  77   2.0000      -0.503276       -13.6948 
  78   2.0000      -0.500822       -13.6281 
  79   2.0000      -0.491246       -13.3675 
  80   2.0000      -0.487531       -13.2664 
  81   2.0000      -0.486114       -13.2278 
  82   2.0000      -0.484732       -13.1902 
  83   2.0000      -0.478833       -13.0297 
  84   2.0000      -0.468527       -12.7493 
  85   2.0000      -0.465465       -12.6659 
  86   2.0000      -0.463412       -12.6101 
  87   2.0000      -0.461793       -12.5660 
  88   2.0000      -0.455710       -12.4005 
  89   2.0000      -0.453559       -12.3420 
  90   2.0000      -0.449482       -12.2310 
  91   2.0000      -0.444235       -12.0882 
  92   2.0000      -0.442556       -12.0426 
  93   2.0000      -0.435100       -11.8397 
  94   2.0000      -0.429428       -11.6853 
  95   2.0000      -0.424651       -11.5553 
  96   2.0000      -0.423112       -11.5135 
  97   2.0000      -0.422094       -11.4858 
  98   2.0000      -0.417970       -11.3735 
  99   2.0000      -0.412299       -11.2192 
 100   2.0000      -0.410450       -11.1689 
 101   2.0000      -0.408479       -11.1153 
 102   2.0000      -0.404637       -11.0107 
 103   2.0000      -0.400134       -10.8882 
 104   2.0000      -0.392810       -10.6889 
 105   2.0000      -0.383517       -10.4360 
 106   2.0000      -0.372817       -10.1449 
 107   2.0000      -0.355953        -9.6860 
 108   2.0000      -0.335457        -9.1283 
 109   2.0000      -0.292576        -7.9614 
 110   0.0000       0.046377         1.2620 
 111   0.0000       0.099395         2.7047 
 112   0.0000       0.111018         3.0210 
 113   0.0000       0.130605         3.5540 
 114   0.0000       0.142597         3.8803 
 115   0.0000       0.145462         3.9582 
 116   0.0000       0.151308         4.1173 
 117   0.0000       0.153323         4.1721 
 118   0.0000       0.160348         4.3633 
 119   0.0000       0.163939         4.4610 
 120   0.0000       0.168090         4.5740 
*Only the first 10 virtual orbitals were printed.

                    ********************************
                    * MULLIKEN POPULATION ANALYSIS *
                    ********************************

-----------------------
MULLIKEN ATOMIC CHARGES
-----------------------
   0 C :   -0.174039
   1 C :    0.142481
   2 C :    0.068178
   3 H :    0.017220
   4 H :    0.030683
   5 C :   -0.170026
   6 C :    0.095238
   7 C :    0.023723
   8 H :    0.013774
   9 H :    0.027385
  10 H :    0.019969
  11 H :    0.022653
  12 O :   -0.359085
  13 H :    0.018255
  14 C :   -0.009254
  15 C :   -0.046907
  16 H :    0.035364
  17 H :    0.029356
  18 C :   -0.062169
  19 H :   -0.002127
  20 C :   -0.113759
  21 H :    0.003741
  22 C :    0.114346
  23 C :   -0.001935
  24 H :    0.014446
  25 H :    0.016783
  26 C :    0.106668
  27 H :    0.013098
  28 H :    0.015607
  29 C :   -0.404559
  30 H :    0.009022
  31 H :   -0.002015
  32 C :   -0.045748
  33 H :    0.011908
  34 C :    0.127187
  35 H :    0.179123
  36 C :    0.042007
  37 H :    0.007672
  38 H :    0.015396
  39 C :   -0.052470
  40 H :    0.013390
  41 H :    0.011632
  42 H :   -0.009601
  43 C :   -0.012630
  44 C :    0.091049
  45 H :    0.019298
  46 H :    0.024668
  47 H :    0.018881
  48 H :    0.002245
  49 C :    0.063050
  50 C :   -0.071844
  51 C :   -0.100056
  52 H :    0.020748
  53 H :    0.011314
  54 C :   -0.036662
  55 C :    0.035948
  56 C :   -0.166304
  57 H :    0.005396
  58 H :    0.016657
  59 C :    0.035397
  60 C :    0.027798
  61 H :    0.015437
  62 H :    0.027054
  63 H :    0.014864
  64 H :    0.017171
  65 H :    0.009803
  66 H :    0.017659
  67 H :    0.024079
  68 H :    0.016079
  69 H :    0.013908
  70 H :    0.028857
  71 H :    0.017952
  72 H :    0.019576
Sum of atomic charges:    0.0000000

--------------------------------
MULLIKEN REDUCED ORBITAL CHARGES
--------------------------------
  0 C s       :     3.102372  s :     3.102372
      pz      :     1.015882  p :     3.028644
      px      :     1.004565
      py      :     1.008197
      dz2     :     0.004680  d :     0.043024
      dxz     :     0.006366
      dyz     :     0.005953
      dx2y2   :     0.014309
      dxy     :     0.011716

  1 C s       :     2.939370  s :     2.939370
      pz      :     0.988925  p :     2.883753
      px      :     0.929849
      py      :     0.964978
      dz2     :     0.007848  d :     0.034396
      dxz     :     0.006834
      dyz     :     0.003910
      dx2y2   :     0.010028
      dxy     :     0.005775

  2 C s       :     3.085249  s :     3.085249
      pz      :     0.741114  p :     2.775897
      px      :     1.046120
      py      :     0.988663
      dz2     :     0.022544  d :     0.070676
      dxz     :     0.011439
      dyz     :     0.017617
      dx2y2   :     0.012070
      dxy     :     0.007006

  3 H s       :     0.960119  s :     0.960119
      pz      :     0.004759  p :     0.022661
      px      :     0.003753
      py      :     0.014149

  4 H s       :     0.946004  s :     0.946004
      pz      :     0.014130  p :     0.023313
      px      :     0.004659
      py      :     0.004524

  5 C s       :     3.108722  s :     3.108722
      pz      :     0.977616  p :     3.016502
      px      :     0.985167
      py      :     1.053719
      dz2     :     0.009471  d :     0.044802
      dxz     :     0.005529
      dyz     :     0.008912
      dx2y2   :     0.011083
      dxy     :     0.009808

  6 C s       :     2.955289  s :     2.955289
      pz      :     1.002464  p :     2.914022
      px      :     0.947398
      py      :     0.964160
      dz2     :     0.008948  d :     0.035451
      dxz     :     0.006415
      dyz     :     0.004057
      dx2y2   :     0.009000
      dxy     :     0.007031

  7 C s       :     3.002797  s :     3.002797
      pz      :     0.986162  p :     2.938694
      px      :     0.981006
      py      :     0.971526
      dz2     :     0.007452  d :     0.034786
      dxz     :     0.006357
      dyz     :     0.004489
      dx2y2   :     0.008789
      dxy     :     0.007699

  8 H s       :     0.963393  s :     0.963393
      pz      :     0.005380  p :     0.022833
      px      :     0.003805
      py      :     0.013649

  9 H s       :     0.949213  s :     0.949213
      pz      :     0.014354  p :     0.023402
      px      :     0.004613
      py      :     0.004435

 10 H s       :     0.957207  s :     0.957207
      pz      :     0.013864  p :     0.022824
      px      :     0.004695
      py      :     0.004265

 11 H s       :     0.954719  s :     0.954719
      pz      :     0.008358  p :     0.022628
      px      :     0.007134
      py      :     0.007136

 12 O s       :     3.713385  s :     3.713385
      pz      :     1.417405  p :     4.633560
      px      :     1.340690
      py      :     1.875465
      dz2     :     0.005254  d :     0.012140
      dxz     :     0.001392
      dyz     :     0.001729
      dx2y2   :     0.003204
      dxy     :     0.000561

 13 H s       :     0.961396  s :     0.961396
      pz      :     0.001933  p :     0.020349
      px      :     0.014247
      py      :     0.004169

 14 C s       :     3.194505  s :     3.194505
      pz      :     0.992558  p :     2.778400
      px      :     0.870688
      py      :     0.915153
      dz2     :     0.003761  d :     0.036350
      dxz     :     0.007487
      dyz     :     0.003320
      dx2y2   :     0.011206
      dxy     :     0.010576

 15 C s       :     3.124437  s :     3.124437
      pz      :     1.006130  p :     2.896208
      px      :     0.982934
      py      :     0.907144
      dz2     :     0.005260  d :     0.026262
      dxz     :     0.004131
      dyz     :     0.004519
      dx2y2   :     0.006595
      dxy     :     0.005757

 16 H s       :     0.940092  s :     0.940092
      pz      :     0.007244  p :     0.024544
      px      :     0.008252
      py      :     0.009048

 17 H s       :     0.946031  s :     0.946031
      pz      :     0.004638  p :     0.024613
      px      :     0.004457
      py      :     0.015518

 18 C s       :     3.199984  s :     3.199984
      pz      :     1.029050  p :     2.827010
      px      :     0.880537
      py      :     0.917423
      dz2     :     0.003266  d :     0.035175
      dxz     :     0.006588
      dyz     :     0.003326
      dx2y2   :     0.012201
      dxy     :     0.009794

 19 H s       :     0.977806  s :     0.977806
      pz      :     0.004545  p :     0.024322
      px      :     0.004927
      py      :     0.014849

 20 C s       :     3.100059  s :     3.100059
      pz      :     0.958749  p :     2.969574
      px      :     0.987283
      py      :     1.023541
      dz2     :     0.003947  d :     0.044127
      dxz     :     0.007011
      dyz     :     0.007212
      dx2y2   :     0.014452
      dxy     :     0.011504

 21 H s       :     0.971689  s :     0.971689
      pz      :     0.004560  p :     0.024569
      px      :     0.004443
      py      :     0.015566

 22 C s       :     2.926318  s :     2.926318
      pz      :     0.998619  p :     2.923794
      px      :     0.976285
      py      :     0.948890
      dz2     :     0.009127  d :     0.035542
      dxz     :     0.004469
      dyz     :     0.006143
      dx2y2   :     0.009889
      dxy     :     0.005913

 23 C s       :     3.000715  s :     3.000715
      pz      :     1.013750  p :     2.964712
      px      :     0.965038
      py      :     0.985924
      dz2     :     0.009930  d :     0.036508
      dxz     :     0.007629
      dyz     :     0.003003
      dx2y2   :     0.010377
      dxy     :     0.005568

 24 H s       :     0.962347  s :     0.962347
      pz      :     0.005028  p :     0.023208
      px      :     0.013579
      py      :     0.004601

 25 H s       :     0.959950  s :     0.959950
      pz      :     0.013421  p :     0.023267
      px      :     0.004698
      py      :     0.005148

 26 C s       :     2.969532  s :     2.969532
      pz      :     0.968044  p :     2.888482
      px      :     0.974229
      py      :     0.946209
      dz2     :     0.006827  d :     0.035318
      dxz     :     0.006632
      dyz     :     0.005895
      dx2y2   :     0.008703
      dxy     :     0.007260

 27 H s       :     0.964046  s :     0.964046
      pz      :     0.013602  p :     0.022856
      px      :     0.004239
      py      :     0.005016

 28 H s       :     0.961749  s :     0.961749
      pz      :     0.004459  p :     0.022645
      px      :     0.003806
      py      :     0.014380

 29 C s       :     3.253553  s :     3.253553
      pz      :     1.043874  p :     3.100083
      px      :     0.996082
      py      :     1.060127
      dz2     :     0.011249  d :     0.050922
      dxz     :     0.010723
      dyz     :     0.009622
      dx2y2   :     0.010959
      dxy     :     0.008368

 30 H s       :     0.967902  s :     0.967902
      pz      :     0.009189  p :     0.023076
      px      :     0.007885
      py      :     0.006002

 31 H s       :     0.979463  s :     0.979463
      pz      :     0.013002  p :     0.022552
      px      :     0.004716
      py      :     0.004835

 32 C s       :     3.034076  s :     3.034076
      pz      :     0.989375  p :     2.967925
      px      :     0.945963
      py      :     1.032588
      dz2     :     0.008183  d :     0.043746
      dxz     :     0.007371
      dyz     :     0.008394
      dx2y2   :     0.011169
      dxy     :     0.008629

 33 H s       :     0.966811  s :     0.966811
      pz      :     0.012096  p :     0.021281
      px      :     0.003987
      py      :     0.005198

 34 C s       :     2.891395  s :     2.891395
      pz      :     0.988085  p :     2.946600
      px      :     0.975012
      py      :     0.983503
      dz2     :     0.005550  d :     0.034818
      dxz     :     0.005751
      dyz     :     0.008197
      dx2y2   :     0.008886
      dxy     :     0.006434

 35 H s       :     0.752083  s :     0.752083
[...]
 Total          142.024          174.483          191.075  iso=     169.194

 Orientation: 
  X           0.2325263   -0.5782622    0.7820130
  Y          -0.1789891   -0.8157615   -0.5499964
  Z           0.9559783   -0.0120832   -0.2931886

 --------------
 Nucleus  39C :
 --------------

Diamagnetic contribution to the shielding tensor (ppm) : 
           265.311          4.308        -7.420
             5.157        257.299         2.829
            -5.712          2.993       264.356

Paramagnetic contribution to the shielding tensor (ppm): 
          -100.059         -1.787        10.367
             1.144       -127.668         1.811
            13.323         -1.977      -137.389

Total shielding tensor (ppm): 
           165.252          2.521         2.948
             6.301        129.631         4.640
             7.611          1.017       126.967


 Diagonalized sT*s matrix:
 
 sDSO           261.155          261.140          264.672  iso=     262.322
 sPSO          -136.113         -130.907          -98.096  iso=    -121.705
        ---------------  ---------------  ---------------
 Total          125.042          130.232          166.576  iso=     140.617

 Orientation: 
  X          -0.0584697   -0.1699301   -0.9837200
  Y          -0.4868111    0.8651539   -0.1205139
  Z           0.8715482    0.4718394   -0.1333092

 --------------
 Nucleus  43C :
 --------------

Diamagnetic contribution to the shielding tensor (ppm) : 
           258.325         -1.119        -5.904
            -0.798        245.104         7.143
            -5.726          0.727       251.472

Paramagnetic contribution to the shielding tensor (ppm): 
           -93.694         -1.854        -2.410
             3.534        -88.027        -5.189
            -2.339          3.861       -89.688

Total shielding tensor (ppm): 
           164.631         -2.973        -8.313
             2.736        157.077         1.954
            -8.065          4.589       161.784


 Diagonalized sT*s matrix:
 
 sDSO           244.791          248.369          261.741  iso=     251.634
 sPSO           -91.546          -89.975          -89.889  iso=     -90.470
        ---------------  ---------------  ---------------
 Total          153.245          158.394          171.853  iso=     161.164

 Orientation: 
  X          -0.4755242    0.4736501   -0.7413045
  Y           0.5606997    0.8125161    0.1594785
  Z          -0.6778589    0.3398133    0.6519465

 --------------
 Nucleus  44C :
 --------------

Diamagnetic contribution to the shielding tensor (ppm) : 
           250.295          0.527         0.515
             0.588        253.967        -3.305
            -0.805          0.286       273.099

Paramagnetic contribution to the shielding tensor (ppm): 
           -71.136         -4.648        -2.024
            -3.087        -73.347        -0.696
            -0.276         -4.660       -80.167

Total shielding tensor (ppm): 
           179.159         -4.121        -1.509
            -2.500        180.620        -4.000
            -1.081         -4.375       192.932


 Diagonalized sT*s matrix:
 
 sDSO           253.018          252.016          272.328  iso=     259.120
 sPSO           -77.320          -69.228          -78.102  iso=     -74.883
        ---------------  ---------------  ---------------
 Total          175.697          182.788          194.226  iso=     184.237

 Orientation: 
  X           0.7173622    0.6964516   -0.0186194
  Y           0.6626585   -0.6903187   -0.2904200
  Z           0.2151168   -0.1959980    0.9567181

 --------------
 Nucleus  49C :
 --------------

Diamagnetic contribution to the shielding tensor (ppm) : 
           244.026         -5.567        -3.251
           -12.727        253.160         7.198
            -9.387          5.004       251.168

Paramagnetic contribution to the shielding tensor (ppm): 
           -63.944          3.736        -2.542
            10.123        -70.552        -2.408
             2.284         -0.907       -74.435

Total shielding tensor (ppm): 
           180.081         -1.830        -5.793
            -2.605        182.607         4.790
            -7.103          4.097       176.734


 Diagonalized sT*s matrix:
 
 sDSO           243.604          240.744          264.006  iso=     249.451
 sPSO           -72.329          -61.177          -75.425  iso=     -69.644
        ---------------  ---------------  ---------------
 Total          171.275          179.567          188.581  iso=     179.807

 Orientation: 
  X           0.5404855   -0.6155616    0.5735498
  Y          -0.2131065   -0.7596294   -0.6144500
  Z           0.8139171    0.2098741   -0.5417489

 --------------
 Nucleus  50C :
 --------------

Diamagnetic contribution to the shielding tensor (ppm) : 
           273.434         -3.025        11.978
             7.040        266.210        -7.096
            15.709         -2.109       249.920

Paramagnetic contribution to the shielding tensor (ppm): 
          -177.249        -11.421       -65.148
           -15.170       -289.547       -41.644
           -77.752        -47.371      -130.885

Total shielding tensor (ppm): 
            96.185        -14.447       -53.170
            -8.130        -23.338       -48.741
           -62.043        -49.481       119.035


 Diagonalized sT*s matrix:
 
 sDSO           265.176          277.035          247.353  iso=     263.188
 sPSO          -308.974         -212.855          -75.853  iso=    -199.227
        ---------------  ---------------  ---------------
 Total          -43.797           64.180          171.499  iso=      63.961

 Orientation: 
  X          -0.2865827    0.7467474   -0.6001988
  Y          -0.8709239   -0.4640986   -0.1615675
  Z          -0.3992016    0.4764251    0.7833628

 --------------
 Nucleus  51C :
 --------------

Diamagnetic contribution to the shielding tensor (ppm) : 
           267.112         -3.652        15.256
           -10.019        268.291         7.412
            20.656          0.084       247.042

Paramagnetic contribution to the shielding tensor (ppm): 
          -181.565        -13.784       -58.986
             5.801       -286.539       -61.070
           -62.233        -57.230      -117.148

Total shielding tensor (ppm): 
            85.548        -17.436       -43.729
            -4.219        -18.248       -53.658
           -41.577        -57.146       129.894


 Diagonalized sT*s matrix:
 
 sDSO           268.334          278.599          235.513  iso=     260.815
 sPSO          -305.002         -210.719          -69.531  iso=    -195.084
        ---------------  ---------------  ---------------
 Total          -36.669           67.880          165.982  iso=      65.731

 Orientation: 
  X           0.3726913    0.8210468   -0.4324158
  Y           0.8361986   -0.4991865   -0.2271228
  Z           0.4023345    0.2769388    0.8726006

 --------------
 Nucleus  54C :
 --------------

Diamagnetic contribution to the shielding tensor (ppm) : 
           244.185          5.012         3.701
            -2.680        266.760        -3.222
             7.125          0.388       246.120

Paramagnetic contribution to the shielding tensor (ppm): 
           -88.134          4.839        -7.653
            11.019       -100.732         3.870
           -10.168         -0.863       -97.269

Total shielding tensor (ppm): 
           156.051          9.851        -3.952
             8.339        166.028         0.648
            -3.042         -0.475       148.852


 Diagonalized sT*s matrix:
 
 sDSO           251.825          243.811          261.429  iso=     252.355
 sPSO          -105.327          -90.922          -89.886  iso=     -95.378
        ---------------  ---------------  ---------------
 Total          146.498          152.889          171.544  iso=     156.977

 Orientation: 
  X           0.5376337    0.6672781    0.5154511
  Y          -0.2532091   -0.4553316    0.8535563
  Z           0.8042606   -0.5894175   -0.0758407

 --------------
 Nucleus  55C :
 --------------

Diamagnetic contribution to the shielding tensor (ppm) : 
           238.237         -0.431         0.392
           -10.411        247.444        -6.913
            20.510         -1.015       253.885

Paramagnetic contribution to the shielding tensor (ppm): 
           -67.447          2.365        -2.946
             8.136        -78.927        -0.864
           -17.245         -5.263       -65.293

Total shielding tensor (ppm): 
           170.789          1.934        -2.554
            -2.276        168.517        -7.777
             3.265         -6.278       188.593


 Diagonalized sT*s matrix:
 
 sDSO           245.727          237.609          256.230  iso=     246.522
 sPSO           -79.426          -66.825          -65.416  iso=     -70.556
        ---------------  ---------------  ---------------
 Total          166.301          170.784          190.814  iso=     175.966

 Orientation: 
  X           0.0074601    0.9995508    0.0290259
  Y           0.9542696    0.0015588   -0.2989432
  Z           0.2988541   -0.0299287    0.9538294

 --------------
 Nucleus  56C :
 --------------

Diamagnetic contribution to the shielding tensor (ppm) : 
           243.053          8.022         5.768
             9.923        246.286        -2.848
            -4.052         -0.123       230.451

Paramagnetic contribution to the shielding tensor (ppm): 
           -77.168         -3.274        -9.596
            -7.535        -71.797        -5.647
             4.221         -3.313       -61.922

Total shielding tensor (ppm): 
           165.886          4.749        -3.828
             2.387        174.490        -8.495
             0.169         -3.437       168.529


 Diagonalized sT*s matrix:
 
 sDSO           233.641          239.109          247.040  iso=     239.930
 sPSO           -69.186          -74.023          -67.678  iso=     -70.295
        ---------------  ---------------  ---------------
 Total          164.455          165.087          179.363  iso=     169.635

 Orientation: 
  X           0.7503908    0.5992779   -0.2788899
  Y          -0.5143041    0.2643063   -0.8158637
  Z          -0.4152167    0.7556508    0.5065441

 --------------
 Nucleus  59C :
 --------------

Diamagnetic contribution to the shielding tensor (ppm) : 
           246.778          3.926        -2.278
            10.294        241.438        -3.218
           -21.087        -12.144       237.830

Paramagnetic contribution to the shielding tensor (ppm): 
           -81.914         -0.619        -7.912
            -7.189        -71.087        -4.200
            16.301          4.132       -46.637

Total shielding tensor (ppm): 
           164.864          3.307       -10.191
             3.105        170.351        -7.418
            -4.786         -8.011       191.193


 Diagonalized sT*s matrix:
 
 sDSO           239.807          236.779          249.459  iso=     242.015
 sPSO           -77.155          -68.885          -53.597  iso=     -66.546
        ---------------  ---------------  ---------------
 Total          162.652          167.893          195.862  iso=     175.469

 Orientation: 
  X           0.9607898    0.1271996   -0.2463803
  Y          -0.2024074    0.9290520   -0.3096671
  Z           0.1895106    0.3473942    0.9183698

 --------------
 Nucleus  60C :
 --------------

Diamagnetic contribution to the shielding tensor (ppm) : 
           243.101          4.979         8.459
            12.634        226.444         9.862
            20.809         10.999       230.212

Paramagnetic contribution to the shielding tensor (ppm): 
           -66.509          2.910         6.334
            -6.092        -54.134        -3.039
           -12.259         -7.333       -50.545

Total shielding tensor (ppm): 
           176.592          7.889        14.793
             6.542        172.311         6.823
             8.550          3.666       179.667


 Diagonalized sT*s matrix:
 
 sDSO           225.038          217.985          256.733  iso=     233.252
 sPSO           -59.679          -48.270          -63.237  iso=     -57.062
        ---------------  ---------------  ---------------
 Total          165.359          169.715          193.496  iso=     176.190

 Orientation: 
  X           0.7706617    0.1329284    0.6232260
  Y          -0.4471508    0.8096083    0.3802506
  Z          -0.4540229   -0.5717206    0.6833731



--------------------------------
CHEMICAL SHIELDING SUMMARY (ppm)
--------------------------------


  Nucleus  Element    Isotropic     Anisotropy
  -------  -------  ------------   ------------
      0       C           61.440        151.872 
      1       C          154.568         12.171 
      2       C          132.375         50.969 
      5       C           50.868        177.645 
      6       C          168.028         31.752 
      7       C          164.896         17.277 
     14       C           71.650        133.173 
     15       C           83.698        119.559 
     18       C           80.150        133.833 
     20       C           52.149        175.723 
     22       C          168.937          7.108 
     23       C          174.148         13.248 
     26       C          158.877         23.560 
     29       C          153.753         17.599 
     32       C          143.263         27.678 
     34       C          174.796         23.970 
     36       C          169.194         32.821 
     39       C          140.617         38.938 
     43       C          161.164         16.033 
     44       C          184.237         14.983 
     49       C          179.807         13.160 
     50       C           63.961        161.308 
     51       C           65.731        150.376 
     54       C          156.977         21.850 
     55       C          175.966         22.272 
     56       C          169.635         14.592 
     59       C          175.469         30.589 
     60       C          176.190         25.959 


NMR shielding tensor and spin rotation calculation done in   1.6 sec 

Maximum memory used throughout the entire PROP-calculation: 51.9 MB

--------------------------------
SUGGESTED CITATIONS FOR THIS RUN
--------------------------------

Below you find a list of papers that are relevant to this ORCA run
We neither can nor want to force you to cite these papers, but we appreciate if you do
You receive ORCA, which is the product of decades of hard work by many enthusiastic individuals, for free
The only thing we kindly ask in return is that you cite our papers,
We deeply appreciate it, if you show your appreciation for ORCA by not just citing the generic ORCA reference.

Please note that relegating all ORCA citations to the supporting information does *not* help us.
SI sections are not indexed - citations you put there will not count into any citation statistics
But we need these citations in order to attract the funding resources that allow us to do what we are doing

Therefore, if you are a happy ORCA user, please consider citing a few of the papers listed below in the main body of your paper

In addition to the list printed below, the program has created the file inpS.bibtex that contains the list in bibtex format
You can import this file easily into all common literature databanks and citation aid programs


List of essential papers. We consider these as the minimum necessary citations

  1. Neese,F.
     Software update: the ORCA program system, version 5.0
     WIRES Comput. Molec. Sci., 2022 12(1)e1606
     doi.org/10.1002/wcms.1606

List of papers to cite with high priority. The work reported in these papers was absolutely
necessary for this run to complete.
Our perspective: the developers of density functionals and basis sets usually get cited in chemistry papers
Good! But without the algorithms to do something with them, the functionals or basis sets would not do anything.
Hence, in our opinion, the algorithm design and method developments papers are equally worthy of getting cited

  1. Neese,F.
     An improvement of the resolution of the identity approximation for the formation of the Coulomb matrix
     J. Comp. Chem., 2003 24(14)1740-1747
     doi.org/10.1002/jcc.10318
  2. Neese,F.; Wennmohs,F.; Hansen,A.; Becker,U.
     Efficient, approximate and parallel Hartree-Fock and hybrid DFT calculations. A 'chain-of-spheres' algorithm for the Hartree-Fock exchange
     Chem. Phys., 2009 356(1-3)98-109
     doi.org/10.1016/j.chemphys.2008.10.036
  3. Stoychev,G.L.; Auer,A.A.; Izsak,R.; Neese,F.
     Self-Consistent Field Calculation of Nuclear Magnetic Resonance Chemical Shielding Constants Using Gauge-Including Atomic Orbitals and Approximate Two-Electron Integrals
     J. Chem. Theory Comput., 2018 14(2)619-637
     doi.org/10.1021/acs.jctc.7b01006
  4. Garcia-Rates,M.; Neese,F.
     Effect of the Solute Cavity on the Solvation Energy and its Derivatives within the Framework of the Gaussian Charge Scheme
     J. Comput. Chem., 2020 41 922-939
     doi.org/10.1002/jcc.26139
  5. Helmich-Paris,B.; de Souza,B.; Neese,F.; Izsák,R.
     An improved chain of spheres for exchange algorithm
     J. Chem. Phys., 2021 155 104109
     doi.org/doi: 10.1063/5.0058766.
  6. Neese,F.
     The SHARK Integral Generation and Digestion System
     J. Comp. Chem., 2022  1-16
     doi.org/10.1002/jcc.26942
  7. Caldeweyher,E.; Bannwarth,C.; Grimme,S.
     Extension of the D3 dispersion coefficient model
     J. Chem. Phys., 2017 147 034112-XXXX
     doi.org/10.1063/1.4993215
  8. Caldeweyher,E.; Ehlert,S.; Hansen,A.; Neugebauer,H.; Spicher,S.; Bannwarth,C.; Grimme,S.
     A generally applicable atomic-charge dependent London dispersion correction
     J. Chem. Phys., 2019 150 154122-XXXX
     doi.org/10.1063/1.5090222
  9. Caldeweyher,E.; Mewes,J.; Ehlert,S.; Grimme,S.
     Extension and evaluation of the D4 London-dispersion model for periodic systems
     Phys. Chem. Chem. Phys., 2020 22(16)8499-8512
     doi.org/10.1039/D0CP00502A

List of suggested additional citations. These are papers that are important in the 'surrounding' of 
of this run, or papers that preceded the highly important papers. If you like your results we are grateful for a citation.

  1. Izsak,R.; Neese,F.
     An overlap fitted chain of spheres exchange method
     J. Chem. Phys., 2011 135 144105
     doi.org/10.1063/1.3646921
  2. Izsak,R.; Hansen,A.; Neese,F.
     The resolution of identity and chain of spheres approximations for the LPNO-CCSD singles Fock term
     Molec. Phys., 2012 110 2413-2417
     doi.org/10.1080/00268976.2012.687466
  3. Neese,F.
     The ORCA program system
     WIRES Comput. Molec. Sci., 2012 2(1)73-78
     doi.org/10.1002/wcms.81
  4. Izsak,R.; Neese,F.; Klopper,W.
     Robust fitting techniques in the chain of spheres approximation to the Fock exchange: The role of the complementary space
     J. Chem. Phys., 2013 139 
     doi.org/10.1063/1.4819264
  5. Neese,F.
     Software update: the ORCA program system, version 4.0
     WIRES Comput. Molec. Sci., 2018 8(1)1-6
     doi.org/10.1002/wcms.1327
  6. Neese,F.; Wennmohs,F.; Becker,U.; Riplinger,C.
     The ORCA quantum chemistry program package
     J. Chem. Phys., 2020 152 Art. No. L224108
     doi.org/10.1063/5.0004608

Timings for individual modules:

Sum of individual times          ...      177.790 sec (=   2.963 min)
Startup calculation              ...        4.620 sec (=   0.077 min)   2.6 %
SCF iterations                   ...       72.044 sec (=   1.201 min)  40.5 %
Property integrals               ...       60.302 sec (=   1.005 min)  33.9 %
SCF Response                     ...       38.901 sec (=   0.648 min)  21.9 %
Property calculations            ...        1.924 sec (=   0.032 min)   1.1 %
                             ****ORCA TERMINATED NORMALLY****
TOTAL RUN TIME: 0 days 0 hours 2 minutes 58 seconds 71 msec
