
                                 *****************
                                 * O   R   C   A *
                                 *****************

                                            #,                                       
                                            ###                                      
                                            ####                                     
                                            #####                                    
                                            ######                                   
                                           ########,                                 
                                     ,,################,,,,,                         
                               ,,#################################,,                 
                          ,,##########################################,,             
                       ,#########################################, ''#####,          
                    ,#############################################,,   '####,        
                  ,##################################################,,,,####,       
                ,###########''''           ''''###############################       
              ,#####''   ,,,,##########,,,,          '''####'''          '####       
            ,##' ,,,,###########################,,,                        '##       
           ' ,,###''''                  '''############,,,                           
         ,,##''                                '''############,,,,        ,,,,,,###''
      ,#''                                            '''#######################'''  
     '                                                          ''''####''''         
             ,#######,   #######,   ,#######,      ##                                
            ,#'     '#,  ##    ##  ,#'     '#,    #''#        ,####,   ,####,        
            ##       ##  ##   ,#'  ##            #'  '#       #'       #'  '#        
            ##       ##  #######   ##           ,######,      #####,   #    #        
            '#,     ,#'  ##    ##  '#,     ,#' ,#      #,     #,   #   #,  ,#        
             '#######'   ##     ##  '#######'  #'      '#     '####' # '####'        



                #########################################################
                #                        -***-                          #
                #          Department of theory and spectroscopy        #
                #                                                       #
                #                      Frank Neese                      #
                #                                                       #
                #     Directorship, Architecture, Infrastructure        #
                #                    SHARK, DRIVERS                     #
                #        Core code/Algorithms in most modules           #
                #                                                       #
                #        Max Planck Institute fuer Kohlenforschung      #
                #                Kaiser Wilhelm Platz 1                 #
                #                 D-45470 Muelheim/Ruhr                 #
                #                      Germany                          #
                #                                                       #
                #                  All rights reserved                  #
                #                        -***-                          #
                #########################################################


                         Program Version 6.0.0  -   RELEASE  -


 With contributions from (in alphabetic order):
   Daniel Aravena         : Magnetic Suceptibility
   Michael Atanasov       : Ab Initio Ligand Field Theory (pilot matlab implementation)
   Alexander A. Auer      : GIAO ZORA, VPT2 properties, NMR spectrum
   Ute Becker             : All parallelization in ORCA, NUMFREQ, NUMCALC
   Giovanni Bistoni       : ED, misc. LED, open-shell LED, HFLD
   Martin Brehm           : Molecular dynamics
   Dmytro Bykov           : pre 5.0 version of the SCF Hessian
   Marcos Casanova-Páez   : Triplet and SCS-CIS(D). UHF-(DLPNO)-IP/EA/STEOM-CCSD. UHF-CVS-IP/STEOM-CCSD
   Vijay G. Chilkuri      : MRCI spin determinant printing, contributions to CSF-ICE
   Pauline Colinet        : FMM embedding
   Dipayan Datta          : RHF DLPNO-CCSD density
   Achintya Kumar Dutta   : EOM-CC, STEOM-CC
   Nicolas Foglia         : Exact transition moments, OPA infrastructure, MCD improvements
   Dmitry Ganyushin       : Spin-Orbit,Spin-Spin,Magnetic field MRCI
   Miquel Garcia          : C-PCM and meta-GGA Hessian, CCSD/C-PCM, Gaussian charge scheme
   Tiago L. C. Gouveia    : GS-ROHF, GS-ROCIS
   Yang Guo               : DLPNO-NEVPT2, F12-NEVPT2, CIM, IAO-localization
   Andreas Hansen         : Spin unrestricted coupled pair/coupled cluster methods
   Ingolf Harden          : AUTO-CI MPn and infrastructure 
   Benjamin Helmich-Paris : MC-RPA, TRAH-(SCF,CASSCF), AVAS, COSX integrals, SCF dyn. polar.
   Lee Huntington         : MR-EOM, pCC
   Robert Izsak           : Overlap fitted RIJCOSX, COSX-SCS-MP3, EOM
   Riya Kayal             : Wick's Theorem for AUTO-CI, AUTO-CI UHF-CCSDT
   Emily Kempfer          : AUTO-CI, RHF CISDT and CCSDT
   Christian Kollmar      : KDIIS, OOCD, Brueckner-CCSD(T), CCSD density, CASPT2, CASPT2-K, improved NEVPT2
   Axel Koslowski         : Symmetry handling
   Simone Kossmann        : Meta GGA functionals, TD-DFT gradient, OOMP2, (MP2 Hessian; deprecated post 5.0)
   Lucas Lang             : DCDCAS
   Marvin Lechner         : AUTO-CI (C++ implementation), FIC-MRCC
   Spencer Leger          : CASSCF response
   Dagmar Lenk            : GEPOL surface, SMD, ORCA-2-JSON
   Dimitrios Liakos       : Extrapolation schemes; Compound Job, initial MDCI parallelization
   Dimitrios Manganas     : Further ROCIS development; embedding schemes. LFT, Crystal Embedding
   Dimitrios Pantazis     : SARC Basis sets
   Anastasios Papadopoulos: AUTO-CI, single reference methods and gradients
   Taras Petrenko         : pre 6.0 DFT Hessian and TD-DFT gradient, (ASA, deprecated), ECA, 1-Electron XAS/XES, NRVS
   Peter Pinski           : DLPNO-MP2, DLPNO-MP2 Gradient
   Christoph Reimann      : Effective Core Potentials
   Marius Retegan         : Local ZFS, SOC
   Christoph Riplinger    : Optimizer, TS searches, QM/MM, DLPNO-CCSD(T), (RO)-DLPNO pert. Triples
   Michael Roemelt        : Original ROCIS implementation
   Masaaki Saitow         : Open-shell DLPNO-CCSD energy and density
   Barbara Sandhoefer     : DKH picture change effects
   Kantharuban Sivalingam : CASSCF convergence/infrastructure, NEVPT2 and variants, FIC-MRCI
   Bernardo de Souza      : ESD, SOC TD-DFT
   Georgi Stoychev        : AutoAux, RI-MP2 NMR, DLPNO-MP2 response, X2C
   Van Anh Tran           : RI-MP2 g-tensors
   Willem Van den Heuvel  : Paramagnetic NMR
   Zikuan Wang            : NOTCH, Electric field optimization 
   Frank Wennmohs         : Technical directorship and infrastructure
   Hang Xu                : AUTO-CI-Response properties 


 We gratefully acknowledge several colleagues who have allowed us to
 interface, adapt or use parts of their codes:
   Stefan Grimme, W. Hujo, H. Kruse, P. Pracht,  : VdW corrections, initial TS optimization,
                  C. Bannwarth, S. Ehlert,         DFT functionals, gCP, sTDA/sTD-DF
                  L. Wittmann, M. Mueller
   Ed Valeev, F. Pavosevic, A. Kumar             : LibInt (2-el integral package), F12 methods
   Garnet Chan, S. Sharma, J. Yang, R. Olivares  : DMRG
   Ulf Ekstrom                                   : XCFun DFT Library
   Mihaly Kallay                                 : mrcc  (arbitrary order and MRCC methods)
   Frank Weinhold                                : gennbo (NPA and NBO analysis)
   Simon Mueller                                 : openCOSMO-RS
   Christopher J. Cramer and Donald G. Truhlar   : smd solvation model
   Lars Goerigk                                  : TD-DFT with DH, B97 family of functionals
   V. Asgeirsson, H. Jonsson                     : NEB implementation
   FAccTs GmbH                                   : IRC, NEB, NEB-TS, DLPNO-Multilevel, CI-OPT
                                                   MM, QMMM, 2- and 3-layer-ONIOM, Crystal-QMMM,
                                                   LR-CPCM, SF, NACMEs, symmetry and pop. for TD-DFT,
                                                   nearIR, NL-DFT gradient (VV10), updates on ESD,
                                                   ML-optimized integration grids, MBIS, APM,
                                                   GOAT, DOCKER, SOLVATOR, interface openCOSMO-RS
   S Lehtola, MJT Oliveira, MAL Marques          : LibXC Library
   Liviu Ungur et al                             : ANISO software


 Your calculation uses the libint2 library for the computation of 2-el integrals
 For citations please refer to: http://libint.valeyev.net

 Your ORCA version has been built with support for libXC version: 6.2.2
 For citations please refer to: https://libxc.gitlab.io

 This ORCA versions uses:
   CBLAS   interface :  Fast vector & matrix operations
   LAPACKE interface :  Fast linear algebra routines
   SCALAPACK package :  Parallel linear algebra routines
   Shared memory     :  Shared parallel matrices
   BLAS/LAPACK       :  OpenBLAS 0.3.27  USE64BITINT DYNAMIC_ARCH NO_AFFINITY Zen SINGLE_THREADED
        Core in use  :  Zen
   Copyright (c) 2011-2014, The OpenBLAS Project


NOTE: MaxCore=8000 MB was set to SCF,MP2,MDCI,CIPSI,MRCI and CIS
      => If you want to overwrite this, your respective input block should be placed after the MaxCore statement
Your calculation utilizes the atom-pairwise dispersion correction
based on EEQ partial charges (D4)


================================================================================

----- Orbital basis set information -----
Your calculation utilizes the basis: def2-SVP
   F. Weigend and R. Ahlrichs, Phys. Chem. Chem. Phys. 7, 3297 (2005).

----- AuxJ basis set information -----
Your calculation utilizes the auxiliary basis: def2/J
   F. Weigend, Phys. Chem. Chem. Phys. 8, 1057 (2006).

================================================================================
                                        WARNINGS
                       Please study these warnings very carefully!
================================================================================

WARNING: Old DensityContainer found on disk!
         Will remove this file - 
         If you want to keep old densities, please start your calculation with a different basename. 


================================================================================
                                       INPUT FILE
================================================================================
NAME = inpS
|  1> ! wb97x-d4
|  2> ! def2-svp
|  3> ! def2/J RIJCOSX
|  4> ! DEFGRID2
|  5> ! scfconv7
|  6> ! smallprint printgap noloewdin
|  7> ! NOSOSCF
|  8> %MaxCore 8000
|  9> %output
| 10>        print[P_BondOrder_M] 1
| 11>        print[P_Mayer] 1
| 12>        print[P_basis] 2
| 13> end
| 14> %pal
| 15>     nprocs 4
| 16> end
| 17> ! CPCM(chloroform)
| 18> *xyz 0 1
| 19> C   -5.0170652400   0.1927678800  -0.4441523300
| 20> C   -6.4668346900  -0.2094876900  -0.5779591600
| 21> C   -7.3599283800   0.7182563100   0.2557875400
| 22> H   -6.6111163100  -1.2498735500  -0.2651228300
| 23> H   -6.7820223300  -0.1245515400  -1.6285360800
| 24> C   -4.7573864500   1.6148217600  -0.7607172500
| 25> C   -5.6748133800   2.5895005200  -0.0558098100
| 26> C   -7.1485600000   2.1732294800  -0.1661316000
| 27> H   -5.5294459300   3.6002831700  -0.4516793700
| 28> H   -5.3957700900   2.6180950200   1.0084848900
| 29> H   -7.4845039000   2.2832956600  -1.2062528200
| 30> H   -7.7719033000   2.8282965400   0.4534417300
| 31> O   -7.1152833900   0.5313568000   1.6597319700
| 32> H   -8.4116582300   0.4436275300   0.1077414400
| 33> C   -4.0829463300  -0.6833917500  -0.0036722000
| 34> C   -3.8196525000   2.0115256700  -1.6280164300
| 35> H   -3.1818063400   1.2947659500  -2.1385038300
| 36> H   -3.6765822500   3.0656838800  -1.8538566600
| 37> C   -2.6944755500  -0.3847011100   0.2623328000
| 38> H   -4.4278172300  -1.6975830400   0.1945358700
| 39> C   -1.7322321100  -1.2706450200   0.5963147900
| 40> H   -2.4148446500   0.6640301000   0.1910317600
| 41> C   -1.9117085500  -2.7625739200   0.7138497800
| 42> C   -0.9147741800  -3.5225560600  -0.1827197000
| 43> H   -2.9319967400  -3.0791383400   0.4808881500
| 44> H   -1.7161310600  -3.0459853700   1.7602588900
| 45> C    0.5355516100  -3.0627234700   0.0209237900
| 46> H   -1.2035477600  -3.3866731800  -1.2326622700
| 47> H   -0.9911732100  -4.5968968300   0.0250420300
| 48> C    0.6837334500  -1.5435784600  -0.1426941500
| 49> H    1.1796475000  -3.6052198300  -0.6784792900
| 50> H    0.8626494300  -3.3356247100   1.0355771700
| 51> C   -0.3123818600  -0.8691662200   0.8553816800
| 52> H   -0.0433972700  -1.2902997500   1.8413263700
| 53> C    0.1026405700   0.5984391500   0.8628354700
| 54> H   -6.1583785700   0.4559297900   1.7832658500
| 55> C    1.6434512500   0.5418454800   0.7201484700
| 56> H   -0.2215440300   1.1128951100   1.7734220000
| 57> H   -0.3395664700   1.1330609400   0.0149160600
| 58> C    2.0192497500  -0.9295889300   0.3647994800
| 59> H    2.1469869300   0.8578085100   1.6389877100
| 60> H    1.9800228400   1.2208636500  -0.0725740000
| 61> H    2.2749150200  -1.4605259400   1.2959554600
| 62> C    3.2677147300  -1.0064996400  -0.5478827100
| 63> C    0.3930192800  -1.1086990900  -1.5852119600
| 64> H    0.6026271700  -0.0447051200  -1.7347649000
| 65> H   -0.6558843300  -1.2741105500  -1.8503009200
| 66> H    1.0115281800  -1.6715488900  -2.2927125200
| 67> H    3.0272619300  -0.4415653800  -1.4641577200
| 68> C    3.6413863000  -2.4320422000  -0.9499632000
| 69> C    4.4057074800  -0.2752082300   0.1246674900
| 70> C    5.5551629900  -0.7997468700   0.5524840900
| 71> H    4.2450318300   0.7924872100   0.2856150500
| 72> H    5.7586831500  -1.8604427600   0.3999459100
| 73> C    6.6384735000  -0.0160092200   1.2423550700
| 74> C    7.9490689600  -0.1207834500   0.4478419700
| 75> C    6.7862436700  -0.4437943700   2.7288655000
| 76> H    6.3283431300   1.0396956700   1.2534127100
| 77> H    5.7700810800  -0.4149889900   3.1506764100
| 78> C    7.6418827500   0.5503451600   3.5191162400
| 79> C    7.3254257500  -1.8656969800   2.9034045800
| 80> H    8.2564995100  -1.1657343700   0.3287310300
| 81> H    8.7662703300   0.4201026500   0.9363916300
| 82> H    7.8164334800   0.3013218100  -0.5537077500
| 83> H    7.2692489700   1.5748330500   3.4058226200
| 84> H    8.6867051800   0.5302598900   3.1886917400
| 85> H    7.6312191800   0.3014192700   4.5862540500
| 86> H    6.7325688800  -2.6025756300   2.3513947200
| 87> H    7.3075552400  -2.1495473700   3.9615405400
| 88> H    8.3640243800  -1.9388379800   2.5607624000
| 89> H    2.8819338000  -2.8704936900  -1.6000519500
| 90> H    3.7487607900  -3.0783807800  -0.0706147500
| 91> H    4.5907496400  -2.4421085700  -1.4961298600
| 92> *
| 93> %eprnmr
| 94>  Nuclei = all C { shift }
| 95>  origin giao
| 96>  giao_2el giao_2el_same_as_scf
| 97>  giao_1el giao_1el_analytic
| 98> end
| 99> 
|100>                          ****END OF INPUT****
================================================================================

                       ****************************
                       * Single Point Calculation *
                       ****************************

---------------------------------
CARTESIAN COORDINATES (ANGSTROEM)
---------------------------------
  C     -5.017065    0.192768   -0.444152
  C     -6.466835   -0.209488   -0.577959
  C     -7.359928    0.718256    0.255788
  H     -6.611116   -1.249874   -0.265123
  H     -6.782022   -0.124552   -1.628536
  C     -4.757386    1.614822   -0.760717
  C     -5.674813    2.589501   -0.055810
  C     -7.148560    2.173229   -0.166132
  H     -5.529446    3.600283   -0.451679
  H     -5.395770    2.618095    1.008485
  H     -7.484504    2.283296   -1.206253
  H     -7.771903    2.828297    0.453442
  O     -7.115283    0.531357    1.659732
  H     -8.411658    0.443628    0.107741
  C     -4.082946   -0.683392   -0.003672
  C     -3.819653    2.011526   -1.628016
  H     -3.181806    1.294766   -2.138504
  H     -3.676582    3.065684   -1.853857
  C     -2.694476   -0.384701    0.262333
  H     -4.427817   -1.697583    0.194536
  C     -1.732232   -1.270645    0.596315
  H     -2.414845    0.664030    0.191032
  C     -1.911709   -2.762574    0.713850
  C     -0.914774   -3.522556   -0.182720
  H     -2.931997   -3.079138    0.480888
  H     -1.716131   -3.045985    1.760259
  C      0.535552   -3.062723    0.020924
  H     -1.203548   -3.386673   -1.232662
  H     -0.991173   -4.596897    0.025042
  C      0.683733   -1.543578   -0.142694
  H      1.179647   -3.605220   -0.678479
  H      0.862649   -3.335625    1.035577
  C     -0.312382   -0.869166    0.855382
  H     -0.043397   -1.290300    1.841326
  C      0.102641    0.598439    0.862835
  H     -6.158379    0.455930    1.783266
  C      1.643451    0.541845    0.720148
  H     -0.221544    1.112895    1.773422
  H     -0.339566    1.133061    0.014916
  C      2.019250   -0.929589    0.364799
  H      2.146987    0.857809    1.638988
  H      1.980023    1.220864   -0.072574
  H      2.274915   -1.460526    1.295955
  C      3.267715   -1.006500   -0.547883
  C      0.393019   -1.108699   -1.585212
  H      0.602627   -0.044705   -1.734765
  H     -0.655884   -1.274111   -1.850301
  H      1.011528   -1.671549   -2.292713
  H      3.027262   -0.441565   -1.464158
  C      3.641386   -2.432042   -0.949963
  C      4.405707   -0.275208    0.124667
  C      5.555163   -0.799747    0.552484
  H      4.245032    0.792487    0.285615
  H      5.758683   -1.860443    0.399946
  C      6.638473   -0.016009    1.242355
  C      7.949069   -0.120783    0.447842
  C      6.786244   -0.443794    2.728865
  H      6.328343    1.039696    1.253413
  H      5.770081   -0.414989    3.150676
  C      7.641883    0.550345    3.519116
  C      7.325426   -1.865697    2.903405
  H      8.256500   -1.165734    0.328731
  H      8.766270    0.420103    0.936392
  H      7.816433    0.301322   -0.553708
  H      7.269249    1.574833    3.405823
  H      8.686705    0.530260    3.188692
  H      7.631219    0.301419    4.586254
  H      6.732569   -2.602576    2.351395
  H      7.307555   -2.149547    3.961541
  H      8.364024   -1.938838    2.560762
  H      2.881934   -2.870494   -1.600052
  H      3.748761   -3.078381   -0.070615
  H      4.590750   -2.442109   -1.496130

----------------------------
CARTESIAN COORDINATES (A.U.)
----------------------------
  NO LB      ZA    FRAG     MASS         X           Y           Z
   0 C     6.0000    0    12.011   -9.480879    0.364279   -0.839326
   1 C     6.0000    0    12.011  -12.220547   -0.395874   -1.092185
   2 C     6.0000    0    12.011  -13.908249    1.357308    0.483368
   3 H     1.0000    0     1.008  -12.493199   -2.361919   -0.501010
   4 H     1.0000    0     1.008  -12.816165   -0.235368   -3.077487
   5 C     6.0000    0    12.011   -8.990158    3.051571   -1.437547
   6 C     6.0000    0    12.011  -10.723843    4.893447   -0.105465
   7 C     6.0000    0    12.011  -13.508821    4.106809   -0.313943
   8 H     1.0000    0     1.008  -10.449138    6.803549   -0.853550
   9 H     1.0000    0     1.008  -10.196528    4.947483    1.905760
  10 H     1.0000    0     1.008  -14.143663    4.314803   -2.279487
  11 H     1.0000    0     1.008  -14.686769    5.344706    0.856881
  12 O     8.0000    0    15.999  -13.445937    1.004119    3.136439
  13 H     1.0000    0     1.008  -15.895730    0.838335    0.203602
  14 C     6.0000    0    12.011   -7.715650   -1.291423   -0.006939
  15 C     6.0000    0    12.011   -7.218097    3.801233   -3.076505
  16 H     1.0000    0     1.008   -6.012743    2.446753   -4.041187
  17 H     1.0000    0     1.008   -6.947734    5.793303   -3.503281
  18 C     6.0000    0    12.011   -5.091821   -0.726980    0.495737
  19 H     1.0000    0     1.008   -8.367362   -3.207967    0.367620
  20 C     6.0000    0    12.011   -3.273444   -2.401171    1.126872
  21 H     1.0000    0     1.008   -4.563395    1.254835    0.360998
  22 C     6.0000    0    12.011   -3.612606   -5.220508    1.348981
  23 C     6.0000    0    12.011   -1.728673   -6.656666   -0.345290
  24 H     1.0000    0     1.008   -5.540671   -5.818728    0.908747
  25 H     1.0000    0     1.008   -3.243018   -5.756078    3.326407
  26 C     6.0000    0    12.011    1.012046   -5.787709    0.039540
  27 H     1.0000    0     1.008   -2.274376   -6.399885   -2.329394
  28 H     1.0000    0     1.008   -1.873046   -8.686876    0.047323
  29 C     6.0000    0    12.011    1.292069   -2.916941   -0.269653
  30 H     1.0000    0     1.008    2.229211   -6.812878   -1.282140
  31 H     1.0000    0     1.008    1.630171   -6.303417    1.956957
  32 C     6.0000    0    12.011   -0.590316   -1.642486    1.616437
  33 H     1.0000    0     1.008   -0.082009   -2.438313    3.479603
  34 C     6.0000    0    12.011    0.193963    1.130886    1.630523
  35 H     1.0000    0     1.008  -11.637649    0.861582    3.369884
  36 C     6.0000    0    12.011    3.105673    1.023940    1.360883
  37 H     1.0000    0     1.008   -0.418658    2.103067    3.351282
  38 H     1.0000    0     1.008   -0.641688    2.141175    0.028187
  39 C     6.0000    0    12.011    3.815829   -1.756668    0.689371
  40 H     1.0000    0     1.008    4.057217    1.621023    3.097238
  41 H     1.0000    0     1.008    3.741701    2.307098   -0.137145
  42 H     1.0000    0     1.008    4.298966   -2.759994    2.449001
  43 C     6.0000    0    12.011    6.175086   -1.902009   -1.035348
  44 C     6.0000    0    12.011    0.742699   -2.095138   -2.995616
  45 H     1.0000    0     1.008    1.138800   -0.084480   -3.278231
  46 H     1.0000    0     1.008   -1.239442   -2.407720   -3.496562
  47 H     1.0000    0     1.008    1.911511   -3.158770   -4.332599
  48 H     1.0000    0     1.008    5.720696   -0.834438   -2.766857
  49 C     6.0000    0    12.011    6.881223   -4.595894   -1.795170
  50 C     6.0000    0    12.011    8.325581   -0.520068    0.235587
  51 C     6.0000    0    12.011   10.497737   -1.511303    1.044044
  52 H     1.0000    0     1.008    8.021948    1.497584    0.539734
  53 H     1.0000    0     1.008   10.882334   -3.515727    0.755788
  54 C     6.0000    0    12.011   12.544897   -0.030253    2.347711
  55 C     6.0000    0    12.011   15.021563   -0.228248    0.846299
  56 C     6.0000    0    12.011   12.824142   -0.838650    5.156808
  57 H     1.0000    0     1.008   11.958835    1.964740    2.368607
  58 H     1.0000    0     1.008   10.903873   -0.784216    5.953916
  59 C     6.0000    0    12.011   14.441066    1.040002    6.650166
  60 C     6.0000    0    12.011   13.843048   -3.525656    5.486640
  61 H     1.0000    0     1.008   15.602523   -2.202919    0.621212
  62 H     1.0000    0     1.008   16.565850    0.793879    1.769524
  63 H     1.0000    0     1.008   14.770919    0.569416   -1.046356
  64 H     1.0000    0     1.008   13.736890    2.976003    6.436072
  65 H     1.0000    0     1.008   16.415494    1.002046    6.025754
  66 H     1.0000    0     1.008   14.420914    0.569600    8.666764
  67 H     1.0000    0     1.008   12.722711   -4.918155    4.443492
  68 H     1.0000    0     1.008   13.809278   -4.062056    7.486227
  69 H     1.0000    0     1.008   15.805715   -3.663873    4.839140
  70 H     1.0000    0     1.008    5.446066   -5.424447   -3.023660
  71 H     1.0000    0     1.008    7.084131   -5.817297   -0.133443
  72 H     1.0000    0     1.008    8.675260   -4.614916   -2.827276

--------------------------------
INTERNAL COORDINATES (ANGSTROEM)
--------------------------------
 C      0   0   0     0.000000000000     0.00000000     0.00000000
 C      1   0   0     1.510478490249     0.00000000     0.00000000
 C      2   1   0     1.534098702305   110.46093952     0.00000000
 H      2   1   3     1.095940916713   110.72501049   237.87171900
 H      2   1   3     1.100122385384   109.81734000   118.75559722
 C      1   2   3     1.479825550588   113.91554328   306.08370093
 C      6   1   2     1.512800501075   114.39582556    49.86363435
 C      3   2   1     1.529587943919   110.17506491    56.75807962
 H      7   6   1     1.095228729351   110.22436925   188.71716802
 H      7   6   1     1.100638910621   108.27411103    72.02211095
 H      8   3   2     1.098555879426   108.31325532    64.45100822
 H      8   3   2     1.096148180676   109.50946689   181.45592708
 O      3   2   1     1.437303920713   110.67911782   292.73184219
 H      3   2   1     1.097029758899   109.47451267   177.19959250
 C      1   2   3     1.354347289356   121.23346714   122.86512747
 C      6   1   2     1.337507690004   123.14537694   231.84870954
 H     16   6   1     1.086825471545   121.36190234   358.99083635
 H     16   6   1     1.087530430669   120.95669012   178.37262322
 C     15   1   2     1.444931093638   126.07989185   185.12442793
 H     15   1   2     1.089406420668   116.30117706     3.12427456
 C     19  15   1     1.349945561544   126.50059180   185.78790392
 H     19  15   1     1.087710636782   115.73930941     6.38060246
 C     21  19  15     1.507275060845   125.73349044     2.13305221
 C     23  21  19     1.541196880244   111.45095748   124.43304116
 H     23  21  19     1.093376487636   112.40063524     0.82757354
 H     23  21  19     1.101610017237   107.91355992   242.99107717
 C     24  23  21     1.535044487624   112.72246789    51.02954825
 H     24  23  21     1.097375841670   108.98442279   288.88105071
 H     24  23  21     1.096909220638   109.13095289   172.94173704
 C     27  24  23     1.535099426553   111.93194988   306.40556990
 H     27  24  23     1.094680996657   108.82638063   182.79128695
 H     27  24  23     1.100449704524   109.20009435    66.39158718
 C     21  19  15     1.498090655724   122.85255964   180.00875218
 H     33  21  19     1.105347498069   106.42651275   127.52201719
 C     33  21  19     1.525176940044   121.10615843     4.95031994
 H     13   3   2     0.967789588642   107.64473419    42.20536189
 C     35  33  21     1.548437914498   103.60071928   196.98839116
 H     35  33  21     1.094955897867   112.06174236    75.03365057
 H     35  33  21     1.095597941958   110.85102471   315.37696718
 C     30  27  24     1.555035920809   116.03077659   166.09217244
 H     37  35  33     1.094370305849   111.71111814   249.23589898
 H     37  35  33     1.096701885121   110.44824040   130.67708581
 H     40  30  27     1.101957484643   106.54628449   321.00640829
 C     40  30  27     1.548408487300   118.71751628    81.28775058
 C     30  27  24     1.534435540275   111.24637828   294.18267199
 H     45  30  27     1.094707594570   111.56865809   186.21746166
 H     45  30  27     1.094455065722   111.49637777    66.26514579
 H     45  30  27     1.095404125946   110.76819591   306.11395091
 H     44  40  30     1.102963354378   106.76503076    61.96276488
 C     44  40  30     1.527570212146   113.49907075   302.81643075
 C     44  40  30     1.510674815078   108.71852021   176.64523768
 C     51  44  40     1.333947449324   126.98061841   116.04673473
 H     51  44  40     1.091647532022   115.35488155   297.22753148
 H     52  51  44     1.090763092036   119.88841894     1.92579403
 C     52  51  44     1.504569152332   124.23950883   181.32461505
 C     55  52  51     1.536193075468   109.97469438   238.67880309
 C     55  52  51     1.553882047068   111.32779674   112.31285542
 H     55  52  51     1.100370815938   107.54401499   356.19839268
 H     57  55  52     1.100609196322   105.76125223   309.82892387
 C     57  55  52     1.531315732435   111.59816851   193.19788004
 C     57  55  52     1.530682278647   113.47303809    67.79931929
 H     56  55  52     1.095729612774   111.13907241   302.25158570
 H     56  55  52     1.095014439443   111.85476692   181.36228324
 H     56  55  52     1.094927788809   110.08710604    61.35456873
 H     60  57  55     1.096023181820   111.31641881    52.91045863
 H     60  57  55     1.096009889783   111.41902596   292.20584318
 H     60  57  55     1.095837997137   110.46505800   172.93970909
 H     61  57  55     1.095072736703   112.14185315   305.93371453
 H     61  57  55     1.095692524788   110.18321594   186.00934417
 H     61  57  55     1.096102360017   111.10701521    67.02511153
 H     50  44  40     1.091614946635   111.18591516    67.00255167
 H     50  44  40     1.096602269566   111.27949925   306.57002428
 H     50  44  40     1.095303658186   110.60066188   186.48318768

---------------------------
INTERNAL COORDINATES (A.U.)
---------------------------
 C      0   0   0     0.000000000000     0.00000000     0.00000000
 C      1   0   0     2.854390677749     0.00000000     0.00000000
 C      2   1   0     2.899026409761   110.46093952     0.00000000
 H      2   1   3     2.071028191546   110.72501049   237.87171900
 H      2   1   3     2.078930022171   109.81734000   118.75559722
 C      1   2   3     2.796465016591   113.91554328   306.08370093
 C      6   1   2     2.858778642290   114.39582556    49.86363435
 C      3   2   1     2.890502311754   110.17506491    56.75807962
 H      7   6   1     2.069682352475   110.22436925   188.71716802
 H      7   6   1     2.079906113411   108.27411103    72.02211095
 H      8   3   2     2.075969754924   108.31325532    64.45100822
 H      8   3   2     2.071419863674   109.50946689   181.45592708
 O      3   2   1     2.716110781360   110.67911782   292.73184219
 H      3   2   1     2.073085805081   109.47451267   177.19959250
 C      1   2   3     2.559345467102   121.23346714   122.86512747
 C      6   1   2     2.527523236122   123.14537694   231.84870954
 H     16   6   1     2.053802496591   121.36190234   358.99083635
 H     16   6   1     2.055134676271   120.95669012   178.37262322
 C     15   1   2     2.730524049363   126.07989185   185.12442793
 H     15   1   2     2.058679783597   116.30117706     3.12427456
 C     19  15   1     2.551027407021   126.50059180   185.78790392
 H     19  15   1     2.055475216470   115.73930941     6.38060246
 C     21  19  15     2.848337073486   125.73349044     2.13305221
 C     23  21  19     2.912440022115   111.45095748   124.43304116
 H     23  21  19     2.066182122901   112.40063524     0.82757354
 H     23  21  19     2.081741238962   107.91355992   242.99107717
 C     24  23  21     2.900813684995   112.72246789    51.02954825
 H     24  23  21     2.073739806738   108.98442279   288.88105071
 H     24  23  21     2.072858020780   109.13095289   172.94173704
 C     27  24  23     2.900917504525   111.93194988   306.40556990
 H     27  24  23     2.068647287689   108.82638063   182.79128695
 H     27  24  23     2.079548565706   109.20009435    66.39158718
 C     21  19  15     2.830981063106   122.85255964   180.00875218
 H     33  21  19     2.088804054165   106.42651275   127.52201719
 C     33  21  19     2.882166722455   121.10615843     4.95031994
 H     13   3   2     1.828857277794   107.64473419    42.20536189
 C     35  33  21     2.926123593782   103.60071928   196.98839116
 H     35  33  21     2.069166775691   112.06174236    75.03365057
 H     35  33  21     2.070380063189   110.85102471   315.37696718
 C     30  27  24     2.938592018739   116.03077659   166.09217244
 H     37  35  33     2.068060167150   111.71111814   249.23589898
 H     37  35  33     2.072466213434   110.44824040   130.67708581
 H     40  30  27     2.082397857201   106.54628449   321.00640829
 C     40  30  27     2.926067984436   118.71751628    81.28775058
 C     30  27  24     2.899662941274   111.24637828   294.18267199
 H     45  30  27     2.068697550461   111.56865809   186.21746166
 H     45  30  27     2.068220340097   111.49637777    66.26514579
 H     45  30  27     2.070013804005   110.76819591   306.11395091
 H     44  40  30     2.084298675525   106.76503076    61.96276488
 C     44  40  30     2.886689351292   113.49907075   302.81643075
 C     44  40  30     2.854761677910   108.71852021   176.64523768
 C     51  44  40     2.520795356265   126.98061841   116.04673473
 H     51  44  40     2.062914870293   115.35488155   297.22753148
 H     52  51  44     2.061243520936   119.88841894     1.92579403
 C     52  51  44     2.843223647454   124.23950883   181.32461505
 C     55  52  51     2.902984201461   109.97469438   238.67880309
 C     55  52  51     2.936411513376   111.32779674   112.31285542
 H     55  52  51     2.079399487883   107.54401499   356.19839268
 H     57  55  52     2.079849961523   105.76125223   309.82892387
 C     57  55  52     2.893767358867   111.59816851   193.19788004
 C     57  55  52     2.892570304690   113.47303809    67.79931929
 H     56  55  52     2.070628884970   111.13907241   302.25158570
 H     56  55  52     2.069277403237   111.85476692   181.36228324
 H     56  55  52     2.069113657269   110.08710604    61.35456873
 H     60  57  55     2.071183650068   111.31641881    52.91045863
 H     60  57  55     2.071158531759   111.41902596   292.20584318
 H     60  57  55     2.070833701734   110.46505800   172.93970909
 H     61  57  55     2.069387569091   112.14185315   305.93371453
 H     61  57  55     2.070558798834   110.18321594   186.00934417
 H     61  57  55     2.071333275176   111.10701521    67.02511153
 H     50  44  40     2.062853292834   111.18591516    67.00255167
 H     50  44  40     2.072277967316   111.27949925   306.57002428
 H     50  44  40     2.069823947454   110.60066188   186.48318768

---------------------
BASIS SET INFORMATION
---------------------
There are 3 groups of distinct atoms

 Group   1 Type C   : 7s4p1d contracted to 3s2p1d pattern {511/31/1}
 Group   2 Type H   : 4s1p contracted to 2s1p pattern {31/1}
 Group   3 Type O   : 7s4p1d contracted to 3s2p1d pattern {511/31/1}

Atom   0C    basis set group =>   1
Atom   1C    basis set group =>   1
Atom   2C    basis set group =>   1
Atom   3H    basis set group =>   2
Atom   4H    basis set group =>   2
Atom   5C    basis set group =>   1
Atom   6C    basis set group =>   1
Atom   7C    basis set group =>   1
Atom   8H    basis set group =>   2
Atom   9H    basis set group =>   2
Atom  10H    basis set group =>   2
Atom  11H    basis set group =>   2
Atom  12O    basis set group =>   3
Atom  13H    basis set group =>   2
Atom  14C    basis set group =>   1
Atom  15C    basis set group =>   1
Atom  16H    basis set group =>   2
Atom  17H    basis set group =>   2
Atom  18C    basis set group =>   1
Atom  19H    basis set group =>   2
Atom  20C    basis set group =>   1
Atom  21H    basis set group =>   2
Atom  22C    basis set group =>   1
Atom  23C    basis set group =>   1
Atom  24H    basis set group =>   2
Atom  25H    basis set group =>   2
Atom  26C    basis set group =>   1
Atom  27H    basis set group =>   2
Atom  28H    basis set group =>   2
Atom  29C    basis set group =>   1
Atom  30H    basis set group =>   2
Atom  31H    basis set group =>   2
Atom  32C    basis set group =>   1
Atom  33H    basis set group =>   2
Atom  34C    basis set group =>   1
Atom  35H    basis set group =>   2
Atom  36C    basis set group =>   1
Atom  37H    basis set group =>   2
Atom  38H    basis set group =>   2
Atom  39C    basis set group =>   1
Atom  40H    basis set group =>   2
Atom  41H    basis set group =>   2
Atom  42H    basis set group =>   2
Atom  43C    basis set group =>   1
Atom  44C    basis set group =>   1
Atom  45H    basis set group =>   2
Atom  46H    basis set group =>   2
Atom  47H    basis set group =>   2
Atom  48H    basis set group =>   2
Atom  49C    basis set group =>   1
Atom  50C    basis set group =>   1
Atom  51C    basis set group =>   1
Atom  52H    basis set group =>   2
Atom  53H    basis set group =>   2
Atom  54C    basis set group =>   1
Atom  55C    basis set group =>   1
Atom  56C    basis set group =>   1
Atom  57H    basis set group =>   2
Atom  58H    basis set group =>   2
Atom  59C    basis set group =>   1
Atom  60C    basis set group =>   1
Atom  61H    basis set group =>   2
Atom  62H    basis set group =>   2
Atom  63H    basis set group =>   2
Atom  64H    basis set group =>   2
Atom  65H    basis set group =>   2
Atom  66H    basis set group =>   2
Atom  67H    basis set group =>   2
Atom  68H    basis set group =>   2
Atom  69H    basis set group =>   2
Atom  70H    basis set group =>   2
Atom  71H    basis set group =>   2
Atom  72H    basis set group =>   2

-------------------------
BASIS SET IN INPUT FORMAT
-------------------------

 # Basis set for element : H 
 NewGTO H 
 S 3 
   1      13.0107010000      0.0334854848
   2       1.9622572000      0.2347218709
   3       0.4445379600      0.8137702853
 S 1 
   1       0.1219496200      1.0000000000
 P 1 
   1       0.8000000000      1.0000000000
  end;

 # Basis set for element : C 
 NewGTO C 
 S 5 
   1    1238.4016938000      0.0055173650
   2     186.2900499200      0.0410888285
   3      42.2511763460      0.1822538213
   4      11.6765579320      0.4682845944
   5       3.5930506482      0.4457581734
 S 1 
   1       0.4024514736      1.0000000000
 S 1 
   1       0.1309018267      1.0000000000
 P 3 
   1       9.4680970621      0.0568883320
   2       2.0103545142      0.3129405934
   3       0.5477100471      0.7606501651
 P 1 
   1       0.1526861379      1.0000000000
 D 1 
   1       0.8000000000      1.0000000000
  end;

 # Basis set for element : O 
 NewGTO O 
 S 5 
   1    2266.1767785000     -0.0053893504
   2     340.8701019100     -0.0402347214
   3      77.3631351670     -0.1800818421
   4      21.4796449400     -0.4682885766
   5       6.6589433124     -0.4469261716
 S 1 
   1       0.8097597567      1.0000000000
 S 1 
   1       0.2553077223      1.0000000000
 P 3 
   1      17.7215043170      0.0626302488
   2       3.8635505440      0.3333113849
   3       1.0480920883      0.7414863830
 P 1 
   1       0.2764154441      1.0000000000
 D 1 
   1       1.2000000000      1.0000000000
  end;

---------------------------------
AUXILIARY/J BASIS SET INFORMATION
---------------------------------
There are 3 groups of distinct atoms

 Group   1 Type C   : 12s5p4d2f1g contracted to 6s4p3d1f1g pattern {711111/2111/211/2/1}
 Group   2 Type H   : 5s2p1d contracted to 3s1p1d pattern {311/2/1}
 Group   3 Type O   : 12s5p4d2f1g contracted to 6s4p3d1f1g pattern {711111/2111/211/2/1}

Atom   0C    basis set group =>   1
Atom   1C    basis set group =>   1
Atom   2C    basis set group =>   1
Atom   3H    basis set group =>   2
Atom   4H    basis set group =>   2
Atom   5C    basis set group =>   1
Atom   6C    basis set group =>   1
Atom   7C    basis set group =>   1
Atom   8H    basis set group =>   2
Atom   9H    basis set group =>   2
Atom  10H    basis set group =>   2
Atom  11H    basis set group =>   2
Atom  12O    basis set group =>   3
Atom  13H    basis set group =>   2
Atom  14C    basis set group =>   1
Atom  15C    basis set group =>   1
Atom  16H    basis set group =>   2
Atom  17H    basis set group =>   2
Atom  18C    basis set group =>   1
Atom  19H    basis set group =>   2
Atom  20C    basis set group =>   1
Atom  21H    basis set group =>   2
Atom  22C    basis set group =>   1
Atom  23C    basis set group =>   1
Atom  24H    basis set group =>   2
Atom  25H    basis set group =>   2
Atom  26C    basis set group =>   1
Atom  27H    basis set group =>   2
Atom  28H    basis set group =>   2
Atom  29C    basis set group =>   1
Atom  30H    basis set group =>   2
Atom  31H    basis set group =>   2
Atom  32C    basis set group =>   1
Atom  33H    basis set group =>   2
Atom  34C    basis set group =>   1
Atom  35H    basis set group =>   2
Atom  36C    basis set group =>   1
Atom  37H    basis set group =>   2
Atom  38H    basis set group =>   2
Atom  39C    basis set group =>   1
Atom  40H    basis set group =>   2
Atom  41H    basis set group =>   2
Atom  42H    basis set group =>   2
Atom  43C    basis set group =>   1
Atom  44C    basis set group =>   1
Atom  45H    basis set group =>   2
Atom  46H    basis set group =>   2
Atom  47H    basis set group =>   2
Atom  48H    basis set group =>   2
Atom  49C    basis set group =>   1
Atom  50C    basis set group =>   1
Atom  51C    basis set group =>   1
Atom  52H    basis set group =>   2
Atom  53H    basis set group =>   2
Atom  54C    basis set group =>   1
Atom  55C    basis set group =>   1
Atom  56C    basis set group =>   1
Atom  57H    basis set group =>   2
Atom  58H    basis set group =>   2
Atom  59C    basis set group =>   1
Atom  60C    basis set group =>   1
Atom  61H    basis set group =>   2
Atom  62H    basis set group =>   2
Atom  63H    basis set group =>   2
Atom  64H    basis set group =>   2
Atom  65H    basis set group =>   2
Atom  66H    basis set group =>   2
Atom  67H    basis set group =>   2
Atom  68H    basis set group =>   2
Atom  69H    basis set group =>   2
Atom  70H    basis set group =>   2
Atom  71H    basis set group =>   2
Atom  72H    basis set group =>   2

-------------------------------------
AUXILIARY/J BASIS SET IN INPUT FORMAT
-------------------------------------

 # Auxiliary/J basis set for element : H 
 NewAuxJGTO H 
 S 3 
   1      15.6752927000      0.1007184237
   2       3.6063578000      0.3404257499
   3       1.2080016000      0.6491996172
 S 1 
   1       0.4726794000      1.0000000000
 S 1 
   1       0.2018100000      1.0000000000
 P 2 
   1       2.0281365000      0.5596620919
   2       0.5358730000      0.5596620919
 D 1 
   1       2.2165124000      1.0000000000
  end;

 # Auxiliary/J basis set for element : C 
 NewAuxJGTO C 
 S 7 
   1    1861.0916331000      0.0134602335
   2     642.9939764000      0.0299160374
   3     235.1105725000      0.1008649584
   4      90.7028894000      0.2370970548
   5      36.7794552000      0.3924037254
   6      15.6046273000      0.3195862154
   7       6.8907294000      0.0530104441
 S 1 
   1       3.1478850000     -1.0000000000
 S 1 
   1       1.4777287000      1.0000000000
 S 1 
   1       0.7076466000      1.0000000000
 S 1 
   1       0.3430122000      1.0000000000
 S 1 
   1       0.1669453000      1.0000000000
 P 2 
   1      13.5472892000     -0.6769313712
   2       5.4669419000     -0.3779500978
 P 1 
   1       2.1751721000      1.0000000000
 P 1 
   1       0.8582194000      1.0000000000
 P 1 
   1       0.3376720000      1.0000000000
 D 2 
   1       5.9287253000     -0.3533329857
   2       1.9809209000     -0.7456525731
 D 1 
   1       0.8055417000     -1.0000000000
 D 1 
   1       0.3531244000     -1.0000000000
 F 2 
   1       1.6755626000      0.6311076882
   2       0.5997536000      0.4968166032
 G 1 
   1       1.0024600000     -1.0000000000
  end;

 # Auxiliary/J basis set for element : O 
 NewAuxJGTO O 
 S 7 
   1    2876.8216605000      0.0168151159
   2    1004.7443032000      0.0340137548
   3     369.7579954000      0.1194951309
   4     142.9442404000      0.2664627624
   5      57.8366425000      0.4202764046
   6      24.3864983000      0.2765077335
   7      10.6622662000      0.0057008815
 S 1 
   1       4.8070437000     -1.0000000000
 S 1 
   1       2.2210770000      1.0000000000
 S 1 
   1       1.0447795000      1.0000000000
 S 1 
   1       0.4968425000      1.0000000000
 S 1 
   1       0.2371384000      1.0000000000
 P 2 
   1      64.2613382000     -0.2731534179
   2      16.3006076000     -0.8168011598
 P 1 
   1       4.3550542000      1.0000000000
 P 1 
   1       1.2019554000      1.0000000000
 P 1 
   1       0.3354196000      1.0000000000
 D 2 
   1       9.2146611000     -0.4661230638
   2       2.8435251000     -0.6600908911
 D 1 
   1       0.9955759000     -1.0000000000
 D 1 
   1       0.3649441000     -1.0000000000
 F 2 
   1       2.6420115000      0.5931563945
   2       0.7345613000      0.5931563945
 G 1 
   1       1.3931000000     -1.0000000000
  end;


Checking for AutoStart:
The File: inpS.gbw exists
Trying to determine its content:
     ... Fine, the file contains calculation information
     ... Fine, the calculation information was read
     ... Fine, the file contains a basis set
     ... Fine, the basis set was read
     ... Fine, the file contains a geometry
     ... Fine, the geometry was read
     ... Fine, the file contains a set of orbitals
     ... Fine, the orbitals can be read
     => possible old guess file was deleted
     => GBW file was renamed to GES file
     => GES file is set as startup file
     => Guess is set to MORead
     ... now leaving AutoStart



           ************************************************************
           *        Program running with 4 parallel MPI-processes     *
           *              working on a common directory               *
           ************************************************************
------------------------------------------------------------------------------
                             ORCA STARTUP CALCULATIONS
                           -- RI-GTO INTEGRALS CHOSEN --
------------------------------------------------------------------------------
------------------------------------------------------------------------------
                   ___                                                        
                  /   \      - P O W E R E D   B Y -                         
                 /     \                                                     
                 |  |  |   _    _      __       _____    __    __             
                 |  |  |  | |  | |    /  \     |  _  \  |  |  /  |          
                  \  \/   | |  | |   /    \    | | | |  |  | /  /          
                 / \  \   | |__| |  /  /\  \   | |_| |  |  |/  /          
                |  |  |   |  __  | /  /__\  \  |    /   |      \           
                |  |  |   | |  | | |   __   |  |    \   |  |\   \          
                \     /   | |  | | |  |  |  |  | |\  \  |  | \   \       
                 \___/    |_|  |_| |__|  |__|  |_| \__\ |__|  \__/        
                                                                              
                      - O R C A' S   B I G   F R I E N D -                    
                                      &                                       
                       - I N T E G R A L  F E E D E R -                       
                                                                              
 v1 FN, 2020, v2 2021, v3 2022-2024                                           
------------------------------------------------------------------------------


----------------------
SHARK INTEGRAL PACKAGE
----------------------

Number of atoms                             ...     73
Number of basis functions                   ...    626
Number of shells                            ...    306
Maximum angular momentum                    ...      2
Integral batch strategy                     ... SHARK/LIBINT Hybrid
RI-J (if used) integral strategy            ... SPLIT-RIJ (Revised 2003 algorithm where possible)
Printlevel                                  ...      1
Contraction scheme used                     ... SEGMENTED contraction
Prescreening option                         ... SCHWARTZ
   Thresh                                   ... 3.000e-11
   Tcut                                     ... 1.000e-12
   Tpresel                                  ... 1.000e-12 
Coulomb Range Separation                    ... NOT USED
Exchange Range Separation                   ... Long Range
   Mu parameter                             ... 3.000e-01
   Scaling (regular/separated)              ... 1.670e-01 8.330e-01
Multipole approximations                    ... NOT USED
Finite Nucleus Model                        ... NOT USED
CABS basis                                  ... NOT available
Auxiliary Coulomb fitting basis             ... AVAILABLE
   # of basis functions in Aux-J            ...   1905
   # of shells in Aux-J                     ...    655
   Maximum angular momentum in Aux-J        ...      4
Auxiliary J/K fitting basis                 ... NOT available
Auxiliary Correlation fitting basis         ... NOT available
Auxiliary 'external' fitting basis          ... NOT available

Checking pre-screening integrals            ... done (  0.0 sec) Dimension = 306
Check shell pair data                       ... done (  0.0 sec)
Shell pair information
Shell pair cut-off parameter TPreSel        ...   1.0e-12
Total number of shell pairs                 ...     46971
Shell pairs after pre-screening             ...     27289
Total number of primitive shell pairs       ...    162105
Primitive shell pairs kept                  ...     60204
          la=0 lb=0:   9545 shell pairs
          la=1 lb=0:  10462 shell pairs
          la=1 lb=1:   2901 shell pairs
          la=2 lb=0:   2735 shell pairs
          la=2 lb=1:   1453 shell pairs
          la=2 lb=2:    193 shell pairs

Calculating one electron integrals          ... done (  0.1 sec)
Calculating RI/J V-Matrix + Cholesky decomp.... done (  0.2 sec)
Calculating Nuclear repulsion               ... done (  0.0 sec) ENN=   2768.565114807781 Eh

Diagonalization of the overlap matrix:
Smallest eigenvalue                        ... 4.483e-04
Time for diagonalization                   ...    0.043 sec
Threshold for overlap eigenvalues          ... 1.000e-07
Number of eigenvalues below threshold      ... 0
Time for construction of square roots      ...    0.024 sec
Total time needed                          ...    0.071 sec

-------------------
DFT GRID GENERATION
-------------------

General Integration Accuracy     IntAcc      ... 4.388
Radial Grid Type                 RadialGrid  ... OptM3 with GC (2021)
Angular Grid (max. ang.)         AngularGrid ... 4 (Lebedev-302)
Angular grid pruning method      GridPruning ... 4 (adaptive)
Weight generation scheme         WeightScheme... mBecke (2022)
Basis function cutoff            BFCut       ... 1.0000e-11
Integration weight cutoff        WCut        ... 1.0000e-14
Partially contracted basis set               ... off
Rotationally invariant grid construction     ... off
Angular grids for H and He will be reduced by one unit

Total number of grid points                  ...   309975
Total number of batches                      ...     4880
Average number of points per batch           ...       63
Average number of grid points per atom       ...     4246

--------------------
COSX GRID GENERATION
--------------------

GRIDX 1
-------
General Integration Accuracy     IntAcc      ... 3.816
Radial Grid Type                 RadialGrid  ... OptM3 with GC (2021)
Angular Grid (max. ang.)         AngularGrid ... 1 (Lebedev-50)
Angular grid pruning method      GridPruning ... 4 (adaptive)
Weight generation scheme         WeightScheme... mBecke (2022)
Basis function cutoff            BFCut       ... 1.0000e-11
Integration weight cutoff        WCut        ... 1.0000e-14
Partially contracted basis set               ... on
Rotationally invariant grid construction     ... off
Angular grids for H and He will be reduced by one unit

Total number of grid points                  ...    39432
Total number of batches                      ...      353
Average number of points per batch           ...      111
Average number of grid points per atom       ...      540
UseSFitting                                  ... on

GRIDX 2
-------
General Integration Accuracy     IntAcc      ... 4.020
Radial Grid Type                 RadialGrid  ... OptM3 with GC (2021)
Angular Grid (max. ang.)         AngularGrid ... 2 (Lebedev-110)
Angular grid pruning method      GridPruning ... 4 (adaptive)
Weight generation scheme         WeightScheme... mBecke (2022)
Basis function cutoff            BFCut       ... 1.0000e-11
Integration weight cutoff        WCut        ... 1.0000e-14
Partially contracted basis set               ... on
Rotationally invariant grid construction     ... off
Angular grids for H and He will be reduced by one unit

Total number of grid points                  ...    81433
Total number of batches                      ...      678
Average number of points per batch           ...      120
Average number of grid points per atom       ...     1116
UseSFitting                                  ... on

GRIDX 3
-------
General Integration Accuracy     IntAcc      ... 4.338
Radial Grid Type                 RadialGrid  ... OptM3 with GC (2021)
Angular Grid (max. ang.)         AngularGrid ... 3 (Lebedev-194)
Angular grid pruning method      GridPruning ... 4 (adaptive)
Weight generation scheme         WeightScheme... mBecke (2022)
Basis function cutoff            BFCut       ... 1.0000e-11
Integration weight cutoff        WCut        ... 1.0000e-14
Partially contracted basis set               ... on
Rotationally invariant grid construction     ... off
Angular grids for H and He will be reduced by one unit

Total number of grid points                  ...   176331
Total number of batches                      ...     1420
Average number of points per batch           ...      124
Average number of grid points per atom       ...     2415
UseSFitting                                  ... on
Initializing property integral containers    ... done (  0.0 sec)

SHARK setup successfully completed in   4.4 seconds

Maximum memory used throughout the entire STARTUP-calculation: 95.5 MB


           ************************************************************
           *        Program running with 4 parallel MPI-processes     *
           *              working on a common directory               *
           ************************************************************
-------------------------------------------------------------------------------
                                 ORCA GUESS
                   Start orbitals & Density for SCF / CASSCF
-------------------------------------------------------------------------------

------------
SCF SETTINGS
------------
Hamiltonian:
 Density Functional     Method          .... DFT(GTOs)
 Exchange Functional    Exchange        .... WB97X-V
 Correlation Functional Correlation     .... WB97X-V
 Gradients option       PostSCFGGA      .... off
 Hybrid DFT is turned on
   Fraction HF Exchange ScalHFX         ....  0.167000
   Scaling of DF-GGA-X  ScalDFX         ....  0.000000
   Scaling of DF-GGA-C  ScalDFC         ....  1.000000
   Scaling of DF-LDA-C  ScalLDAC        ....  1.000000
   Perturbative correction              ....  0.000000
 Long-range corrected/Screened/Range-Separated Hybrid DFT is turned on
   Amount of maximum screened exact exchange              ....  0.833000
   Range separation parameter mu (erf(mu*r12)/r12)        ....  0.300000
 RI-approximation to the Coulomb term is turned on
   Number of AuxJ basis functions       .... 1905
   RIJ-COSX (HFX calculated with COS-X)).... on


General Settings:
 Integral files         IntName         .... inpS
 Hartree-Fock type      HFTyp           .... RHF
 Total Charge           Charge          ....    0
 Multiplicity           Mult            ....    1
 Number of Electrons    NEL             ....  220
 Basis Dimension        Dim             ....  626
 Nuclear Repulsion      ENuc            ....   2768.5651148078 Eh

Convergence Acceleration:
 AO-DIIS                CNVDIIS         .... on
   Start iteration      DIISMaxIt       ....    12
   Startup error        DIISStart       ....  0.200000
   # of expansion vecs  DIISMaxEq       ....     5
   Bias factor          DIISBfac        ....   1.050
   Max. coefficient     DIISMaxC        ....  10.000
 MO-DIIS                CNVKDIIS        .... off
 Trust-Rad. Augm. Hess. CNVTRAH         .... auto
   Auto Start mean grad. ratio tolernc. ....  1.125000
   Auto Start start iteration           ....     1
   Auto Start num. interpolation iter.  ....    10
   Max. Number of Micro iterations      ....    24
   Max. Number of Macro iterations      .... Maxiter - #DIIS iter
   Number of Davidson start vectors     ....     2
   Converg. threshold    (grad. norm)   ....   1.000e-04
   Grad. Scal. Fac. for Micro threshold ....   0.100
   Minimum threshold for Micro iter.    ....   1.000e-02
   NR start threshold (gradient norm)   ....   1.000e-04
   Initial trust radius                 ....   0.400
   Minimum AH scaling param. (alpha)    ....   1.000
   Maximum AH scaling param. (alpha)    .... 1000.000
   Quad. conv. algorithm                .... NR
   White noise on init. David. guess    .... on
   Maximum white noise                  ....   0.010
   Pseudo random numbers                .... off
   Inactive MOs                         .... canonical
   Orbital update algorithm             .... Taylor
   Preconditioner                       .... Diag
   Full preconditioner red. dimension   ....   250
 SOSCF                  CNVSOSCF        .... off
 Level Shifting         CNVShift        .... on
   Level shift para.    LevelShift      ....    0.2500
   Turn off err/grad.   ShiftErr        ....    0.0010
 Zerner damping         CNVZerner       .... off
 Static damping         CNVDamp         .... on
   Fraction old density DampFac         ....    0.7000
   Max. Damping (<1)    DampMax         ....    0.9800
   Min. Damping (>=0)   DampMin         ....    0.0000
   Turn off err/grad.   DampErr         ....    0.1000

SCF Procedure:
 Maximum # iterations   MaxIter         ....   125
 SCF integral mode      SCFMode         .... Direct
   Integral package                     .... SHARK and LIBINT hybrid scheme
 Reset frequency        DirectResetFreq ....    20
 Integral Threshold     Thresh          ....  3.000e-11 Eh
 Primitive CutOff       TCut            ....  1.000e-12 Eh

Convergence Tolerance:
 Convergence Check Mode ConvCheckMode   .... Total+1el-Energy
 Convergence forced     ConvForced      .... 0
 Energy Change          TolE            ....  1.000e-07 Eh
 1-El. energy change                    ....  1.000e-04 Eh
 DIIS Error             TolErr          ....  1.000e-07

---------------------
INITIAL GUESS: MOREAD
---------------------
Guess MOs are being read from file: inpS.ges
Input Geometry matches current geometry (good)
Input basis set matches current basis set (good)
Occupation numbers will be reassigned to an Aufbau configuration
MOs were renormalized
MOs were reorthogonalized (Cholesky)
                      ------------------
                      INITIAL GUESS DONE (   0.2 sec)
                      ------------------
             **** ENERGY FILE WAS UPDATED (inpS.en.tmp) ****
Finished Guess after   0.3 sec
Maximum memory used throughout the entire GUESS-calculation: 52.2 MB


           ************************************************************
           *        Program running with 4 parallel MPI-processes     *
           *              working on a common directory               *
           ************************************************************

-------------------------------------------------------------------------------------------
                                      ORCA LEAN-SCF
                              memory conserving SCF solver
-------------------------------------------------------------------------------------------

--------------------
CPCM SOLVATION MODEL
--------------------
CPCM parameters:
  Epsilon                                         ...       4.8030
  Refrac                                          ...       1.4459
  Rsolv                                           ...       1.3000
  Surface type                                    ... GAUSSIAN VDW
  Discretization scheme                           ... Constant charge density
    Threshold for H atoms                         ...       5.0000 (charges/Ang^2)
    Threshold for non-H atoms                     ...       5.0000 (charges/Ang^2)
  Epsilon function type                           ...         CPCM
Solvent:                                          ... CHLOROFORM
Radii:
  Scheme                                          ... Element-dependent radii
  Radius for C  used is    3.8550 Bohr (=   2.0400 Ang.)
  Radius for H  used is    2.4944 Bohr (=   1.3200 Ang.)
  Radius for O  used is    3.4469 Bohr (=   1.8240 Ang.)
Calculating surface                               ...        done! (  0.0s)
Cavity surface points                             ...         5351
Cavity Volume                                     ...    3609.6133
Cavity Surface-area                               ...    1792.8927
Calculating surface distance matrix               ...        done! (  0.2s)
Performing Cholesky decomposition & store         ...        done! (  0.9s)
Overall time for CPCM initialization              ...                 1.2s

----------------------------------------D-I-I-S--------------------------------------------
Iteration    Energy (Eh)           Delta-E    RMSDP     MaxDP     DIISErr   Damp  Time(sec)
-------------------------------------------------------------------------------------------
               ***  Starting incremental Fock matrix formation  ***
    1    -1168.3618086352303180     0.00e+00  3.20e-08  2.08e-06  4.37e-06  0.700  23.5

  HOMO= 109 E= -7.964 eV LUMO=  8.069 eV gap=  16.033 eV
    2    -1168.3618086253704860     9.86e-09  2.79e-08  1.32e-06  2.46e-06  0.700   4.8
                 **** Energy Check signals convergence ****

  HOMO= 109 E= -7.964 eV LUMO=  8.069 eV gap=  16.033 eV

               *****************************************************
               *                     SUCCESS                       *
               *           SCF CONVERGED AFTER   2 CYCLES          *
               *****************************************************

Recomputing exchange energy using gridx3       ... done (   40.626 sec)
Old exchange energy                            :    -56.782682154 Eh
New exchange energy                            :    -56.782703378 Eh
Exchange energy change after final integration :     -0.000021224 Eh
Total energy after final integration           :  -1168.361829849 Eh
             **** ENERGY FILE WAS UPDATED (inpS.en.tmp) ****

----------------
TOTAL SCF ENERGY
----------------

Total Energy       :      -1168.36182984899369 Eh          -31792.74170 eV

Components:
Nuclear Repulsion  :       2768.56511480778090 Eh           75336.48681 eV
Electronic Energy  :      -3936.91757909883154 Eh         -107128.97366 eV
One Electron Energy:      -7082.10864924963425 Eh         -192713.97374 eV
Two Electron Energy:       3145.19107015080272 Eh           85585.00008 eV
CPCM Dielectric    :         -0.00934433431965 Eh              -0.25427 eV

Virial components:
Potential Energy   :      -2321.65939094398254 Eh          -63175.56381 eV
Kinetic Energy     :       1153.29756109498862 Eh           31382.82211 eV
Virial Ratio       :          2.01306190983332

DFT components:
N(Alpha)           :      109.999971896166 electrons
N(Beta)            :      109.999971896166 electrons
N(Total)           :      219.999943792332 electrons
E(X)               :     -111.768719445419 Eh       
E(C)               :       -8.951452074897 Eh       
E(XC)              :     -120.720171520316 Eh       

CPCM Solvation Model Properties:
Surface-charge          :         -0.04205762176789
Corrected charge        :         -0.00000000000000
Outlying charge corr.   :          0.00006164622594 Eh               0.00168 eV
Free-energy (cav+disp)  :  This term is not implemented in the current solvation scheme

---------------
SCF CONVERGENCE
---------------

  Last Energy change         ...   -9.8598e-09  Tolerance :   1.0000e-07
  Last MAX-Density change    ...    1.3242e-06  Tolerance :   1.0000e-05
  Last RMS-Density change    ...    2.7950e-08  Tolerance :   1.0000e-06
  Last DIIS Error            ...    2.4615e-06  Tolerance :   1.0000e-07


----------------
ORBITAL ENERGIES
----------------

  NO   OCC          E(Eh)            E(eV) 
   0   2.0000     -19.212420      -522.7965 
   1   2.0000     -10.330388      -281.1041 
   2   2.0000     -10.294367      -280.1240 
   3   2.0000     -10.292168      -280.0641 
   4   2.0000     -10.287674      -279.9418 
   5   2.0000     -10.287106      -279.9264 
   6   2.0000     -10.285570      -279.8846 
   7   2.0000     -10.284212      -279.8476 
   8   2.0000     -10.283689      -279.8334 
   9   2.0000     -10.283064      -279.8164 
  10   2.0000     -10.280857      -279.7563 
  11   2.0000     -10.280785      -279.7544 
  12   2.0000     -10.279393      -279.7165 
  13   2.0000     -10.279338      -279.7150 
  14   2.0000     -10.278134      -279.6823 
  15   2.0000     -10.278020      -279.6791 
  16   2.0000     -10.277519      -279.6655 
  17   2.0000     -10.277122      -279.6547 
  18   2.0000     -10.273949      -279.5684 
  19   2.0000     -10.273171      -279.5472 
  20   2.0000     -10.272244      -279.5220 
  21   2.0000     -10.272164      -279.5198 
  22   2.0000     -10.271849      -279.5112 
  23   2.0000     -10.271616      -279.5049 
  24   2.0000     -10.269652      -279.4514 
  25   2.0000     -10.268500      -279.4201 
  26   2.0000     -10.268318      -279.4151 
  27   2.0000     -10.268224      -279.4126 
  28   2.0000     -10.267681      -279.3978 
  29   2.0000      -1.130947       -30.7746 
  30   2.0000      -0.999107       -27.1871 
  31   2.0000      -0.977370       -26.5956 
  32   2.0000      -0.956938       -26.0396 
  33   2.0000      -0.943157       -25.6646 
  34   2.0000      -0.918213       -24.9858 
  35   2.0000      -0.911511       -24.8035 
  36   2.0000      -0.890313       -24.2267 
  37   2.0000      -0.888137       -24.1674 
  38   2.0000      -0.872490       -23.7417 
  39   2.0000      -0.854185       -23.2436 
  40   2.0000      -0.835123       -22.7249 
  41   2.0000      -0.826734       -22.4966 
  42   2.0000      -0.810519       -22.0553 
  43   2.0000      -0.801376       -21.8065 
  44   2.0000      -0.797357       -21.6972 
  45   2.0000      -0.792096       -21.5540 
  46   2.0000      -0.761906       -20.7325 
  47   2.0000      -0.758040       -20.6273 
  48   2.0000      -0.728386       -19.8204 
  49   2.0000      -0.713283       -19.4094 
  50   2.0000      -0.705675       -19.2024 
  51   2.0000      -0.698786       -19.0149 
  52   2.0000      -0.689952       -18.7746 
  53   2.0000      -0.662063       -18.0157 
  54   2.0000      -0.649924       -17.6853 
  55   2.0000      -0.640719       -17.4348 
  56   2.0000      -0.630431       -17.1549 
  57   2.0000      -0.620062       -16.8728 
  58   2.0000      -0.607511       -16.5312 
  59   2.0000      -0.601899       -16.3785 
  60   2.0000      -0.592702       -16.1282 
  61   2.0000      -0.586014       -15.9462 
  62   2.0000      -0.574074       -15.6214 
  63   2.0000      -0.569443       -15.4953 
  64   2.0000      -0.564377       -15.3575 
  65   2.0000      -0.558852       -15.2071 
  66   2.0000      -0.555839       -15.1252 
  67   2.0000      -0.551584       -15.0094 
  68   2.0000      -0.549493       -14.9525 
  69   2.0000      -0.545967       -14.8565 
  70   2.0000      -0.538675       -14.6581 
  71   2.0000      -0.531870       -14.4729 
  72   2.0000      -0.524243       -14.2654 
  73   2.0000      -0.522303       -14.2126 
  74   2.0000      -0.519256       -14.1297 
  75   2.0000      -0.507865       -13.8197 
  76   2.0000      -0.505086       -13.7441 
  77   2.0000      -0.501976       -13.6595 
  78   2.0000      -0.500897       -13.6301 
  79   2.0000      -0.491248       -13.3675 
  80   2.0000      -0.488844       -13.3021 
  81   2.0000      -0.487927       -13.2772 
  82   2.0000      -0.485075       -13.1995 
  83   2.0000      -0.477377       -12.9901 
  84   2.0000      -0.473185       -12.8760 
  85   2.0000      -0.467579       -12.7235 
  86   2.0000      -0.463280       -12.6065 
  87   2.0000      -0.462154       -12.5759 
  88   2.0000      -0.456552       -12.4234 
  89   2.0000      -0.452028       -12.3003 
  90   2.0000      -0.449117       -12.2211 
  91   2.0000      -0.447764       -12.1843 
  92   2.0000      -0.441540       -12.0149 
  93   2.0000      -0.435337       -11.8461 
  94   2.0000      -0.429490       -11.6870 
  95   2.0000      -0.423853       -11.5336 
  96   2.0000      -0.422136       -11.4869 
  97   2.0000      -0.418322       -11.3831 
  98   2.0000      -0.415713       -11.3121 
  99   2.0000      -0.414360       -11.2753 
 100   2.0000      -0.409504       -11.1432 
 101   2.0000      -0.408450       -11.1145 
 102   2.0000      -0.405944       -11.0463 
 103   2.0000      -0.404180       -10.9983 
 104   2.0000      -0.392819       -10.6891 
 105   2.0000      -0.382925       -10.4199 
 106   2.0000      -0.372832       -10.1453 
 107   2.0000      -0.355863        -9.6835 
 108   2.0000      -0.336597        -9.1593 
 109   2.0000      -0.292656        -7.9636 
 110   0.0000       0.046533         1.2662 
 111   0.0000       0.099251         2.7007 
 112   0.0000       0.110888         3.0174 
 113   0.0000       0.131059         3.5663 
 114   0.0000       0.140604         3.8260 
 115   0.0000       0.145284         3.9534 
 116   0.0000       0.150981         4.1084 
 117   0.0000       0.153047         4.1646 
 118   0.0000       0.160375         4.3640 
 119   0.0000       0.164682         4.4812 
 120   0.0000       0.168074         4.5735 
*Only the first 10 virtual orbitals were printed.

                    ********************************
                    * MULLIKEN POPULATION ANALYSIS *
                    ********************************

-----------------------
MULLIKEN ATOMIC CHARGES
-----------------------
   0 C :   -0.174191
   1 C :    0.141839
   2 C :    0.068510
   3 H :    0.017361
   4 H :    0.030751
   5 C :   -0.170641
   6 C :    0.095828
   7 C :    0.023997
   8 H :    0.013647
   9 H :    0.027276
  10 H :    0.019878
  11 H :    0.022653
  12 O :   -0.359186
  13 H :    0.018186
  14 C :   -0.008425
  15 C :   -0.046696
  16 H :    0.035371
  17 H :    0.029415
  18 C :   -0.062501
  19 H :   -0.002214
  20 C :   -0.113742
  21 H :    0.003697
  22 C :    0.114907
  23 C :   -0.003046
  24 H :    0.014242
  25 H :    0.017013
  26 C :    0.107551
  27 H :    0.013191
  28 H :    0.015799
  29 C :   -0.406528
  30 H :    0.008920
  31 H :   -0.001947
  32 C :   -0.046182
  33 H :    0.011667
  34 C :    0.126321
  35 H :    0.179033
  36 C :    0.044306
  37 H :    0.007795
  38 H :    0.015710
  39 C :   -0.053541
  40 H :    0.013684
  41 H :    0.011130
  42 H :   -0.008889
  43 C :   -0.018073
  44 C :    0.091344
  45 H :    0.019381
  46 H :    0.025160
  47 H :    0.018966
  48 H :    0.006028
  49 C :    0.060565
  50 C :   -0.067469
  51 C :   -0.064017
  52 H :    0.009253
  53 H :    0.014833
  54 C :   -0.061882
  55 C :    0.022073
  56 C :   -0.143034
  57 H :    0.002240
  58 H :    0.007200
  59 C :    0.034689
  60 C :    0.011105
  61 H :    0.021217
  62 H :    0.020969
  63 H :    0.019643
  64 H :    0.016987
  65 H :    0.016440
  66 H :    0.019050
  67 H :    0.019055
  68 H :    0.019405
  69 H :    0.019349
  70 H :    0.029207
  71 H :    0.017392
  72 H :    0.020971
Sum of atomic charges:   -0.0000000

--------------------------------
MULLIKEN REDUCED ORBITAL CHARGES
--------------------------------
  0 C s       :     3.102485  s :     3.102485
      pz      :     1.015646  p :     3.028683
      px      :     1.003949
      py      :     1.009088
      dz2     :     0.005065  d :     0.043023
      dxz     :     0.006523
      dyz     :     0.005830
      dx2y2   :     0.014002
      dxy     :     0.011605

  1 C s       :     2.939729  s :     2.939729
      pz      :     0.989493  p :     2.884042
      px      :     0.929926
      py      :     0.964623
      dz2     :     0.007855  d :     0.034391
      dxz     :     0.006636
      dyz     :     0.003985
      dx2y2   :     0.009881
      dxy     :     0.006034

  2 C s       :     3.085107  s :     3.085107
      pz      :     0.737854  p :     2.775728
      px      :     1.045356
      py      :     0.992518
      dz2     :     0.022854  d :     0.070654
      dxz     :     0.011363
      dyz     :     0.017667
      dx2y2   :     0.011553
      dxy     :     0.007216

  3 H s       :     0.959986  s :     0.959986
      pz      :     0.005105  p :     0.022653
      px      :     0.003711
      py      :     0.013838

  4 H s       :     0.945937  s :     0.945937
      pz      :     0.014254  p :     0.023311
      px      :     0.004669
      py      :     0.004389

  5 C s       :     3.108967  s :     3.108967
      pz      :     0.975715  p :     3.016875
      px      :     0.986022
      py      :     1.055138
      dz2     :     0.009636  d :     0.044799
      dxz     :     0.005477
      dyz     :     0.009029
      dx2y2   :     0.010886
      dxy     :     0.009770

  6 C s       :     2.955153  s :     2.955153
      pz      :     1.002205  p :     2.913577
      px      :     0.946902
      py      :     0.964470
      dz2     :     0.008721  d :     0.035442
      dxz     :     0.006228
      dyz     :     0.004411
      dx2y2   :     0.008833
      dxy     :     0.007249

  7 C s       :     3.002569  s :     3.002569
      pz      :     0.985239  p :     2.938652
      px      :     0.981331
      py      :     0.972082
      dz2     :     0.007482  d :     0.034782
      dxz     :     0.006241
      dyz     :     0.004600
      dx2y2   :     0.008577
      dxy     :     0.007882

  8 H s       :     0.963522  s :     0.963522
      pz      :     0.005784  p :     0.022831
      px      :     0.003768
      py      :     0.013279

  9 H s       :     0.949327  s :     0.949327
      pz      :     0.014359  p :     0.023397
      px      :     0.004622
      py      :     0.004416

 10 H s       :     0.957298  s :     0.957298
      pz      :     0.013990  p :     0.022824
      px      :     0.004724
      py      :     0.004109

 11 H s       :     0.954718  s :     0.954718
      pz      :     0.007974  p :     0.022629
      px      :     0.007207
      py      :     0.007449

 12 O s       :     3.713412  s :     3.713412
      pz      :     1.407735  p :     4.633640
      px      :     1.339709
      py      :     1.886196
      dz2     :     0.005386  d :     0.012135
      dxz     :     0.001392
      dyz     :     0.001626
      dx2y2   :     0.003179
      dxy     :     0.000551

 13 H s       :     0.961463  s :     0.961463
      pz      :     0.001851  p :     0.020350
      px      :     0.014179
      py      :     0.004320

 14 C s       :     3.194322  s :     3.194322
      pz      :     0.993053  p :     2.777751
      px      :     0.871811
      py      :     0.912887
      dz2     :     0.003972  d :     0.036352
      dxz     :     0.007619
      dyz     :     0.003244
      dx2y2   :     0.011083
      dxy     :     0.010434

 15 C s       :     3.124282  s :     3.124282
      pz      :     1.007603  p :     2.896153
      px      :     0.982987
      py      :     0.905563
      dz2     :     0.005429  d :     0.026261
      dxz     :     0.004100
      dyz     :     0.004672
      dx2y2   :     0.006366
      dxy     :     0.005694

 16 H s       :     0.940093  s :     0.940093
      pz      :     0.006840  p :     0.024536
      px      :     0.008340
      py      :     0.009356

 17 H s       :     0.945974  s :     0.945974
      pz      :     0.004866  p :     0.024611
      px      :     0.004418
      py      :     0.015328

 18 C s       :     3.199832  s :     3.199832
      pz      :     1.031354  p :     2.827491
      px      :     0.881549
      py      :     0.914588
      dz2     :     0.003449  d :     0.035178
      dxz     :     0.006711
      dyz     :     0.003150
      dx2y2   :     0.012140
      dxy     :     0.009728

 19 H s       :     0.977904  s :     0.977904
      pz      :     0.004742  p :     0.024309
      px      :     0.004814
      py      :     0.014753

 20 C s       :     3.100133  s :     3.100133
      pz      :     0.958220  p :     2.969487
      px      :     0.985874
      py      :     1.025393
      dz2     :     0.004260  d :     0.044122
      dxz     :     0.007081
      dyz     :     0.006914
      dx2y2   :     0.014291
      dxy     :     0.011576

 21 H s       :     0.971704  s :     0.971704
      pz      :     0.004638  p :     0.024599
      px      :     0.004372
      py      :     0.015589

 22 C s       :     2.925938  s :     2.925938
      pz      :     1.002069  p :     2.923634
      px      :     0.975507
      py      :     0.946058
      dz2     :     0.009619  d :     0.035521
      dxz     :     0.004174
      dyz     :     0.005668
      dx2y2   :     0.009780
      dxy     :     0.006280

 23 C s       :     3.001773  s :     3.001773
      pz      :     1.011313  p :     2.964815
      px      :     0.965257
      py      :     0.988245
      dz2     :     0.009922  d :     0.036458
      dxz     :     0.007477
      dyz     :     0.003004
      dx2y2   :     0.010234
      dxy     :     0.005822

 24 H s       :     0.962564  s :     0.962564
      pz      :     0.004886  p :     0.023194
      px      :     0.013561
      py      :     0.004747

 25 H s       :     0.959721  s :     0.959721
      pz      :     0.013781  p :     0.023266
      px      :     0.004770
      py      :     0.004715

 26 C s       :     2.969032  s :     2.969032
      pz      :     0.969460  p :     2.888114
      px      :     0.975348
      py      :     0.943307
      dz2     :     0.007133  d :     0.035303
      dxz     :     0.006526
      dyz     :     0.005542
      dx2y2   :     0.008580
      dxy     :     0.007521

 27 H s       :     0.963961  s :     0.963961
      pz      :     0.013778  p :     0.022847
      px      :     0.004347
      py      :     0.004723

 28 H s       :     0.961559  s :     0.961559
      pz      :     0.004721  p :     0.022643
      px      :     0.003776
      py      :     0.014146

 29 C s       :     3.254485  s :     3.254485
      pz      :     1.047516  p :     3.101129
      px      :     0.997715
      py      :     1.055898
      dz2     :     0.011702  d :     0.050914
      dxz     :     0.010389
      dyz     :     0.009381
      dx2y2   :     0.010753
      dxy     :     0.008689

 30 H s       :     0.967983  s :     0.967983
      pz      :     0.008905  p :     0.023096
      px      :     0.007844
      py      :     0.006347

 31 H s       :     0.979397  s :     0.979397
      pz      :     0.013263  p :     0.022550
      px      :     0.004863
      py      :     0.004424

 32 C s       :     3.035586  s :     3.035586
      pz      :     0.989513  p :     2.966869
      px      :     0.946841
      py      :     1.030515
      dz2     :     0.008695  d :     0.043727
      dxz     :     0.007194
      dyz     :     0.007787
      dx2y2   :     0.011117
      dxy     :     0.008933

 33 H s       :     0.967064  s :     0.967064
      pz      :     0.012517  p :     0.021270
      px      :     0.004106
      py      :     0.004647

 34 C s       :     2.892444  s :     2.892444
      pz      :     0.989388  p :     2.946394
      px      :     0.976766
      py      :     0.980239
      dz2     :     0.005479  d :     0.034841
      dxz     :     0.005915
      dyz     :     0.008139
      dx2y2   :     0.008990
      dxy     :     0.006319

 35 H s       :     0.752179  s :     0.752179
[...]
 Total          142.019          174.426          191.047  iso=     169.164

 Orientation: 
  X           0.2537076   -0.5731969    0.7791519
  Y          -0.1175580   -0.8178082   -0.5633559
  Z           0.9601107    0.0513321   -0.2748680

 --------------
 Nucleus  39C :
 --------------

Diamagnetic contribution to the shielding tensor (ppm) : 
           264.448          4.650        -8.076
             5.866        257.897         3.992
            -6.969          4.438       264.959

Paramagnetic contribution to the shielding tensor (ppm): 
           -99.312         -1.701         9.884
             1.480       -126.537         0.692
            13.576         -3.113      -138.439

Total shielding tensor (ppm): 
           165.135          2.949         1.808
             7.346        131.360         4.684
             6.606          1.325       126.520


 Diagonalized sT*s matrix:
 
 sDSO           261.421          261.530          264.353  iso=     262.435
 sPSO          -136.410         -129.958          -97.921  iso=    -121.430
        ---------------  ---------------  ---------------
 Total          125.012          131.572          166.431  iso=     141.005

 Orientation: 
  X          -0.0406758   -0.1768685   -0.9833936
  Y          -0.4043310    0.9029372   -0.1456738
  Z           0.9137078    0.3916911   -0.1082411

 --------------
 Nucleus  43C :
 --------------

Diamagnetic contribution to the shielding tensor (ppm) : 
           258.370         -0.532        -6.905
             1.295        244.993         7.809
            -7.248          3.304       253.014

Paramagnetic contribution to the shielding tensor (ppm): 
           -94.312         -2.364        -1.017
             0.712        -87.501        -6.129
             0.210          0.290       -91.293

Total shielding tensor (ppm): 
           164.059         -2.896        -7.922
             2.007        157.491         1.680
            -7.038          3.594       161.721


 Diagonalized sT*s matrix:
 
 sDSO           243.215          249.512          263.650  iso=     252.126
 sPSO           -88.903          -91.335          -92.869  iso=     -91.035
        ---------------  ---------------  ---------------
 Total          154.312          158.177          170.781  iso=     161.090

 Orientation: 
  X          -0.5081358    0.4447998   -0.7375304
  Y           0.5060589    0.8471054    0.1622247
  Z          -0.6969235    0.2908016    0.6555395

 --------------
 Nucleus  44C :
 --------------

Diamagnetic contribution to the shielding tensor (ppm) : 
           250.182          0.832         0.804
             0.726        253.852        -1.518
            -0.667          2.240       273.577

Paramagnetic contribution to the shielding tensor (ppm): 
           -70.639         -5.255        -1.736
            -3.484        -73.739        -1.641
             0.150         -5.820       -80.275

Total shielding tensor (ppm): 
           179.544         -4.423        -0.932
            -2.758        180.113        -3.160
            -0.517         -3.580       193.302


 Diagonalized sT*s matrix:
 
 sDSO           253.450          251.863          272.298  iso=     259.204
 sPSO           -77.690          -68.779          -78.184  iso=     -74.884
        ---------------  ---------------  ---------------
 Total          175.760          183.084          194.115  iso=     184.320

 Orientation: 
  X           0.6970884    0.7169157    0.0099851
  Y           0.6981787   -0.6755692   -0.2369657
  Z           0.1631388   -0.1721575    0.9714667

 --------------
 Nucleus  49C :
 --------------

Diamagnetic contribution to the shielding tensor (ppm) : 
           244.194         -5.129        -3.179
           -11.980        254.564         7.321
            -9.745          5.899       252.904

Paramagnetic contribution to the shielding tensor (ppm): 
           -64.824          2.485        -2.253
             8.778        -71.445        -3.212
             3.522         -2.513       -76.347

Total shielding tensor (ppm): 
           179.370         -2.644        -5.431
            -3.202        183.119         4.108
            -6.223          3.386       176.556


 Diagonalized sT*s matrix:
 
 sDSO           243.900          242.494          265.268  iso=     250.554
 sPSO           -72.067          -63.490          -77.060  iso=     -70.872
        ---------------  ---------------  ---------------
 Total          171.833          179.004          188.209  iso=     179.682

 Orientation: 
  X           0.5774579   -0.6042570    0.5490135
  Y          -0.1186685   -0.7274452   -0.6758263
  Z           0.8077501    0.3251106   -0.4917753

 --------------
 Nucleus  50C :
 --------------

Diamagnetic contribution to the shielding tensor (ppm) : 
           273.726         -1.384        10.337
             8.695        261.197        -2.983
            10.953          4.944       250.656

Paramagnetic contribution to the shielding tensor (ppm): 
          -181.464        -13.425       -48.933
           -19.764       -291.133       -39.593
           -48.946        -46.189      -127.205

Total shielding tensor (ppm): 
            92.262        -14.809       -38.596
           -11.069        -29.936       -42.576
           -37.994        -41.246       123.450


 Diagonalized sT*s matrix:
 
 sDSO           264.089          273.673          247.817  iso=     261.860
 sPSO          -308.216         -197.398          -94.188  iso=    -199.934
        ---------------  ---------------  ---------------
 Total          -44.127           76.274          153.629  iso=      61.925

 Orientation: 
  X          -0.2078483    0.8424066   -0.4971420
  Y          -0.9369502   -0.3174302   -0.1461589
  Z          -0.2809331    0.4354184    0.8552704

 --------------
 Nucleus  51C :
 --------------

Diamagnetic contribution to the shielding tensor (ppm) : 
           270.460         -1.747        12.503
            -4.894        268.134        12.006
             9.977         11.440       249.309

Paramagnetic contribution to the shielding tensor (ppm): 
          -184.349        -13.181       -59.788
             4.956       -299.131       -56.489
           -44.754        -61.235      -113.236

Total shielding tensor (ppm): 
            86.110        -14.927       -47.285
             0.063        -30.998       -44.482
           -34.777        -49.795       136.073


 Diagonalized sT*s matrix:
 
 sDSO           274.243          272.696          240.964  iso=     262.634
 sPSO          -308.998         -213.212          -74.507  iso=    -198.906
        ---------------  ---------------  ---------------
 Total          -34.755           59.484          166.457  iso=      63.729

 Orientation: 
  X           0.4166211    0.8091527   -0.4143656
  Y           0.8335208   -0.5219414   -0.1811637
  Z           0.3628637    0.2699057    0.8918973

 --------------
 Nucleus  54C :
 --------------

Diamagnetic contribution to the shielding tensor (ppm) : 
           252.055          2.620         0.332
             6.306        247.343        -3.201
            -0.454          5.577       250.089

Paramagnetic contribution to the shielding tensor (ppm): 
          -101.118          1.455         9.125
            -1.063        -90.379         4.717
            17.654         -5.486       -93.653

Total shielding tensor (ppm): 
           150.937          4.075         9.456
             5.243        156.963         1.516
            17.200          0.091       156.437


 Diagonalized sT*s matrix:
 
 sDSO           250.251          246.437          252.800  iso=     249.829
 sPSO          -110.735          -90.048          -84.366  iso=     -95.050
        ---------------  ---------------  ---------------
 Total          139.516          156.388          168.434  iso=     154.779

 Orientation: 
  X           0.7690097    0.0571893    0.6366738
  Y          -0.1794042   -0.9366515    0.3008290
  Z          -0.6135456    0.3455624    0.7100341

 --------------
 Nucleus  55C :
 --------------

Diamagnetic contribution to the shielding tensor (ppm) : 
           255.380         -1.180        -2.896
            -1.649        239.871         0.089
           -17.978         -1.689       225.893

Paramagnetic contribution to the shielding tensor (ppm): 
           -59.792          3.174         0.653
             2.422        -64.222         1.304
            11.103          0.983       -47.210

Total shielding tensor (ppm): 
           195.588          1.994        -2.243
             0.774        175.650         1.394
            -6.875         -0.706       178.683


 Diagonalized sT*s matrix:
 
 sDSO           239.128          223.705          258.311  iso=     240.381
 sPSO           -63.761          -45.964          -61.498  iso=     -57.074
        ---------------  ---------------  ---------------
 Total          175.367          177.741          196.813  iso=     183.307

 Orientation: 
  X          -0.1270187   -0.2086143   -0.9697145
  Y           0.9540117   -0.2933171   -0.0618606
  Z          -0.2715289   -0.9329765    0.2362773

 --------------
 Nucleus  56C :
 --------------

Diamagnetic contribution to the shielding tensor (ppm) : 
           238.148         -1.455         7.378
             3.560        250.259        -1.482
            18.982          1.548       242.945

Paramagnetic contribution to the shielding tensor (ppm): 
           -76.331          4.903        -4.403
            -1.586        -94.287        -2.654
           -19.379         -0.429       -67.003

Total shielding tensor (ppm): 
           161.818          3.448         2.975
             1.973        155.972        -4.136
            -0.397          1.119       175.941


 Diagonalized sT*s matrix:
 
 sDSO           247.039          239.469          244.844  iso=     243.784
 sPSO           -92.295          -76.619          -68.707  iso=     -79.207
        ---------------  ---------------  ---------------
 Total          154.744          162.850          176.137  iso=     164.577

 Orientation: 
  X          -0.3723455    0.9252238    0.0729368
  Y           0.9247256    0.3765363   -0.0557050
  Z           0.0790030   -0.0467050    0.9957797

 --------------
 Nucleus  59C :
 --------------

Diamagnetic contribution to the shielding tensor (ppm) : 
           241.966          4.014         8.352
            14.598        231.137        14.151
            21.675          3.408       234.575

Paramagnetic contribution to the shielding tensor (ppm): 
           -76.543          5.722         6.487
            -9.317        -42.664        -5.759
           -11.276          7.372       -62.181

Total shielding tensor (ppm): 
           165.423          9.736        14.839
             5.281        188.473         8.391
            10.399         10.779       172.395


 Diagonalized sT*s matrix:
 
 sDSO           224.907          231.971          250.800  iso=     235.893
 sPSO           -69.089          -59.330          -52.968  iso=     -60.462
        ---------------  ---------------  ---------------
 Total          155.818          172.641          197.832  iso=     175.430

 Orientation: 
  X          -0.8010209    0.4753948    0.3638203
  Y           0.0027399   -0.6048306    0.7963495
  Z           0.5986300    0.6388895    0.4831794

 --------------
 Nucleus  60C :
 --------------

Diamagnetic contribution to the shielding tensor (ppm) : 
           240.102         -7.082         3.818
           -22.148        245.126       -13.422
            15.342          0.160       233.617

Paramagnetic contribution to the shielding tensor (ppm): 
           -64.229          2.055        -3.141
            20.765        -49.190        16.115
           -12.743         -1.583       -59.460

Total shielding tensor (ppm): 
           175.873         -5.027         0.677
            -1.383        195.936         2.693
             2.599         -1.423       174.157


 Diagonalized sT*s matrix:
 
 sDSO           226.353          243.572          248.919  iso=     239.615
 sPSO           -53.413          -66.987          -52.479  iso=     -57.626
        ---------------  ---------------  ---------------
 Total          172.941          176.585          196.441  iso=     181.989

 Orientation: 
  X          -0.5669590    0.8103547   -0.1479279
  Y          -0.1037749    0.1078848    0.9887323
  Z           0.8171831    0.5759219    0.0229282



--------------------------------
CHEMICAL SHIELDING SUMMARY (ppm)
--------------------------------


  Nucleus  Element    Isotropic     Anisotropy
  -------  -------  ------------   ------------
      0       C           61.352        151.895 
      1       C          154.548         12.177 
      2       C          132.346         50.875 
      5       C           50.755        177.666 
      6       C          167.939         31.841 
      7       C          164.866         17.272 
     14       C           71.808        133.269 
     15       C           83.760        119.476 
     18       C           80.152        133.974 
     20       C           52.226        175.616 
     22       C          169.049          7.107 
     23       C          174.128         13.297 
     26       C          158.810         23.736 
     29       C          153.728         17.735 
     32       C          143.180         27.467 
     34       C          174.724         23.699 
     36       C          169.164         32.824 
     39       C          141.005         38.139 
     43       C          161.090         14.537 
     44       C          184.320         14.693 
     49       C          179.682         12.790 
     50       C           61.925        137.555 
     51       C           63.729        154.092 
     54       C          154.779         20.482 
     55       C          183.307         20.259 
     56       C          164.577         17.340 
     59       C          175.430         33.603 
     60       C          181.989         21.678 


NMR shielding tensor and spin rotation calculation done in   1.0 sec 

Maximum memory used throughout the entire PROP-calculation: 51.6 MB

--------------------------------
SUGGESTED CITATIONS FOR THIS RUN
--------------------------------

Below you find a list of papers that are relevant to this ORCA run
We neither can nor want to force you to cite these papers, but we appreciate if you do
You receive ORCA, which is the product of decades of hard work by many enthusiastic individuals, for free
The only thing we kindly ask in return is that you cite our papers,
We deeply appreciate it, if you show your appreciation for ORCA by not just citing the generic ORCA reference.

Please note that relegating all ORCA citations to the supporting information does *not* help us.
SI sections are not indexed - citations you put there will not count into any citation statistics
But we need these citations in order to attract the funding resources that allow us to do what we are doing

Therefore, if you are a happy ORCA user, please consider citing a few of the papers listed below in the main body of your paper

In addition to the list printed below, the program has created the file inpS.bibtex that contains the list in bibtex format
You can import this file easily into all common literature databanks and citation aid programs


List of essential papers. We consider these as the minimum necessary citations

  1. Neese,F.
     Software update: the ORCA program system, version 5.0
     WIRES Comput. Molec. Sci., 2022 12(1)e1606
     doi.org/10.1002/wcms.1606

List of papers to cite with high priority. The work reported in these papers was absolutely
necessary for this run to complete.
Our perspective: the developers of density functionals and basis sets usually get cited in chemistry papers
Good! But without the algorithms to do something with them, the functionals or basis sets would not do anything.
Hence, in our opinion, the algorithm design and method developments papers are equally worthy of getting cited

  1. Neese,F.
     An improvement of the resolution of the identity approximation for the formation of the Coulomb matrix
     J. Comp. Chem., 2003 24(14)1740-1747
     doi.org/10.1002/jcc.10318
  2. Neese,F.; Wennmohs,F.; Hansen,A.; Becker,U.
     Efficient, approximate and parallel Hartree-Fock and hybrid DFT calculations. A 'chain-of-spheres' algorithm for the Hartree-Fock exchange
     Chem. Phys., 2009 356(1-3)98-109
     doi.org/10.1016/j.chemphys.2008.10.036
  3. Stoychev,G.L.; Auer,A.A.; Izsak,R.; Neese,F.
     Self-Consistent Field Calculation of Nuclear Magnetic Resonance Chemical Shielding Constants Using Gauge-Including Atomic Orbitals and Approximate Two-Electron Integrals
     J. Chem. Theory Comput., 2018 14(2)619-637
     doi.org/10.1021/acs.jctc.7b01006
  4. Garcia-Rates,M.; Neese,F.
     Effect of the Solute Cavity on the Solvation Energy and its Derivatives within the Framework of the Gaussian Charge Scheme
     J. Comput. Chem., 2020 41 922-939
     doi.org/10.1002/jcc.26139
  5. Helmich-Paris,B.; de Souza,B.; Neese,F.; Izsák,R.
     An improved chain of spheres for exchange algorithm
     J. Chem. Phys., 2021 155 104109
     doi.org/doi: 10.1063/5.0058766.
  6. Neese,F.
     The SHARK Integral Generation and Digestion System
     J. Comp. Chem., 2022  1-16
     doi.org/10.1002/jcc.26942
  7. Caldeweyher,E.; Bannwarth,C.; Grimme,S.
     Extension of the D3 dispersion coefficient model
     J. Chem. Phys., 2017 147 034112-XXXX
     doi.org/10.1063/1.4993215
  8. Caldeweyher,E.; Ehlert,S.; Hansen,A.; Neugebauer,H.; Spicher,S.; Bannwarth,C.; Grimme,S.
     A generally applicable atomic-charge dependent London dispersion correction
     J. Chem. Phys., 2019 150 154122-XXXX
     doi.org/10.1063/1.5090222
  9. Caldeweyher,E.; Mewes,J.; Ehlert,S.; Grimme,S.
     Extension and evaluation of the D4 London-dispersion model for periodic systems
     Phys. Chem. Chem. Phys., 2020 22(16)8499-8512
     doi.org/10.1039/D0CP00502A

List of suggested additional citations. These are papers that are important in the 'surrounding' of 
of this run, or papers that preceded the highly important papers. If you like your results we are grateful for a citation.

  1. Izsak,R.; Neese,F.
     An overlap fitted chain of spheres exchange method
     J. Chem. Phys., 2011 135 144105
     doi.org/10.1063/1.3646921
  2. Izsak,R.; Hansen,A.; Neese,F.
     The resolution of identity and chain of spheres approximations for the LPNO-CCSD singles Fock term
     Molec. Phys., 2012 110 2413-2417
     doi.org/10.1080/00268976.2012.687466
  3. Neese,F.
     The ORCA program system
     WIRES Comput. Molec. Sci., 2012 2(1)73-78
     doi.org/10.1002/wcms.81
  4. Izsak,R.; Neese,F.; Klopper,W.
     Robust fitting techniques in the chain of spheres approximation to the Fock exchange: The role of the complementary space
     J. Chem. Phys., 2013 139 
     doi.org/10.1063/1.4819264
  5. Neese,F.
     Software update: the ORCA program system, version 4.0
     WIRES Comput. Molec. Sci., 2018 8(1)1-6
     doi.org/10.1002/wcms.1327
  6. Neese,F.; Wennmohs,F.; Becker,U.; Riplinger,C.
     The ORCA quantum chemistry program package
     J. Chem. Phys., 2020 152 Art. No. L224108
     doi.org/10.1063/5.0004608

Timings for individual modules:

Sum of individual times          ...      175.743 sec (=   2.929 min)
Startup calculation              ...        4.611 sec (=   0.077 min)   2.6 %
SCF iterations                   ...       71.554 sec (=   1.193 min)  40.7 %
Property integrals               ...       59.984 sec (=   1.000 min)  34.1 %
SCF Response                     ...       38.274 sec (=   0.638 min)  21.8 %
Property calculations            ...        1.320 sec (=   0.022 min)   0.8 %
                             ****ORCA TERMINATED NORMALLY****
TOTAL RUN TIME: 0 days 0 hours 2 minutes 56 seconds 34 msec
