
                                 *****************
                                 * O   R   C   A *
                                 *****************

                                            #,                                       
                                            ###                                      
                                            ####                                     
                                            #####                                    
                                            ######                                   
                                           ########,                                 
                                     ,,################,,,,,                         
                               ,,#################################,,                 
                          ,,##########################################,,             
                       ,#########################################, ''#####,          
                    ,#############################################,,   '####,        
                  ,##################################################,,,,####,       
                ,###########''''           ''''###############################       
              ,#####''   ,,,,##########,,,,          '''####'''          '####       
            ,##' ,,,,###########################,,,                        '##       
           ' ,,###''''                  '''############,,,                           
         ,,##''                                '''############,,,,        ,,,,,,###''
      ,#''                                            '''#######################'''  
     '                                                          ''''####''''         
             ,#######,   #######,   ,#######,      ##                                
            ,#'     '#,  ##    ##  ,#'     '#,    #''#        ,####,   ,####,        
            ##       ##  ##   ,#'  ##            #'  '#       #'       #'  '#        
            ##       ##  #######   ##           ,######,      #####,   #    #        
            '#,     ,#'  ##    ##  '#,     ,#' ,#      #,     #,   #   #,  ,#        
             '#######'   ##     ##  '#######'  #'      '#     '####' # '####'        



                #########################################################
                #                        -***-                          #
                #          Department of theory and spectroscopy        #
                #                                                       #
                #                      Frank Neese                      #
                #                                                       #
                #     Directorship, Architecture, Infrastructure        #
                #                    SHARK, DRIVERS                     #
                #        Core code/Algorithms in most modules           #
                #                                                       #
                #        Max Planck Institute fuer Kohlenforschung      #
                #                Kaiser Wilhelm Platz 1                 #
                #                 D-45470 Muelheim/Ruhr                 #
                #                      Germany                          #
                #                                                       #
                #                  All rights reserved                  #
                #                        -***-                          #
                #########################################################


                         Program Version 6.0.0  -   RELEASE  -


 With contributions from (in alphabetic order):
   Daniel Aravena         : Magnetic Suceptibility
   Michael Atanasov       : Ab Initio Ligand Field Theory (pilot matlab implementation)
   Alexander A. Auer      : GIAO ZORA, VPT2 properties, NMR spectrum
   Ute Becker             : All parallelization in ORCA, NUMFREQ, NUMCALC
   Giovanni Bistoni       : ED, misc. LED, open-shell LED, HFLD
   Martin Brehm           : Molecular dynamics
   Dmytro Bykov           : pre 5.0 version of the SCF Hessian
   Marcos Casanova-Páez   : Triplet and SCS-CIS(D). UHF-(DLPNO)-IP/EA/STEOM-CCSD. UHF-CVS-IP/STEOM-CCSD
   Vijay G. Chilkuri      : MRCI spin determinant printing, contributions to CSF-ICE
   Pauline Colinet        : FMM embedding
   Dipayan Datta          : RHF DLPNO-CCSD density
   Achintya Kumar Dutta   : EOM-CC, STEOM-CC
   Nicolas Foglia         : Exact transition moments, OPA infrastructure, MCD improvements
   Dmitry Ganyushin       : Spin-Orbit,Spin-Spin,Magnetic field MRCI
   Miquel Garcia          : C-PCM and meta-GGA Hessian, CCSD/C-PCM, Gaussian charge scheme
   Tiago L. C. Gouveia    : GS-ROHF, GS-ROCIS
   Yang Guo               : DLPNO-NEVPT2, F12-NEVPT2, CIM, IAO-localization
   Andreas Hansen         : Spin unrestricted coupled pair/coupled cluster methods
   Ingolf Harden          : AUTO-CI MPn and infrastructure 
   Benjamin Helmich-Paris : MC-RPA, TRAH-(SCF,CASSCF), AVAS, COSX integrals, SCF dyn. polar.
   Lee Huntington         : MR-EOM, pCC
   Robert Izsak           : Overlap fitted RIJCOSX, COSX-SCS-MP3, EOM
   Riya Kayal             : Wick's Theorem for AUTO-CI, AUTO-CI UHF-CCSDT
   Emily Kempfer          : AUTO-CI, RHF CISDT and CCSDT
   Christian Kollmar      : KDIIS, OOCD, Brueckner-CCSD(T), CCSD density, CASPT2, CASPT2-K, improved NEVPT2
   Axel Koslowski         : Symmetry handling
   Simone Kossmann        : Meta GGA functionals, TD-DFT gradient, OOMP2, (MP2 Hessian; deprecated post 5.0)
   Lucas Lang             : DCDCAS
   Marvin Lechner         : AUTO-CI (C++ implementation), FIC-MRCC
   Spencer Leger          : CASSCF response
   Dagmar Lenk            : GEPOL surface, SMD, ORCA-2-JSON
   Dimitrios Liakos       : Extrapolation schemes; Compound Job, initial MDCI parallelization
   Dimitrios Manganas     : Further ROCIS development; embedding schemes. LFT, Crystal Embedding
   Dimitrios Pantazis     : SARC Basis sets
   Anastasios Papadopoulos: AUTO-CI, single reference methods and gradients
   Taras Petrenko         : pre 6.0 DFT Hessian and TD-DFT gradient, (ASA, deprecated), ECA, 1-Electron XAS/XES, NRVS
   Peter Pinski           : DLPNO-MP2, DLPNO-MP2 Gradient
   Christoph Reimann      : Effective Core Potentials
   Marius Retegan         : Local ZFS, SOC
   Christoph Riplinger    : Optimizer, TS searches, QM/MM, DLPNO-CCSD(T), (RO)-DLPNO pert. Triples
   Michael Roemelt        : Original ROCIS implementation
   Masaaki Saitow         : Open-shell DLPNO-CCSD energy and density
   Barbara Sandhoefer     : DKH picture change effects
   Kantharuban Sivalingam : CASSCF convergence/infrastructure, NEVPT2 and variants, FIC-MRCI
   Bernardo de Souza      : ESD, SOC TD-DFT
   Georgi Stoychev        : AutoAux, RI-MP2 NMR, DLPNO-MP2 response, X2C
   Van Anh Tran           : RI-MP2 g-tensors
   Willem Van den Heuvel  : Paramagnetic NMR
   Zikuan Wang            : NOTCH, Electric field optimization 
   Frank Wennmohs         : Technical directorship and infrastructure
   Hang Xu                : AUTO-CI-Response properties 


 We gratefully acknowledge several colleagues who have allowed us to
 interface, adapt or use parts of their codes:
   Stefan Grimme, W. Hujo, H. Kruse, P. Pracht,  : VdW corrections, initial TS optimization,
                  C. Bannwarth, S. Ehlert,         DFT functionals, gCP, sTDA/sTD-DF
                  L. Wittmann, M. Mueller
   Ed Valeev, F. Pavosevic, A. Kumar             : LibInt (2-el integral package), F12 methods
   Garnet Chan, S. Sharma, J. Yang, R. Olivares  : DMRG
   Ulf Ekstrom                                   : XCFun DFT Library
   Mihaly Kallay                                 : mrcc  (arbitrary order and MRCC methods)
   Frank Weinhold                                : gennbo (NPA and NBO analysis)
   Simon Mueller                                 : openCOSMO-RS
   Christopher J. Cramer and Donald G. Truhlar   : smd solvation model
   Lars Goerigk                                  : TD-DFT with DH, B97 family of functionals
   V. Asgeirsson, H. Jonsson                     : NEB implementation
   FAccTs GmbH                                   : IRC, NEB, NEB-TS, DLPNO-Multilevel, CI-OPT
                                                   MM, QMMM, 2- and 3-layer-ONIOM, Crystal-QMMM,
                                                   LR-CPCM, SF, NACMEs, symmetry and pop. for TD-DFT,
                                                   nearIR, NL-DFT gradient (VV10), updates on ESD,
                                                   ML-optimized integration grids, MBIS, APM,
                                                   GOAT, DOCKER, SOLVATOR, interface openCOSMO-RS
   S Lehtola, MJT Oliveira, MAL Marques          : LibXC Library
   Liviu Ungur et al                             : ANISO software


 Your calculation uses the libint2 library for the computation of 2-el integrals
 For citations please refer to: http://libint.valeyev.net

 Your ORCA version has been built with support for libXC version: 6.2.2
 For citations please refer to: https://libxc.gitlab.io

 This ORCA versions uses:
   CBLAS   interface :  Fast vector & matrix operations
   LAPACKE interface :  Fast linear algebra routines
   SCALAPACK package :  Parallel linear algebra routines
   Shared memory     :  Shared parallel matrices
   BLAS/LAPACK       :  OpenBLAS 0.3.27  USE64BITINT DYNAMIC_ARCH NO_AFFINITY Zen SINGLE_THREADED
        Core in use  :  Zen
   Copyright (c) 2011-2014, The OpenBLAS Project


NOTE: MaxCore=8000 MB was set to SCF,MP2,MDCI,CIPSI,MRCI and CIS
      => If you want to overwrite this, your respective input block should be placed after the MaxCore statement
Your calculation utilizes the atom-pairwise dispersion correction
based on EEQ partial charges (D4)


================================================================================

----- Orbital basis set information -----
Your calculation utilizes the basis: pcJ-0
   F. Jensen, Theor. Chem. Acc. 126, 371 (2010).

----- AuxJ basis set information -----
Your calculation utilizes the auxiliary basis: def2/J
   F. Weigend, Phys. Chem. Chem. Phys. 8, 1057 (2006).

================================================================================
                                        WARNINGS
                       Please study these warnings very carefully!
================================================================================

WARNING: Old DensityContainer found on disk!
         Will remove this file - 
         If you want to keep old densities, please start your calculation with a different basename. 


================================================================================
                                       INPUT FILE
================================================================================
NAME = inpJ
|  1> ! pbe0
|  2> ! D4
|  3> ! pcJ-0
|  4> ! def2/J RIJCOSX
|  5> ! DEFGRID2
|  6> ! scfconv7
|  7> ! smallprint printgap noloewdin
|  8> ! NOSOSCF
|  9> %MaxCore 8000
| 10> %output
| 11>        print[P_BondOrder_M] 1
| 12>        print[P_Mayer] 1
| 13>        print[P_basis] 2
| 14> end
| 15> %pal
| 16>     nprocs 4
| 17> end
| 18> ! CPCM(chloroform)
| 19> *xyz 0 1
| 20> C   -5.0170652400   0.1927678800  -0.4441523300
| 21> C   -6.4668346900  -0.2094876900  -0.5779591600
| 22> C   -7.3599283800   0.7182563100   0.2557875400
| 23> H   -6.6111163100  -1.2498735500  -0.2651228300
| 24> H   -6.7820223300  -0.1245515400  -1.6285360800
| 25> C   -4.7573864500   1.6148217600  -0.7607172500
| 26> C   -5.6748133800   2.5895005200  -0.0558098100
| 27> C   -7.1485600000   2.1732294800  -0.1661316000
| 28> H   -5.5294459300   3.6002831700  -0.4516793700
| 29> H   -5.3957700900   2.6180950200   1.0084848900
| 30> H   -7.4845039000   2.2832956600  -1.2062528200
| 31> H   -7.7719033000   2.8282965400   0.4534417300
| 32> O   -7.1152833900   0.5313568000   1.6597319700
| 33> H   -8.4116582300   0.4436275300   0.1077414400
| 34> C   -4.0829463300  -0.6833917500  -0.0036722000
| 35> C   -3.8196525000   2.0115256700  -1.6280164300
| 36> H   -3.1818063400   1.2947659500  -2.1385038300
| 37> H   -3.6765822500   3.0656838800  -1.8538566600
| 38> C   -2.6944755500  -0.3847011100   0.2623328000
| 39> H   -4.4278172300  -1.6975830400   0.1945358700
| 40> C   -1.7322321100  -1.2706450200   0.5963147900
| 41> H   -2.4148446500   0.6640301000   0.1910317600
| 42> C   -1.9117085500  -2.7625739200   0.7138497800
| 43> C   -0.9147741800  -3.5225560600  -0.1827197000
| 44> H   -2.9319967400  -3.0791383400   0.4808881500
| 45> H   -1.7161310600  -3.0459853700   1.7602588900
| 46> C    0.5355516100  -3.0627234700   0.0209237900
| 47> H   -1.2035477600  -3.3866731800  -1.2326622700
| 48> H   -0.9911732100  -4.5968968300   0.0250420300
| 49> C    0.6837334500  -1.5435784600  -0.1426941500
| 50> H    1.1796475000  -3.6052198300  -0.6784792900
| 51> H    0.8626494300  -3.3356247100   1.0355771700
| 52> C   -0.3123818600  -0.8691662200   0.8553816800
| 53> H   -0.0433972700  -1.2902997500   1.8413263700
| 54> C    0.1026405700   0.5984391500   0.8628354700
| 55> H   -6.1583785700   0.4559297900   1.7832658500
| 56> C    1.6434512500   0.5418454800   0.7201484700
| 57> H   -0.2215440300   1.1128951100   1.7734220000
| 58> H   -0.3395664700   1.1330609400   0.0149160600
| 59> C    2.0192497500  -0.9295889300   0.3647994800
| 60> H    2.1469869300   0.8578085100   1.6389877100
| 61> H    1.9800228400   1.2208636500  -0.0725740000
| 62> H    2.2749150200  -1.4605259400   1.2959554600
| 63> C    3.2677147300  -1.0064996400  -0.5478827100
| 64> C    0.3930192800  -1.1086990900  -1.5852119600
| 65> H    0.6026271700  -0.0447051200  -1.7347649000
| 66> H   -0.6558843300  -1.2741105500  -1.8503009200
| 67> H    1.0115281800  -1.6715488900  -2.2927125200
| 68> H    3.0272619300  -0.4415653800  -1.4641577200
| 69> C    3.6413863000  -2.4320422000  -0.9499632000
| 70> C    4.4057074800  -0.2752082300   0.1246674900
| 71> C    5.5551629900  -0.7997468700   0.5524840900
| 72> H    4.2450318300   0.7924872100   0.2856150500
| 73> H    5.7586831500  -1.8604427600   0.3999459100
| 74> C    6.6384735000  -0.0160092200   1.2423550700
| 75> C    7.9490689600  -0.1207834500   0.4478419700
| 76> C    6.7862436700  -0.4437943700   2.7288655000
| 77> H    6.3283431300   1.0396956700   1.2534127100
| 78> H    5.7700810800  -0.4149889900   3.1506764100
| 79> C    7.6418827500   0.5503451600   3.5191162400
| 80> C    7.3254257500  -1.8656969800   2.9034045800
| 81> H    8.2564995100  -1.1657343700   0.3287310300
| 82> H    8.7662703300   0.4201026500   0.9363916300
| 83> H    7.8164334800   0.3013218100  -0.5537077500
| 84> H    7.2692489700   1.5748330500   3.4058226200
| 85> H    8.6867051800   0.5302598900   3.1886917400
| 86> H    7.6312191800   0.3014192700   4.5862540500
| 87> H    6.7325688800  -2.6025756300   2.3513947200
| 88> H    7.3075552400  -2.1495473700   3.9615405400
| 89> H    8.3640243800  -1.9388379800   2.5607624000
| 90> H    2.8819338000  -2.8704936900  -1.6000519500
| 91> H    3.7487607900  -3.0783807800  -0.0706147500
| 92> H    4.5907496400  -2.4421085700  -1.4961298600
| 93> *
| 94> %eprnmr
| 95>  Nuclei = all C { ssfc }
| 96>  SpinSpinRThresh 8.0
| 97> end
| 98> 
| 99>                          ****END OF INPUT****
================================================================================

                       ****************************
                       * Single Point Calculation *
                       ****************************

---------------------------------
CARTESIAN COORDINATES (ANGSTROEM)
---------------------------------
  C     -5.017065    0.192768   -0.444152
  C     -6.466835   -0.209488   -0.577959
  C     -7.359928    0.718256    0.255788
  H     -6.611116   -1.249874   -0.265123
  H     -6.782022   -0.124552   -1.628536
  C     -4.757386    1.614822   -0.760717
  C     -5.674813    2.589501   -0.055810
  C     -7.148560    2.173229   -0.166132
  H     -5.529446    3.600283   -0.451679
  H     -5.395770    2.618095    1.008485
  H     -7.484504    2.283296   -1.206253
  H     -7.771903    2.828297    0.453442
  O     -7.115283    0.531357    1.659732
  H     -8.411658    0.443628    0.107741
  C     -4.082946   -0.683392   -0.003672
  C     -3.819653    2.011526   -1.628016
  H     -3.181806    1.294766   -2.138504
  H     -3.676582    3.065684   -1.853857
  C     -2.694476   -0.384701    0.262333
  H     -4.427817   -1.697583    0.194536
  C     -1.732232   -1.270645    0.596315
  H     -2.414845    0.664030    0.191032
  C     -1.911709   -2.762574    0.713850
  C     -0.914774   -3.522556   -0.182720
  H     -2.931997   -3.079138    0.480888
  H     -1.716131   -3.045985    1.760259
  C      0.535552   -3.062723    0.020924
  H     -1.203548   -3.386673   -1.232662
  H     -0.991173   -4.596897    0.025042
  C      0.683733   -1.543578   -0.142694
  H      1.179647   -3.605220   -0.678479
  H      0.862649   -3.335625    1.035577
  C     -0.312382   -0.869166    0.855382
  H     -0.043397   -1.290300    1.841326
  C      0.102641    0.598439    0.862835
  H     -6.158379    0.455930    1.783266
  C      1.643451    0.541845    0.720148
  H     -0.221544    1.112895    1.773422
  H     -0.339566    1.133061    0.014916
  C      2.019250   -0.929589    0.364799
  H      2.146987    0.857809    1.638988
  H      1.980023    1.220864   -0.072574
  H      2.274915   -1.460526    1.295955
  C      3.267715   -1.006500   -0.547883
  C      0.393019   -1.108699   -1.585212
  H      0.602627   -0.044705   -1.734765
  H     -0.655884   -1.274111   -1.850301
  H      1.011528   -1.671549   -2.292713
  H      3.027262   -0.441565   -1.464158
  C      3.641386   -2.432042   -0.949963
  C      4.405707   -0.275208    0.124667
  C      5.555163   -0.799747    0.552484
  H      4.245032    0.792487    0.285615
  H      5.758683   -1.860443    0.399946
  C      6.638473   -0.016009    1.242355
  C      7.949069   -0.120783    0.447842
  C      6.786244   -0.443794    2.728865
  H      6.328343    1.039696    1.253413
  H      5.770081   -0.414989    3.150676
  C      7.641883    0.550345    3.519116
  C      7.325426   -1.865697    2.903405
  H      8.256500   -1.165734    0.328731
  H      8.766270    0.420103    0.936392
  H      7.816433    0.301322   -0.553708
  H      7.269249    1.574833    3.405823
  H      8.686705    0.530260    3.188692
  H      7.631219    0.301419    4.586254
  H      6.732569   -2.602576    2.351395
  H      7.307555   -2.149547    3.961541
  H      8.364024   -1.938838    2.560762
  H      2.881934   -2.870494   -1.600052
  H      3.748761   -3.078381   -0.070615
  H      4.590750   -2.442109   -1.496130

----------------------------
CARTESIAN COORDINATES (A.U.)
----------------------------
  NO LB      ZA    FRAG     MASS         X           Y           Z
   0 C     6.0000    0    12.011   -9.480879    0.364279   -0.839326
   1 C     6.0000    0    12.011  -12.220547   -0.395874   -1.092185
   2 C     6.0000    0    12.011  -13.908249    1.357308    0.483368
   3 H     1.0000    0     1.008  -12.493199   -2.361919   -0.501010
   4 H     1.0000    0     1.008  -12.816165   -0.235368   -3.077487
   5 C     6.0000    0    12.011   -8.990158    3.051571   -1.437547
   6 C     6.0000    0    12.011  -10.723843    4.893447   -0.105465
   7 C     6.0000    0    12.011  -13.508821    4.106809   -0.313943
   8 H     1.0000    0     1.008  -10.449138    6.803549   -0.853550
   9 H     1.0000    0     1.008  -10.196528    4.947483    1.905760
  10 H     1.0000    0     1.008  -14.143663    4.314803   -2.279487
  11 H     1.0000    0     1.008  -14.686769    5.344706    0.856881
  12 O     8.0000    0    15.999  -13.445937    1.004119    3.136439
  13 H     1.0000    0     1.008  -15.895730    0.838335    0.203602
  14 C     6.0000    0    12.011   -7.715650   -1.291423   -0.006939
  15 C     6.0000    0    12.011   -7.218097    3.801233   -3.076505
  16 H     1.0000    0     1.008   -6.012743    2.446753   -4.041187
  17 H     1.0000    0     1.008   -6.947734    5.793303   -3.503281
  18 C     6.0000    0    12.011   -5.091821   -0.726980    0.495737
  19 H     1.0000    0     1.008   -8.367362   -3.207967    0.367620
  20 C     6.0000    0    12.011   -3.273444   -2.401171    1.126872
  21 H     1.0000    0     1.008   -4.563395    1.254835    0.360998
  22 C     6.0000    0    12.011   -3.612606   -5.220508    1.348981
  23 C     6.0000    0    12.011   -1.728673   -6.656666   -0.345290
  24 H     1.0000    0     1.008   -5.540671   -5.818728    0.908747
  25 H     1.0000    0     1.008   -3.243018   -5.756078    3.326407
  26 C     6.0000    0    12.011    1.012046   -5.787709    0.039540
  27 H     1.0000    0     1.008   -2.274376   -6.399885   -2.329394
  28 H     1.0000    0     1.008   -1.873046   -8.686876    0.047323
  29 C     6.0000    0    12.011    1.292069   -2.916941   -0.269653
  30 H     1.0000    0     1.008    2.229211   -6.812878   -1.282140
  31 H     1.0000    0     1.008    1.630171   -6.303417    1.956957
  32 C     6.0000    0    12.011   -0.590316   -1.642486    1.616437
  33 H     1.0000    0     1.008   -0.082009   -2.438313    3.479603
  34 C     6.0000    0    12.011    0.193963    1.130886    1.630523
  35 H     1.0000    0     1.008  -11.637649    0.861582    3.369884
  36 C     6.0000    0    12.011    3.105673    1.023940    1.360883
  37 H     1.0000    0     1.008   -0.418658    2.103067    3.351282
  38 H     1.0000    0     1.008   -0.641688    2.141175    0.028187
  39 C     6.0000    0    12.011    3.815829   -1.756668    0.689371
  40 H     1.0000    0     1.008    4.057217    1.621023    3.097238
  41 H     1.0000    0     1.008    3.741701    2.307098   -0.137145
  42 H     1.0000    0     1.008    4.298966   -2.759994    2.449001
  43 C     6.0000    0    12.011    6.175086   -1.902009   -1.035348
  44 C     6.0000    0    12.011    0.742699   -2.095138   -2.995616
  45 H     1.0000    0     1.008    1.138800   -0.084480   -3.278231
  46 H     1.0000    0     1.008   -1.239442   -2.407720   -3.496562
  47 H     1.0000    0     1.008    1.911511   -3.158770   -4.332599
  48 H     1.0000    0     1.008    5.720696   -0.834438   -2.766857
  49 C     6.0000    0    12.011    6.881223   -4.595894   -1.795170
  50 C     6.0000    0    12.011    8.325581   -0.520068    0.235587
  51 C     6.0000    0    12.011   10.497737   -1.511303    1.044044
  52 H     1.0000    0     1.008    8.021948    1.497584    0.539734
  53 H     1.0000    0     1.008   10.882334   -3.515727    0.755788
  54 C     6.0000    0    12.011   12.544897   -0.030253    2.347711
  55 C     6.0000    0    12.011   15.021563   -0.228248    0.846299
  56 C     6.0000    0    12.011   12.824142   -0.838650    5.156808
  57 H     1.0000    0     1.008   11.958835    1.964740    2.368607
  58 H     1.0000    0     1.008   10.903873   -0.784216    5.953916
  59 C     6.0000    0    12.011   14.441066    1.040002    6.650166
  60 C     6.0000    0    12.011   13.843048   -3.525656    5.486640
  61 H     1.0000    0     1.008   15.602523   -2.202919    0.621212
  62 H     1.0000    0     1.008   16.565850    0.793879    1.769524
  63 H     1.0000    0     1.008   14.770919    0.569416   -1.046356
  64 H     1.0000    0     1.008   13.736890    2.976003    6.436072
  65 H     1.0000    0     1.008   16.415494    1.002046    6.025754
  66 H     1.0000    0     1.008   14.420914    0.569600    8.666764
  67 H     1.0000    0     1.008   12.722711   -4.918155    4.443492
  68 H     1.0000    0     1.008   13.809278   -4.062056    7.486227
  69 H     1.0000    0     1.008   15.805715   -3.663873    4.839140
  70 H     1.0000    0     1.008    5.446066   -5.424447   -3.023660
  71 H     1.0000    0     1.008    7.084131   -5.817297   -0.133443
  72 H     1.0000    0     1.008    8.675260   -4.614916   -2.827276

--------------------------------
INTERNAL COORDINATES (ANGSTROEM)
--------------------------------
 C      0   0   0     0.000000000000     0.00000000     0.00000000
 C      1   0   0     1.510478490249     0.00000000     0.00000000
 C      2   1   0     1.534098702305   110.46093952     0.00000000
 H      2   1   3     1.095940916713   110.72501049   237.87171900
 H      2   1   3     1.100122385384   109.81734000   118.75559722
 C      1   2   3     1.479825550588   113.91554328   306.08370093
 C      6   1   2     1.512800501075   114.39582556    49.86363435
 C      3   2   1     1.529587943919   110.17506491    56.75807962
 H      7   6   1     1.095228729351   110.22436925   188.71716802
 H      7   6   1     1.100638910621   108.27411103    72.02211095
 H      8   3   2     1.098555879426   108.31325532    64.45100822
 H      8   3   2     1.096148180676   109.50946689   181.45592708
 O      3   2   1     1.437303920713   110.67911782   292.73184219
 H      3   2   1     1.097029758899   109.47451267   177.19959250
 C      1   2   3     1.354347289356   121.23346714   122.86512747
 C      6   1   2     1.337507690004   123.14537694   231.84870954
 H     16   6   1     1.086825471545   121.36190234   358.99083635
 H     16   6   1     1.087530430669   120.95669012   178.37262322
 C     15   1   2     1.444931093638   126.07989185   185.12442793
 H     15   1   2     1.089406420668   116.30117706     3.12427456
 C     19  15   1     1.349945561544   126.50059180   185.78790392
 H     19  15   1     1.087710636782   115.73930941     6.38060246
 C     21  19  15     1.507275060845   125.73349044     2.13305221
 C     23  21  19     1.541196880244   111.45095748   124.43304116
 H     23  21  19     1.093376487636   112.40063524     0.82757354
 H     23  21  19     1.101610017237   107.91355992   242.99107717
 C     24  23  21     1.535044487624   112.72246789    51.02954825
 H     24  23  21     1.097375841670   108.98442279   288.88105071
 H     24  23  21     1.096909220638   109.13095289   172.94173704
 C     27  24  23     1.535099426553   111.93194988   306.40556990
 H     27  24  23     1.094680996657   108.82638063   182.79128695
 H     27  24  23     1.100449704524   109.20009435    66.39158718
 C     21  19  15     1.498090655724   122.85255964   180.00875218
 H     33  21  19     1.105347498069   106.42651275   127.52201719
 C     33  21  19     1.525176940044   121.10615843     4.95031994
 H     13   3   2     0.967789588642   107.64473419    42.20536189
 C     35  33  21     1.548437914498   103.60071928   196.98839116
 H     35  33  21     1.094955897867   112.06174236    75.03365057
 H     35  33  21     1.095597941958   110.85102471   315.37696718
 C     30  27  24     1.555035920809   116.03077659   166.09217244
 H     37  35  33     1.094370305849   111.71111814   249.23589898
 H     37  35  33     1.096701885121   110.44824040   130.67708581
 H     40  30  27     1.101957484643   106.54628449   321.00640829
 C     40  30  27     1.548408487300   118.71751628    81.28775058
 C     30  27  24     1.534435540275   111.24637828   294.18267199
 H     45  30  27     1.094707594570   111.56865809   186.21746166
 H     45  30  27     1.094455065722   111.49637777    66.26514579
 H     45  30  27     1.095404125946   110.76819591   306.11395091
 H     44  40  30     1.102963354378   106.76503076    61.96276488
 C     44  40  30     1.527570212146   113.49907075   302.81643075
 C     44  40  30     1.510674815078   108.71852021   176.64523768
 C     51  44  40     1.333947449324   126.98061841   116.04673473
 H     51  44  40     1.091647532022   115.35488155   297.22753148
 H     52  51  44     1.090763092036   119.88841894     1.92579403
 C     52  51  44     1.504569152332   124.23950883   181.32461505
 C     55  52  51     1.536193075468   109.97469438   238.67880309
 C     55  52  51     1.553882047068   111.32779674   112.31285542
 H     55  52  51     1.100370815938   107.54401499   356.19839268
 H     57  55  52     1.100609196322   105.76125223   309.82892387
 C     57  55  52     1.531315732435   111.59816851   193.19788004
 C     57  55  52     1.530682278647   113.47303809    67.79931929
 H     56  55  52     1.095729612774   111.13907241   302.25158570
 H     56  55  52     1.095014439443   111.85476692   181.36228324
 H     56  55  52     1.094927788809   110.08710604    61.35456873
 H     60  57  55     1.096023181820   111.31641881    52.91045863
 H     60  57  55     1.096009889783   111.41902596   292.20584318
 H     60  57  55     1.095837997137   110.46505800   172.93970909
 H     61  57  55     1.095072736703   112.14185315   305.93371453
 H     61  57  55     1.095692524788   110.18321594   186.00934417
 H     61  57  55     1.096102360017   111.10701521    67.02511153
 H     50  44  40     1.091614946635   111.18591516    67.00255167
 H     50  44  40     1.096602269566   111.27949925   306.57002428
 H     50  44  40     1.095303658186   110.60066188   186.48318768

---------------------------
INTERNAL COORDINATES (A.U.)
---------------------------
 C      0   0   0     0.000000000000     0.00000000     0.00000000
 C      1   0   0     2.854390677749     0.00000000     0.00000000
 C      2   1   0     2.899026409761   110.46093952     0.00000000
 H      2   1   3     2.071028191546   110.72501049   237.87171900
 H      2   1   3     2.078930022171   109.81734000   118.75559722
 C      1   2   3     2.796465016591   113.91554328   306.08370093
 C      6   1   2     2.858778642290   114.39582556    49.86363435
 C      3   2   1     2.890502311754   110.17506491    56.75807962
 H      7   6   1     2.069682352475   110.22436925   188.71716802
 H      7   6   1     2.079906113411   108.27411103    72.02211095
 H      8   3   2     2.075969754924   108.31325532    64.45100822
 H      8   3   2     2.071419863674   109.50946689   181.45592708
 O      3   2   1     2.716110781360   110.67911782   292.73184219
 H      3   2   1     2.073085805081   109.47451267   177.19959250
 C      1   2   3     2.559345467102   121.23346714   122.86512747
 C      6   1   2     2.527523236122   123.14537694   231.84870954
 H     16   6   1     2.053802496591   121.36190234   358.99083635
 H     16   6   1     2.055134676271   120.95669012   178.37262322
 C     15   1   2     2.730524049363   126.07989185   185.12442793
 H     15   1   2     2.058679783597   116.30117706     3.12427456
 C     19  15   1     2.551027407021   126.50059180   185.78790392
 H     19  15   1     2.055475216470   115.73930941     6.38060246
 C     21  19  15     2.848337073486   125.73349044     2.13305221
 C     23  21  19     2.912440022115   111.45095748   124.43304116
 H     23  21  19     2.066182122901   112.40063524     0.82757354
 H     23  21  19     2.081741238962   107.91355992   242.99107717
 C     24  23  21     2.900813684995   112.72246789    51.02954825
 H     24  23  21     2.073739806738   108.98442279   288.88105071
 H     24  23  21     2.072858020780   109.13095289   172.94173704
 C     27  24  23     2.900917504525   111.93194988   306.40556990
 H     27  24  23     2.068647287689   108.82638063   182.79128695
 H     27  24  23     2.079548565706   109.20009435    66.39158718
 C     21  19  15     2.830981063106   122.85255964   180.00875218
 H     33  21  19     2.088804054165   106.42651275   127.52201719
 C     33  21  19     2.882166722455   121.10615843     4.95031994
 H     13   3   2     1.828857277794   107.64473419    42.20536189
 C     35  33  21     2.926123593782   103.60071928   196.98839116
 H     35  33  21     2.069166775691   112.06174236    75.03365057
 H     35  33  21     2.070380063189   110.85102471   315.37696718
 C     30  27  24     2.938592018739   116.03077659   166.09217244
 H     37  35  33     2.068060167150   111.71111814   249.23589898
 H     37  35  33     2.072466213434   110.44824040   130.67708581
 H     40  30  27     2.082397857201   106.54628449   321.00640829
 C     40  30  27     2.926067984436   118.71751628    81.28775058
 C     30  27  24     2.899662941274   111.24637828   294.18267199
 H     45  30  27     2.068697550461   111.56865809   186.21746166
 H     45  30  27     2.068220340097   111.49637777    66.26514579
 H     45  30  27     2.070013804005   110.76819591   306.11395091
 H     44  40  30     2.084298675525   106.76503076    61.96276488
 C     44  40  30     2.886689351292   113.49907075   302.81643075
 C     44  40  30     2.854761677910   108.71852021   176.64523768
 C     51  44  40     2.520795356265   126.98061841   116.04673473
 H     51  44  40     2.062914870293   115.35488155   297.22753148
 H     52  51  44     2.061243520936   119.88841894     1.92579403
 C     52  51  44     2.843223647454   124.23950883   181.32461505
 C     55  52  51     2.902984201461   109.97469438   238.67880309
 C     55  52  51     2.936411513376   111.32779674   112.31285542
 H     55  52  51     2.079399487883   107.54401499   356.19839268
 H     57  55  52     2.079849961523   105.76125223   309.82892387
 C     57  55  52     2.893767358867   111.59816851   193.19788004
 C     57  55  52     2.892570304690   113.47303809    67.79931929
 H     56  55  52     2.070628884970   111.13907241   302.25158570
 H     56  55  52     2.069277403237   111.85476692   181.36228324
 H     56  55  52     2.069113657269   110.08710604    61.35456873
 H     60  57  55     2.071183650068   111.31641881    52.91045863
 H     60  57  55     2.071158531759   111.41902596   292.20584318
 H     60  57  55     2.070833701734   110.46505800   172.93970909
 H     61  57  55     2.069387569091   112.14185315   305.93371453
 H     61  57  55     2.070558798834   110.18321594   186.00934417
 H     61  57  55     2.071333275176   111.10701521    67.02511153
 H     50  44  40     2.062853292834   111.18591516    67.00255167
 H     50  44  40     2.072277967316   111.27949925   306.57002428
 H     50  44  40     2.069823947454   110.60066188   186.48318768

---------------------
BASIS SET INFORMATION
---------------------
There are 3 groups of distinct atoms

 Group   1 Type C   : 7s4p contracted to 4s3p pattern {4111/211}
 Group   2 Type H   : 5s contracted to 3s pattern {311}
 Group   3 Type O   : 7s4p contracted to 4s3p pattern {4111/211}

Atom   0C    basis set group =>   1
Atom   1C    basis set group =>   1
Atom   2C    basis set group =>   1
Atom   3H    basis set group =>   2
Atom   4H    basis set group =>   2
Atom   5C    basis set group =>   1
Atom   6C    basis set group =>   1
Atom   7C    basis set group =>   1
Atom   8H    basis set group =>   2
Atom   9H    basis set group =>   2
Atom  10H    basis set group =>   2
Atom  11H    basis set group =>   2
Atom  12O    basis set group =>   3
Atom  13H    basis set group =>   2
Atom  14C    basis set group =>   1
Atom  15C    basis set group =>   1
Atom  16H    basis set group =>   2
Atom  17H    basis set group =>   2
Atom  18C    basis set group =>   1
Atom  19H    basis set group =>   2
Atom  20C    basis set group =>   1
Atom  21H    basis set group =>   2
Atom  22C    basis set group =>   1
Atom  23C    basis set group =>   1
Atom  24H    basis set group =>   2
Atom  25H    basis set group =>   2
Atom  26C    basis set group =>   1
Atom  27H    basis set group =>   2
Atom  28H    basis set group =>   2
Atom  29C    basis set group =>   1
Atom  30H    basis set group =>   2
Atom  31H    basis set group =>   2
Atom  32C    basis set group =>   1
Atom  33H    basis set group =>   2
Atom  34C    basis set group =>   1
Atom  35H    basis set group =>   2
Atom  36C    basis set group =>   1
Atom  37H    basis set group =>   2
Atom  38H    basis set group =>   2
Atom  39C    basis set group =>   1
Atom  40H    basis set group =>   2
Atom  41H    basis set group =>   2
Atom  42H    basis set group =>   2
Atom  43C    basis set group =>   1
Atom  44C    basis set group =>   1
Atom  45H    basis set group =>   2
Atom  46H    basis set group =>   2
Atom  47H    basis set group =>   2
Atom  48H    basis set group =>   2
Atom  49C    basis set group =>   1
Atom  50C    basis set group =>   1
Atom  51C    basis set group =>   1
Atom  52H    basis set group =>   2
Atom  53H    basis set group =>   2
Atom  54C    basis set group =>   1
Atom  55C    basis set group =>   1
Atom  56C    basis set group =>   1
Atom  57H    basis set group =>   2
Atom  58H    basis set group =>   2
Atom  59C    basis set group =>   1
Atom  60C    basis set group =>   1
Atom  61H    basis set group =>   2
Atom  62H    basis set group =>   2
Atom  63H    basis set group =>   2
Atom  64H    basis set group =>   2
Atom  65H    basis set group =>   2
Atom  66H    basis set group =>   2
Atom  67H    basis set group =>   2
Atom  68H    basis set group =>   2
Atom  69H    basis set group =>   2
Atom  70H    basis set group =>   2
Atom  71H    basis set group =>   2
Atom  72H    basis set group =>   2

-------------------------
BASIS SET IN INPUT FORMAT
-------------------------

 # Basis set for element : H 
 NewGTO H 
 S 3 
   1    1357.7500000000      0.0012928364
   2      54.3100000000      0.0588280685
   3       4.3448000000      0.9761499708
 S 1 
   1       0.6604910000      1.0000000000
 S 1 
   1       0.1366870000      1.0000000000
  end;

 # Basis set for element : C 
 NewGTO C 
 S 4 
   1  139534.0000000000      0.0001655246
   2    5581.3600000000      0.0074486101
   3     446.5090000000      0.1285821065
   4      67.4620000000      0.9218029311
 S 1 
   1      15.0674000000      1.0000000000
 S 1 
   1       3.9387600000      1.0000000000
 S 1 
   1       0.2999150000      1.0000000000
 P 2 
   1      28.3900000000      0.0816325586
   2       4.3676900000      0.9660360576
 P 1 
   1       0.8698170000      1.0000000000
 P 1 
   1       0.1889340000      1.0000000000
  end;

 # Basis set for element : O 
 NewGTO O 
 S 4 
   1  253789.0000000000      0.0001641076
   2   10151.6000000000      0.0074010921
   3     812.1250000000      0.1277711901
   4     122.6930000000      0.9223372164
 S 1 
   1      27.5608000000      1.0000000000
 S 1 
   1       7.3172600000      1.0000000000
 S 1 
   1       0.5792400000      1.0000000000
 P 2 
   1      53.4157000000      0.0793786106
   2       8.2177900000      0.9670506337
 P 1 
   1       1.6754400000      1.0000000000
 P 1 
   1       0.3506720000      1.0000000000
  end;

---------------------------------
AUXILIARY/J BASIS SET INFORMATION
---------------------------------
There are 3 groups of distinct atoms

 Group   1 Type C   : 12s5p4d2f1g contracted to 6s4p3d1f1g pattern {711111/2111/211/2/1}
 Group   2 Type H   : 5s2p1d contracted to 3s1p1d pattern {311/2/1}
 Group   3 Type O   : 12s5p4d2f1g contracted to 6s4p3d1f1g pattern {711111/2111/211/2/1}

Atom   0C    basis set group =>   1
Atom   1C    basis set group =>   1
Atom   2C    basis set group =>   1
Atom   3H    basis set group =>   2
Atom   4H    basis set group =>   2
Atom   5C    basis set group =>   1
Atom   6C    basis set group =>   1
Atom   7C    basis set group =>   1
Atom   8H    basis set group =>   2
Atom   9H    basis set group =>   2
Atom  10H    basis set group =>   2
Atom  11H    basis set group =>   2
Atom  12O    basis set group =>   3
Atom  13H    basis set group =>   2
Atom  14C    basis set group =>   1
Atom  15C    basis set group =>   1
Atom  16H    basis set group =>   2
Atom  17H    basis set group =>   2
Atom  18C    basis set group =>   1
Atom  19H    basis set group =>   2
Atom  20C    basis set group =>   1
Atom  21H    basis set group =>   2
Atom  22C    basis set group =>   1
Atom  23C    basis set group =>   1
Atom  24H    basis set group =>   2
Atom  25H    basis set group =>   2
Atom  26C    basis set group =>   1
Atom  27H    basis set group =>   2
Atom  28H    basis set group =>   2
Atom  29C    basis set group =>   1
Atom  30H    basis set group =>   2
Atom  31H    basis set group =>   2
Atom  32C    basis set group =>   1
Atom  33H    basis set group =>   2
Atom  34C    basis set group =>   1
Atom  35H    basis set group =>   2
Atom  36C    basis set group =>   1
Atom  37H    basis set group =>   2
Atom  38H    basis set group =>   2
Atom  39C    basis set group =>   1
Atom  40H    basis set group =>   2
Atom  41H    basis set group =>   2
Atom  42H    basis set group =>   2
Atom  43C    basis set group =>   1
Atom  44C    basis set group =>   1
Atom  45H    basis set group =>   2
Atom  46H    basis set group =>   2
Atom  47H    basis set group =>   2
Atom  48H    basis set group =>   2
Atom  49C    basis set group =>   1
Atom  50C    basis set group =>   1
Atom  51C    basis set group =>   1
Atom  52H    basis set group =>   2
Atom  53H    basis set group =>   2
Atom  54C    basis set group =>   1
Atom  55C    basis set group =>   1
Atom  56C    basis set group =>   1
Atom  57H    basis set group =>   2
Atom  58H    basis set group =>   2
Atom  59C    basis set group =>   1
Atom  60C    basis set group =>   1
Atom  61H    basis set group =>   2
Atom  62H    basis set group =>   2
Atom  63H    basis set group =>   2
Atom  64H    basis set group =>   2
Atom  65H    basis set group =>   2
Atom  66H    basis set group =>   2
Atom  67H    basis set group =>   2
Atom  68H    basis set group =>   2
Atom  69H    basis set group =>   2
Atom  70H    basis set group =>   2
Atom  71H    basis set group =>   2
Atom  72H    basis set group =>   2

-------------------------------------
AUXILIARY/J BASIS SET IN INPUT FORMAT
-------------------------------------

 # Auxiliary/J basis set for element : H 
 NewAuxJGTO H 
 S 3 
   1      15.6752927000      0.1007184237
   2       3.6063578000      0.3404257499
   3       1.2080016000      0.6491996172
 S 1 
   1       0.4726794000      1.0000000000
 S 1 
   1       0.2018100000      1.0000000000
 P 2 
   1       2.0281365000      0.5596620919
   2       0.5358730000      0.5596620919
 D 1 
   1       2.2165124000      1.0000000000
  end;

 # Auxiliary/J basis set for element : C 
 NewAuxJGTO C 
 S 7 
   1    1861.0916331000      0.0134602335
   2     642.9939764000      0.0299160374
   3     235.1105725000      0.1008649584
   4      90.7028894000      0.2370970548
   5      36.7794552000      0.3924037254
   6      15.6046273000      0.3195862154
   7       6.8907294000      0.0530104441
 S 1 
   1       3.1478850000     -1.0000000000
 S 1 
   1       1.4777287000      1.0000000000
 S 1 
   1       0.7076466000      1.0000000000
 S 1 
   1       0.3430122000      1.0000000000
 S 1 
   1       0.1669453000      1.0000000000
 P 2 
   1      13.5472892000     -0.6769313712
   2       5.4669419000     -0.3779500978
 P 1 
   1       2.1751721000      1.0000000000
 P 1 
   1       0.8582194000      1.0000000000
 P 1 
   1       0.3376720000      1.0000000000
 D 2 
   1       5.9287253000     -0.3533329857
   2       1.9809209000     -0.7456525731
 D 1 
   1       0.8055417000     -1.0000000000
 D 1 
   1       0.3531244000     -1.0000000000
 F 2 
   1       1.6755626000      0.6311076882
   2       0.5997536000      0.4968166032
 G 1 
   1       1.0024600000     -1.0000000000
  end;

 # Auxiliary/J basis set for element : O 
 NewAuxJGTO O 
 S 7 
   1    2876.8216605000      0.0168151159
   2    1004.7443032000      0.0340137548
   3     369.7579954000      0.1194951309
   4     142.9442404000      0.2664627624
   5      57.8366425000      0.4202764046
   6      24.3864983000      0.2765077335
   7      10.6622662000      0.0057008815
 S 1 
   1       4.8070437000     -1.0000000000
 S 1 
   1       2.2210770000      1.0000000000
 S 1 
   1       1.0447795000      1.0000000000
 S 1 
   1       0.4968425000      1.0000000000
 S 1 
   1       0.2371384000      1.0000000000
 P 2 
   1      64.2613382000     -0.2731534179
   2      16.3006076000     -0.8168011598
 P 1 
   1       4.3550542000      1.0000000000
 P 1 
   1       1.2019554000      1.0000000000
 P 1 
   1       0.3354196000      1.0000000000
 D 2 
   1       9.2146611000     -0.4661230638
   2       2.8435251000     -0.6600908911
 D 1 
   1       0.9955759000     -1.0000000000
 D 1 
   1       0.3649441000     -1.0000000000
 F 2 
   1       2.6420115000      0.5931563945
   2       0.7345613000      0.5931563945
 G 1 
   1       1.3931000000     -1.0000000000
  end;


Checking for AutoStart:
The File: inpJ.gbw exists
Trying to determine its content:
     ... Fine, the file contains calculation information
     ... Fine, the calculation information was read
     ... Fine, the file contains a basis set
     ... Fine, the basis set was read
     ... Fine, the file contains a geometry
     ... Fine, the geometry was read
     ... Fine, the file contains a set of orbitals
     ... Fine, the orbitals can be read
     => possible old guess file was deleted
     => GBW file was renamed to GES file
     => GES file is set as startup file
     => Guess is set to MORead
     ... now leaving AutoStart



           ************************************************************
           *        Program running with 4 parallel MPI-processes     *
           *              working on a common directory               *
           ************************************************************
------------------------------------------------------------------------------
                             ORCA STARTUP CALCULATIONS
                           -- RI-GTO INTEGRALS CHOSEN --
------------------------------------------------------------------------------
------------------------------------------------------------------------------
                   ___                                                        
                  /   \      - P O W E R E D   B Y -                         
                 /     \                                                     
                 |  |  |   _    _      __       _____    __    __             
                 |  |  |  | |  | |    /  \     |  _  \  |  |  /  |          
                  \  \/   | |  | |   /    \    | | | |  |  | /  /          
                 / \  \   | |__| |  /  /\  \   | |_| |  |  |/  /          
                |  |  |   |  __  | /  /__\  \  |    /   |      \           
                |  |  |   | |  | | |   __   |  |    \   |  |\   \          
                \     /   | |  | | |  |  |  |  | |\  \  |  | \   \       
                 \___/    |_|  |_| |__|  |__|  |_| \__\ |__|  \__/        
                                                                              
                      - O R C A' S   B I G   F R I E N D -                    
                                      &                                       
                       - I N T E G R A L  F E E D E R -                       
                                                                              
 v1 FN, 2020, v2 2021, v3 2022-2024                                           
------------------------------------------------------------------------------


----------------------
SHARK INTEGRAL PACKAGE
----------------------

Number of atoms                             ...     73
Number of basis functions                   ...    509
Number of shells                            ...    335
Maximum angular momentum                    ...      1
Integral batch strategy                     ... SHARK/LIBINT Hybrid
RI-J (if used) integral strategy            ... SPLIT-RIJ (Revised 2003 algorithm where possible)
Printlevel                                  ...      1
Contraction scheme used                     ... SEGMENTED contraction
Prescreening option                         ... SCHWARTZ
   Thresh                                   ... 3.000e-11
   Tcut                                     ... 1.000e-12
   Tpresel                                  ... 1.000e-12 
Coulomb Range Separation                    ... NOT USED
Exchange Range Separation                   ... NOT USED
Multipole approximations                    ... NOT USED
Finite Nucleus Model                        ... NOT USED
CABS basis                                  ... NOT available
Auxiliary Coulomb fitting basis             ... AVAILABLE
   # of basis functions in Aux-J            ...   1905
   # of shells in Aux-J                     ...    655
   Maximum angular momentum in Aux-J        ...      4
Auxiliary J/K fitting basis                 ... NOT available
Auxiliary Correlation fitting basis         ... NOT available
Auxiliary 'external' fitting basis          ... NOT available

Checking pre-screening integrals            ... done (  0.0 sec) Dimension = 335
Check shell pair data                       ... done (  0.0 sec)
Shell pair information
Shell pair cut-off parameter TPreSel        ...   1.0e-12
Total number of shell pairs                 ...     56280
Shell pairs after pre-screening             ...     21596
Total number of primitive shell pairs       ...    145865
Primitive shell pairs kept                  ...     37150
          la=0 lb=0:  10850 shell pairs
          la=1 lb=0:   8892 shell pairs
          la=1 lb=1:   1854 shell pairs

Calculating one electron integrals          ... done (  0.0 sec)
Calculating RI/J V-Matrix + Cholesky decomp.... done (  0.2 sec)
Calculating Nuclear repulsion               ... done (  0.0 sec) ENN=   2768.565114807781 Eh

Diagonalization of the overlap matrix:
Smallest eigenvalue                        ... 7.573e-03
Time for diagonalization                   ...    0.026 sec
Threshold for overlap eigenvalues          ... 1.000e-07
Number of eigenvalues below threshold      ... 0
Time for construction of square roots      ...    0.015 sec
Total time needed                          ...    0.042 sec

-------------------
DFT GRID GENERATION
-------------------

General Integration Accuracy     IntAcc      ... 4.388
Radial Grid Type                 RadialGrid  ... OptM3 with GC (2021)
Angular Grid (max. ang.)         AngularGrid ... 4 (Lebedev-302)
Angular grid pruning method      GridPruning ... 4 (adaptive)
Weight generation scheme         WeightScheme... mBecke (2022)
Basis function cutoff            BFCut       ... 1.0000e-11
Integration weight cutoff        WCut        ... 1.0000e-14
Partially contracted basis set               ... off
Rotationally invariant grid construction     ... off
Angular grids for H and He will be reduced by one unit

Total number of grid points                  ...   309975
Total number of batches                      ...     4880
Average number of points per batch           ...       63
Average number of grid points per atom       ...     4246

--------------------
COSX GRID GENERATION
--------------------

GRIDX 1
-------
General Integration Accuracy     IntAcc      ... 3.816
Radial Grid Type                 RadialGrid  ... OptM3 with GC (2021)
Angular Grid (max. ang.)         AngularGrid ... 1 (Lebedev-50)
Angular grid pruning method      GridPruning ... 4 (adaptive)
Weight generation scheme         WeightScheme... mBecke (2022)
Basis function cutoff            BFCut       ... 1.0000e-11
Integration weight cutoff        WCut        ... 1.0000e-14
Partially contracted basis set               ... on
Rotationally invariant grid construction     ... off
Angular grids for H and He will be reduced by one unit

Total number of grid points                  ...    39432
Total number of batches                      ...      353
Average number of points per batch           ...      111
Average number of grid points per atom       ...      540
UseSFitting                                  ... on

GRIDX 2
-------
General Integration Accuracy     IntAcc      ... 4.020
Radial Grid Type                 RadialGrid  ... OptM3 with GC (2021)
Angular Grid (max. ang.)         AngularGrid ... 2 (Lebedev-110)
Angular grid pruning method      GridPruning ... 4 (adaptive)
Weight generation scheme         WeightScheme... mBecke (2022)
Basis function cutoff            BFCut       ... 1.0000e-11
Integration weight cutoff        WCut        ... 1.0000e-14
Partially contracted basis set               ... on
Rotationally invariant grid construction     ... off
Angular grids for H and He will be reduced by one unit

Total number of grid points                  ...    81433
Total number of batches                      ...      678
Average number of points per batch           ...      120
Average number of grid points per atom       ...     1116
UseSFitting                                  ... on

GRIDX 3
-------
General Integration Accuracy     IntAcc      ... 4.338
Radial Grid Type                 RadialGrid  ... OptM3 with GC (2021)
Angular Grid (max. ang.)         AngularGrid ... 3 (Lebedev-194)
Angular grid pruning method      GridPruning ... 4 (adaptive)
Weight generation scheme         WeightScheme... mBecke (2022)
Basis function cutoff            BFCut       ... 1.0000e-11
Integration weight cutoff        WCut        ... 1.0000e-14
Partially contracted basis set               ... on
Rotationally invariant grid construction     ... off
Angular grids for H and He will be reduced by one unit

Total number of grid points                  ...   176331
Total number of batches                      ...     1420
Average number of points per batch           ...      124
Average number of grid points per atom       ...     2415
UseSFitting                                  ... on
Initializing property integral containers    ... done (  0.0 sec)

SHARK setup successfully completed in   3.6 seconds

Maximum memory used throughout the entire STARTUP-calculation: 85.4 MB


           ************************************************************
           *        Program running with 4 parallel MPI-processes     *
           *              working on a common directory               *
           ************************************************************
-------------------------------------------------------------------------------
                                 ORCA GUESS
                   Start orbitals & Density for SCF / CASSCF
-------------------------------------------------------------------------------

------------
SCF SETTINGS
------------
Hamiltonian:
 Density Functional     Method          .... DFT(GTOs)
 Exchange Functional    Exchange        .... PBE
   PBE kappa parameter   XKappa         ....  0.804000
   PBE mue parameter    XMuePBE         ....  0.219520
 Correlation Functional Correlation     .... PBE
   PBE beta parameter  CBetaPBE         ....  0.066725
 LDA part of GGA corr.  LDAOpt          .... PW91-LDA
 Gradients option       PostSCFGGA      .... off
 Hybrid DFT is turned on
   Fraction HF Exchange ScalHFX         ....  0.250000
   Scaling of DF-GGA-X  ScalDFX         ....  0.750000
   Scaling of DF-GGA-C  ScalDFC         ....  1.000000
   Scaling of DF-LDA-C  ScalLDAC        ....  1.000000
   Perturbative correction              ....  0.000000
   NL short-range parameter             ....  6.900000
 RI-approximation to the Coulomb term is turned on
   Number of AuxJ basis functions       .... 1905
   RIJ-COSX (HFX calculated with COS-X)).... on


General Settings:
 Integral files         IntName         .... inpJ
 Hartree-Fock type      HFTyp           .... RHF
 Total Charge           Charge          ....    0
 Multiplicity           Mult            ....    1
 Number of Electrons    NEL             ....  220
 Basis Dimension        Dim             ....  509
 Nuclear Repulsion      ENuc            ....   2768.5651148078 Eh

Convergence Acceleration:
 AO-DIIS                CNVDIIS         .... on
   Start iteration      DIISMaxIt       ....    12
   Startup error        DIISStart       ....  0.200000
   # of expansion vecs  DIISMaxEq       ....     5
   Bias factor          DIISBfac        ....   1.050
   Max. coefficient     DIISMaxC        ....  10.000
 MO-DIIS                CNVKDIIS        .... off
 Trust-Rad. Augm. Hess. CNVTRAH         .... auto
   Auto Start mean grad. ratio tolernc. ....  1.125000
   Auto Start start iteration           ....     1
   Auto Start num. interpolation iter.  ....    10
   Max. Number of Micro iterations      ....    24
   Max. Number of Macro iterations      .... Maxiter - #DIIS iter
   Number of Davidson start vectors     ....     2
   Converg. threshold    (grad. norm)   ....   1.000e-04
   Grad. Scal. Fac. for Micro threshold ....   0.100
   Minimum threshold for Micro iter.    ....   1.000e-02
   NR start threshold (gradient norm)   ....   1.000e-04
   Initial trust radius                 ....   0.400
   Minimum AH scaling param. (alpha)    ....   1.000
   Maximum AH scaling param. (alpha)    .... 1000.000
   Quad. conv. algorithm                .... NR
   White noise on init. David. guess    .... on
   Maximum white noise                  ....   0.010
   Pseudo random numbers                .... off
   Inactive MOs                         .... canonical
   Orbital update algorithm             .... Taylor
   Preconditioner                       .... Diag
   Full preconditioner red. dimension   ....   250
 SOSCF                  CNVSOSCF        .... off
 Level Shifting         CNVShift        .... on
   Level shift para.    LevelShift      ....    0.2500
   Turn off err/grad.   ShiftErr        ....    0.0010
 Zerner damping         CNVZerner       .... off
 Static damping         CNVDamp         .... on
   Fraction old density DampFac         ....    0.7000
   Max. Damping (<1)    DampMax         ....    0.9800
   Min. Damping (>=0)   DampMin         ....    0.0000
   Turn off err/grad.   DampErr         ....    0.1000

SCF Procedure:
 Maximum # iterations   MaxIter         ....   125
 SCF integral mode      SCFMode         .... Direct
   Integral package                     .... SHARK and LIBINT hybrid scheme
 Reset frequency        DirectResetFreq ....    20
 Integral Threshold     Thresh          ....  3.000e-11 Eh
 Primitive CutOff       TCut            ....  1.000e-12 Eh

Convergence Tolerance:
 Convergence Check Mode ConvCheckMode   .... Total+1el-Energy
 Convergence forced     ConvForced      .... 0
 Energy Change          TolE            ....  1.000e-07 Eh
 1-El. energy change                    ....  1.000e-04 Eh
 DIIS Error             TolErr          ....  1.000e-07

---------------------
INITIAL GUESS: MOREAD
---------------------
Guess MOs are being read from file: inpJ.ges
Input Geometry matches current geometry (good)
Input basis set matches current basis set (good)
Occupation numbers will be reassigned to an Aufbau configuration
MOs were renormalized
MOs were reorthogonalized (Cholesky)
                      ------------------
                      INITIAL GUESS DONE (   0.1 sec)
                      ------------------
             **** ENERGY FILE WAS UPDATED (inpJ.en.tmp) ****
Finished Guess after   0.3 sec
Maximum memory used throughout the entire GUESS-calculation: 36.5 MB


           ************************************************************
           *        Program running with 4 parallel MPI-processes     *
           *              working on a common directory               *
           ************************************************************

-------------------------------------------------------------------------------------------
                                      ORCA LEAN-SCF
                              memory conserving SCF solver
-------------------------------------------------------------------------------------------

--------------------
CPCM SOLVATION MODEL
--------------------
CPCM parameters:
  Epsilon                                         ...       4.8030
  Refrac                                          ...       1.4459
  Rsolv                                           ...       1.3000
  Surface type                                    ... GAUSSIAN VDW
  Discretization scheme                           ... Constant charge density
    Threshold for H atoms                         ...       5.0000 (charges/Ang^2)
    Threshold for non-H atoms                     ...       5.0000 (charges/Ang^2)
  Epsilon function type                           ...         CPCM
Solvent:                                          ... CHLOROFORM
Radii:
  Scheme                                          ... Element-dependent radii
  Radius for C  used is    3.8550 Bohr (=   2.0400 Ang.)
  Radius for H  used is    2.4944 Bohr (=   1.3200 Ang.)
  Radius for O  used is    3.4469 Bohr (=   1.8240 Ang.)
Calculating surface                               ...        done! (  0.0s)
Cavity surface points                             ...         5351
Cavity Volume                                     ...    3609.6133
Cavity Surface-area                               ...    1792.8927
Calculating surface distance matrix               ...        done! (  0.2s)
Performing Cholesky decomposition & store         ...        done! (  0.9s)
Overall time for CPCM initialization              ...                 1.1s

----------------------------------------D-I-I-S--------------------------------------------
Iteration    Energy (Eh)           Delta-E    RMSDP     MaxDP     DIISErr   Damp  Time(sec)
-------------------------------------------------------------------------------------------
               ***  Starting incremental Fock matrix formation  ***
    1    -1165.5109237112174014     0.00e+00  3.70e-08  4.70e-06  5.39e-06  0.700   6.1

  HOMO= 109 E= -6.019 eV LUMO=  5.933 eV gap=  11.952 eV
    2    -1165.5109237344286157    -2.32e-08  2.52e-08  2.86e-06  2.74e-06  0.700   1.9
                 **** Energy Check signals convergence ****

  HOMO= 109 E= -6.019 eV LUMO=  5.933 eV gap=  11.952 eV

               *****************************************************
               *                     SUCCESS                       *
               *           SCF CONVERGED AFTER   2 CYCLES          *
               *****************************************************

Recomputing exchange energy using gridx3       ... done (    8.158 sec)
Old exchange energy                            :    -42.067717427 Eh
New exchange energy                            :    -42.067693739 Eh
Exchange energy change after final integration :      0.000023689 Eh
Total energy after final integration           :  -1165.510900046 Eh
             **** ENERGY FILE WAS UPDATED (inpJ.en.tmp) ****

----------------
TOTAL SCF ENERGY
----------------

Total Energy       :      -1165.51090004575508 Eh          -31715.16396 eV

Components:
Nuclear Repulsion  :       2768.56511480778090 Eh           75336.48681 eV
Electronic Energy  :      -3934.06232953135350 Eh         -107051.27837 eV
One Electron Energy:      -7078.80548758647274 Eh         -192624.09014 eV
Two Electron Energy:       3144.74315805511924 Eh           85572.81177 eV
CPCM Dielectric    :         -0.01370901085590 Eh              -0.37304 eV

Virial components:
Potential Energy   :      -2322.40458745641899 Eh          -63195.84164 eV
Kinetic Energy     :       1156.89368741066392 Eh           31480.67768 eV
Virial Ratio       :          2.00744857779834

DFT components:
N(Alpha)           :      109.999958669215 electrons
N(Beta)            :      109.999958669215 electrons
N(Total)           :      219.999917338430 electrons
E(X)               :     -125.745714732231 Eh       
E(C)               :       -7.327540841396 Eh       
E(XC)              :     -133.073255573627 Eh       

CPCM Solvation Model Properties:
Surface-charge          :         -0.03351375043124
Corrected charge        :         -0.00000000000000
Outlying charge corr.   :          0.00003914381356 Eh               0.00107 eV
Free-energy (cav+disp)  :  This term is not implemented in the current solvation scheme

---------------
SCF CONVERGENCE
---------------

  Last Energy change         ...    2.3211e-08  Tolerance :   1.0000e-07
  Last MAX-Density change    ...    2.8620e-06  Tolerance :   1.0000e-05
  Last RMS-Density change    ...    2.5196e-08  Tolerance :   1.0000e-06
  Last DIIS Error            ...    2.7394e-06  Tolerance :   1.0000e-07


----------------
ORBITAL ENERGIES
----------------

  NO   OCC          E(Eh)            E(eV) 
   0   2.0000     -19.212589      -522.8011 
   1   2.0000     -10.300627      -280.2943 
   2   2.0000     -10.270730      -279.4808 
   3   2.0000     -10.268618      -279.4233 
   4   2.0000     -10.264123      -279.3010 
   5   2.0000     -10.257885      -279.1312 
   6   2.0000     -10.257804      -279.1290 
   7   2.0000     -10.252779      -278.9923 
   8   2.0000     -10.249237      -278.8959 
   9   2.0000     -10.248535      -278.8768 
  10   2.0000     -10.248342      -278.8716 
  11   2.0000     -10.247834      -278.8577 
  12   2.0000     -10.247536      -278.8496 
  13   2.0000     -10.246926      -278.8330 
  14   2.0000     -10.244985      -278.7802 
  15   2.0000     -10.244487      -278.7667 
  16   2.0000     -10.243179      -278.7311 
  17   2.0000     -10.242042      -278.7001 
  18   2.0000     -10.241926      -278.6970 
  19   2.0000     -10.241731      -278.6917 
  20   2.0000     -10.240477      -278.6575 
  21   2.0000     -10.236143      -278.5396 
  22   2.0000     -10.235694      -278.5274 
  23   2.0000     -10.234521      -278.4955 
  24   2.0000     -10.225470      -278.2492 
  25   2.0000     -10.224886      -278.2333 
  26   2.0000     -10.224739      -278.2293 
  27   2.0000     -10.224150      -278.2133 
  28   2.0000     -10.221567      -278.1430 
  29   2.0000      -1.043354       -28.3911 
  30   2.0000      -0.902318       -24.5533 
  31   2.0000      -0.882450       -24.0127 
  32   2.0000      -0.859711       -23.3939 
  33   2.0000      -0.846536       -23.0354 
  34   2.0000      -0.823112       -22.3980 
  35   2.0000      -0.815211       -22.1830 
  36   2.0000      -0.796294       -21.6683 
  37   2.0000      -0.795345       -21.6424 
  38   2.0000      -0.776886       -21.1402 
  39   2.0000      -0.759272       -20.6608 
  40   2.0000      -0.741828       -20.1862 
  41   2.0000      -0.732329       -19.9277 
  42   2.0000      -0.716020       -19.4839 
  43   2.0000      -0.703510       -19.1435 
  44   2.0000      -0.703244       -19.1362 
  45   2.0000      -0.696698       -18.9581 
  46   2.0000      -0.671349       -18.2683 
  47   2.0000      -0.664212       -18.0741 
  48   2.0000      -0.636078       -17.3086 
  49   2.0000      -0.622692       -16.9443 
  50   2.0000      -0.613804       -16.7025 
  51   2.0000      -0.607031       -16.5182 
  52   2.0000      -0.598039       -16.2735 
  53   2.0000      -0.572430       -15.5766 
  54   2.0000      -0.558280       -15.1916 
  55   2.0000      -0.547964       -14.9109 
  56   2.0000      -0.541009       -14.7216 
  57   2.0000      -0.529798       -14.4165 
  58   2.0000      -0.515511       -14.0278 
  59   2.0000      -0.509816       -13.8728 
  60   2.0000      -0.502382       -13.6705 
  61   2.0000      -0.493654       -13.4330 
  62   2.0000      -0.481754       -13.1092 
  63   2.0000      -0.480554       -13.0766 
  64   2.0000      -0.476144       -12.9565 
  65   2.0000      -0.470355       -12.7990 
  66   2.0000      -0.466006       -12.6807 
  67   2.0000      -0.461285       -12.5522 
  68   2.0000      -0.459515       -12.5040 
  69   2.0000      -0.455166       -12.3857 
  70   2.0000      -0.451085       -12.2747 
  71   2.0000      -0.442515       -12.0414 
  72   2.0000      -0.435808       -11.8589 
  73   2.0000      -0.432957       -11.7814 
  74   2.0000      -0.431850       -11.7512 
  75   2.0000      -0.421571       -11.4715 
  76   2.0000      -0.414227       -11.2717 
  77   2.0000      -0.413841       -11.2612 
  78   2.0000      -0.413220       -11.2443 
  79   2.0000      -0.402462       -10.9515 
  80   2.0000      -0.401273       -10.9192 
  81   2.0000      -0.398240       -10.8367 
  82   2.0000      -0.397131       -10.8065 
  83   2.0000      -0.389541       -10.6000 
  84   2.0000      -0.385183       -10.4814 
  85   2.0000      -0.381044       -10.3687 
  86   2.0000      -0.377158       -10.2630 
  87   2.0000      -0.374570       -10.1926 
  88   2.0000      -0.369603       -10.0574 
  89   2.0000      -0.364271        -9.9123 
  90   2.0000      -0.361791        -9.8448 
  91   2.0000      -0.359788        -9.7903 
  92   2.0000      -0.355325        -9.6689 
  93   2.0000      -0.346673        -9.4334 
  94   2.0000      -0.342817        -9.3285 
  95   2.0000      -0.339299        -9.2328 
  96   2.0000      -0.335893        -9.1401 
  97   2.0000      -0.332260        -9.0413 
  98   2.0000      -0.330465        -8.9924 
  99   2.0000      -0.328683        -8.9439 
 100   2.0000      -0.326435        -8.8827 
 101   2.0000      -0.324532        -8.8310 
 102   2.0000      -0.321415        -8.7462 
 103   2.0000      -0.319505        -8.6942 
 104   2.0000      -0.311545        -8.4776 
 105   2.0000      -0.302332        -8.2269 
 106   2.0000      -0.276820        -7.5326 
 107   2.0000      -0.275424        -7.4947 
 108   2.0000      -0.256679        -6.9846 
 109   2.0000      -0.221192        -6.0189 
 110   0.0000      -0.031975        -0.8701 
 111   0.0000       0.018994         0.5168 
 112   0.0000       0.028145         0.7659 
 113   0.0000       0.081805         2.2260 
 114   0.0000       0.091752         2.4967 
 115   0.0000       0.097678         2.6579 
 116   0.0000       0.102098         2.7782 
 117   0.0000       0.105456         2.8696 
 118   0.0000       0.108817         2.9611 
 119   0.0000       0.116004         3.1566 
 120   0.0000       0.117347         3.1932 
*Only the first 10 virtual orbitals were printed.

                    ********************************
                    * MULLIKEN POPULATION ANALYSIS *
                    ********************************

-----------------------
MULLIKEN ATOMIC CHARGES
-----------------------
   0 C :    0.078123
   1 C :   -0.500680
   2 C :   -0.074056
   3 H :    0.223040
   4 H :    0.219958
   5 C :    0.138640
   6 C :   -0.479845
   7 C :   -0.439740
   8 H :    0.225358
   9 H :    0.207373
  10 H :    0.208822
  11 H :    0.227931
  12 O :   -0.488182
  13 H :    0.247334
  14 C :   -0.280279
  15 C :   -0.513959
  16 H :    0.200989
  17 H :    0.196984
  18 C :   -0.260222
  19 H :    0.220090
  20 C :    0.153938
  21 H :    0.219841
  22 C :   -0.479283
  23 C :   -0.427660
  24 H :    0.211865
  25 H :    0.207303
  26 C :   -0.397232
  27 H :    0.208563
  28 H :    0.217556
  29 C :    0.000582
  30 H :    0.222992
  31 H :    0.194819
  32 C :   -0.229847
  33 H :    0.228761
  34 C :   -0.430527
  35 H :    0.341064
  36 C :   -0.427077
  37 H :    0.208912
  38 H :    0.198960
  39 C :   -0.186786
  40 H :    0.211127
  41 H :    0.205738
  42 H :    0.213203
  43 C :   -0.239807
  44 C :   -0.627950
  45 H :    0.205545
  46 H :    0.210079
  47 H :    0.201899
  48 H :    0.219409
  49 C :   -0.638923
  50 C :   -0.184602
  51 C :   -0.179199
  52 H :    0.216645
  53 H :    0.219042
  54 C :   -0.240384
  55 C :   -0.626327
  56 C :   -0.197949
  57 H :    0.222839
  58 H :    0.220511
  59 C :   -0.612112
  60 C :   -0.618333
  61 H :    0.198598
  62 H :    0.207153
  63 H :    0.202862
  64 H :    0.200746
  65 H :    0.197730
  66 H :    0.204308
  67 H :    0.205068
  68 H :    0.202954
  69 H :    0.197989
  70 H :    0.215364
  71 H :    0.191403
  72 H :    0.200946
Sum of atomic charges:    0.0000000

--------------------------------
MULLIKEN REDUCED ORBITAL CHARGES
--------------------------------
  0 C s       :     3.354267  s :     3.354267
      pz      :     0.999742  p :     2.567610
      px      :     0.807193
      py      :     0.760674

  1 C s       :     3.377968  s :     3.377968
      pz      :     1.135779  p :     3.122712
      px      :     0.874173
      py      :     1.112761

  2 C s       :     3.312674  s :     3.312674
      pz      :     0.706080  p :     2.761382
      px      :     1.143340
      py      :     0.911961

  3 H s       :     0.776960  s :     0.776960

  4 H s       :     0.780042  s :     0.780042

  5 C s       :     3.341395  s :     3.341395
      pz      :     0.883645  p :     2.519964
      px      :     0.867291
      py      :     0.769029

  6 C s       :     3.367248  s :     3.367248
      pz      :     1.135156  p :     3.112596
      px      :     0.890600
      py      :     1.086840

  7 C s       :     3.338591  s :     3.338591
      pz      :     1.179728  p :     3.101150
      px      :     0.964259
      py      :     0.957163

  8 H s       :     0.774642  s :     0.774642

  9 H s       :     0.792627  s :     0.792627

 10 H s       :     0.791178  s :     0.791178

 11 H s       :     0.772069  s :     0.772069

 12 O s       :     3.684977  s :     3.684977
      pz      :     1.441882  p :     4.803204
      px      :     1.455612
      py      :     1.905710

 13 H s       :     0.752666  s :     0.752666

 14 C s       :     3.394202  s :     3.394202
      pz      :     0.982157  p :     2.886077
      px      :     0.826773
      py      :     1.077148

 15 C s       :     3.385167  s :     3.385167
      pz      :     0.988840  p :     3.128792
      px      :     0.991268
      py      :     1.148684

 16 H s       :     0.799011  s :     0.799011

 17 H s       :     0.803016  s :     0.803016

 18 C s       :     3.397223  s :     3.397223
      pz      :     1.017100  p :     2.862999
      px      :     0.765617
      py      :     1.080282

 19 H s       :     0.779910  s :     0.779910

 20 C s       :     3.350721  s :     3.350721
      pz      :     0.944030  p :     2.495341
      px      :     0.757508
      py      :     0.793803

 21 H s       :     0.780159  s :     0.780159

 22 C s       :     3.372572  s :     3.372572
      pz      :     1.108706  p :     3.106711
      px      :     1.114547
      py      :     0.883457

 23 C s       :     3.327511  s :     3.327511
      pz      :     1.096725  p :     3.100149
      px      :     0.891883
      py      :     1.111541

 24 H s       :     0.788135  s :     0.788135

 25 H s       :     0.792697  s :     0.792697

 26 C s       :     3.350095  s :     3.350095
      pz      :     1.175056  p :     3.047137
      px      :     0.961801
      py      :     0.910280

 27 H s       :     0.791437  s :     0.791437

 28 H s       :     0.782444  s :     0.782444

 29 C s       :     3.318281  s :     3.318281
      pz      :     0.869400  p :     2.681137
      px      :     0.906283
      py      :     0.905454

 30 H s       :     0.777008  s :     0.777008

 31 H s       :     0.805181  s :     0.805181

 32 C s       :     3.362537  s :     3.362537
      pz      :     1.079207  p :     2.867310
      px      :     0.864625
      py      :     0.923479

 33 H s       :     0.771239  s :     0.771239

 34 C s       :     3.344589  s :     3.344589
      pz      :     1.190875  p :     3.085937
      px      :     0.929557
      py      :     0.965506

 35 H s       :     0.658936  s :     0.658936

 36 C s       :     3.335788  s :     3.335788
      pz      :     1.168137  p :     3.091288
      px      :     0.947466
      py      :     0.975685

 37 H s       :     0.791088  s :     0.791088

 38 H s       :     0.801040  s :     0.801040

 39 C s       :     3.338882  s :     3.338882
      pz      :     1.060965  p :     2.847904
      px      :     0.860536
      py      :     0.926403

 40 H s       :     0.788873  s :     0.788873

 41 H s       :     0.794262  s :     0.794262

 42 H s       :     0.786797  s :     0.786797

 43 C s       :     3.349572  s :     3.349572
      pz      :     1.051378  p :     2.890235
      px      :     0.875075
      py      :     0.963782

 44 C s       :     3.365755  s :     3.365755
      pz      :     0.956432  p :     3.262195
      px      :     1.162013
      py      :     1.143749

 45 H s       :     0.794455  s :     0.794455

 46 H s       :     0.789921  s :     0.789921

 47 H s       :     0.798101  s :     0.798101

 48 H s       :     0.780591  s :     0.780591

 49 C s       :     3.351942  s :     3.351942
      pz      :     1.150186  p :     3.286981
      px      :     1.162231
      py      :     0.974564

 50 C s       :     3.341659  s :     3.341659
      pz      :     0.960175  p :     2.842943
      px      :     0.806010
      py      :     1.076758

 51 C s       :     3.340597  s :     3.340597
      pz      :     0.963249  p :     2.838602
      px      :     0.813693
      py      :     1.061660

 52 H s       :     0.783355  s :     0.783355

 53 H s       :     0.780958  s :     0.780958

 54 C s       :     3.338463  s :     3.338463
      pz      :     0.882121  p :     2.901920
      px      :     0.887229
      py      :     1.132570

 55 C s       :     3.346319  s :     3.346319
      pz      :     1.110147  p :     3.280009
      px      :     1.008657
      py      :     1.161205

 56 C s       :     3.311585  s :     3.311585
      pz      :     0.915406  p :     2.886365
      px      :     1.094617
      py      :     0.876342

 57 H s       :     0.777161  s :     0.777161

 58 H s       :     0.779489  s :     0.779489

 59 C s       :     3.341357  s :     3.341357
      pz      :     1.107781  p :     3.270755
      px      :     1.091557
      py      :     1.071417

 60 C s       :     3.343988  s :     3.343988
      pz      :     1.160994  p :     3.274344
      px      :     1.134876
      py      :     0.978474

 61 H s       :     0.801402  s :     0.801402

 62 H s       :     0.792847  s :     0.792847

 63 H s       :     0.797138  s :     0.797138

 64 H s       :     0.799254  s :     0.799254

 65 H s       :     0.802270  s :     0.802270

 66 H s       :     0.795692  s :     0.795692

 67 H s       :     0.794932  s :     0.794932

 68 H s       :     0.797046  s :     0.797046

 69 H s       :     0.802011  s :     0.802011

 70 H s       :     0.784636  s :     0.784636

 71 H s       :     0.808597  s :     0.808597

 72 H s       :     0.799054  s :     0.799054


------------------------
MULLIKEN OVERLAP CHARGES
------------------------
B(  0-C ,  1-C ) :   0.5245 B(  0-C ,  2-C ) :  -0.1801 B(  0-C ,  3-H ) :  -0.0796 
B(  0-C ,  4-H ) :  -0.0863 B(  0-C ,  5-C ) :   0.4158 B(  0-C ,  6-C ) :  -0.1416 
B(  0-C , 14-C ) :   0.9505 B(  0-C , 15-C ) :  -0.2023 B(  0-C , 18-C ) :  -0.1865 
B(  0-C , 19-H ) :  -0.0751 B(  1-C ,  2-C ) :   0.5266 B(  1-C ,  3-H ) :   0.8089 
B(  1-C ,  4-H ) :   0.7737 B(  1-C ,  5-C ) :  -0.1408 B(  1-C ,  7-C ) :  -0.1578 
B(  1-C , 12-O ) :  -0.1099 B(  1-C , 13-H ) :  -0.0573 B(  1-C , 14-C ) :  -0.1136 
B(  2-C ,  3-H ) :  -0.0591 B(  2-C ,  4-H ) :  -0.0535 B(  2-C ,  6-C ) :  -0.1580 
B(  2-C ,  7-C ) :   0.5150 B(  2-C , 10-H ) :  -0.0624 B(  2-C , 11-H ) :  -0.0697 
B(  2-C , 12-O ) :   0.6965 B(  2-C , 13-H ) :   0.8216 B(  2-C , 35-H ) :  -0.1151 
B(  5-C ,  6-C ) :   0.5301 B(  5-C ,  7-C ) :  -0.1575 B(  5-C ,  8-H ) :  -0.0730 
B(  5-C ,  9-H ) :  -0.0939 B(  5-C , 14-C ) :  -0.1992 B(  5-C , 15-C ) :   1.0621 
B(  5-C , 16-H ) :  -0.0996 B(  5-C , 17-H ) :  -0.0951 B(  6-C ,  7-C ) :   0.5527 
B(  6-C ,  8-H ) :   0.8228 B(  6-C ,  9-H ) :   0.7936 B(  6-C , 10-H ) :  -0.0741 
B(  6-C , 11-H ) :  -0.0561 B(  6-C , 15-C ) :  -0.1298 B(  7-C ,  9-H ) :  -0.0777 
B(  7-C , 10-H ) :   0.7763 B(  7-C , 11-H ) :   0.8044 B(  7-C , 12-O ) :  -0.1080 
B(  7-C , 13-H ) :  -0.0827 B( 12-O , 35-H ) :   0.6663 B( 14-C , 18-C ) :   0.6123 
B( 14-C , 19-H ) :   0.8212 B( 14-C , 20-C ) :  -0.1940 B( 14-C , 21-H ) :  -0.0738 
B( 15-C , 16-H ) :   0.8137 B( 15-C , 17-H ) :   0.8065 B( 18-C , 19-H ) :  -0.0601 
B( 18-C , 20-C ) :   0.9184 B( 18-C , 21-H ) :   0.8333 B( 18-C , 22-C ) :  -0.1510 
B( 18-C , 32-C ) :  -0.1500 B( 20-C , 21-H ) :  -0.0831 B( 20-C , 22-C ) :   0.5337 
B( 20-C , 23-C ) :  -0.1728 B( 20-C , 24-H ) :  -0.0673 B( 20-C , 25-H ) :  -0.0916 
B( 20-C , 29-C ) :  -0.1247 B( 20-C , 32-C ) :   0.5199 B( 20-C , 33-H ) :  -0.0908 
[...]
        0.0000         1.7758        0.0000
        0.0000         0.0000        1.7758

 Diagonalized JT*J matrix:
 
 J[55,60](FC)             1.776            1.776            1.776  iso=      1.776
                ---------------  ---------------  ---------------  ---------------
 J[55,60](Total)          1.776            1.776            1.776  iso=      1.776



-----------------------------------------------------------
 NUCLEUS A = C   56 NUCLEUS B = C   59 
 ( 13C  gnA =  1.405  13C  gnB =  1.405) r(AB) =     1.5313
-----------------------------------------------------------

Fermi-contact contribution to J (Hz):
       26.2258         0.0000        0.0000
        0.0000        26.2258        0.0000
        0.0000         0.0000       26.2258

Total spin-spin coupling tensor J (Hz):
       26.2258         0.0000        0.0000
        0.0000        26.2258        0.0000
        0.0000         0.0000       26.2258

 Diagonalized JT*J matrix:
 
 J[56,59](FC)            26.226           26.226           26.226  iso=     26.226
                ---------------  ---------------  ---------------  ---------------
 J[56,59](Total)         26.226           26.226           26.226  iso=     26.226



-----------------------------------------------------------
 NUCLEUS A = C   56 NUCLEUS B = C   60 
 ( 13C  gnA =  1.405  13C  gnB =  1.405) r(AB) =     1.5307
-----------------------------------------------------------

Fermi-contact contribution to J (Hz):
       26.3201         0.0000        0.0000
        0.0000        26.3201        0.0000
        0.0000         0.0000       26.3201

Total spin-spin coupling tensor J (Hz):
       26.3201         0.0000        0.0000
        0.0000        26.3201        0.0000
        0.0000         0.0000       26.3201

 Diagonalized JT*J matrix:
 
 J[56,60](FC)            26.320           26.320           26.320  iso=     26.320
                ---------------  ---------------  ---------------  ---------------
 J[56,60](Total)         26.320           26.320           26.320  iso=     26.320



-----------------------------------------------------------
 NUCLEUS A = C   59 NUCLEUS B = C   60 
 ( 13C  gnA =  1.405  13C  gnB =  1.405) r(AB) =     2.5133
-----------------------------------------------------------

Fermi-contact contribution to J (Hz):
       -0.8846         0.0000        0.0000
        0.0000        -0.8846        0.0000
        0.0000         0.0000       -0.8846

Total spin-spin coupling tensor J (Hz):
       -0.8846         0.0000        0.0000
        0.0000        -0.8846        0.0000
        0.0000         0.0000       -0.8846

 Diagonalized JT*J matrix:
 
 J[59,60](FC)            -0.885           -0.885           -0.885  iso=     -0.885
                ---------------  ---------------  ---------------  ---------------
 J[59,60](Total)         -0.885           -0.885           -0.885  iso=     -0.885



-----------------------------------------------------------------------------
                SUMMARY OF ISOTROPIC COUPLING CONSTANTS J (Hz)                
-----------------------------------------------------------------------------
                  0 C        1 C        2 C        5 C        6 C        7 C  
      0 C        0.000     33.110     -3.755     41.278     -0.892      2.282
      1 C       33.110      0.000     23.392     -1.203      1.442     -0.672
      2 C       -3.755     23.392      0.000      2.291     -2.771     25.902
      5 C       41.278     -1.203      2.291      0.000     30.359     -2.778
      6 C       -0.892      1.442     -2.771     30.359      0.000     24.817
      7 C        2.282     -0.672     25.902     -2.778     24.817      0.000
     14 C       69.381     -0.370      2.836     -3.011      2.176     -0.621
     15 C       -3.412      2.414     -0.863     64.595     -1.081      2.599
     18 C       -2.389      4.172     -1.097      3.187     -0.814      0.191
     20 C        6.810     -1.098      1.085     -1.382      0.605     -0.102
     22 C       -0.923      0.326     -0.330      0.422     -0.181      0.037
     23 C        0.826     -0.287      0.282     -0.343      0.153      0.000
     26 C       -0.095      0.040      0.000      0.049      0.000      0.000
     29 C        1.161     -0.364      0.000     -0.447      0.207      0.000
     32 C       -1.121      0.544     -0.375      0.471     -0.214      0.044
     34 C        0.022     -0.015      0.014     -0.015      0.005     -0.001
     36 C       -0.016      0.000      0.000      0.016     -0.008      0.000
     39 C       -0.071      0.000      0.000      0.030      0.000      0.000
     43 C        0.000      0.000      0.000      0.000      0.000      0.000
     44 C        0.010     -0.003      0.000     -0.002     -0.003      0.000
     49 C        0.000      0.000      0.000      0.000      0.000      0.000
     50 C        0.000      0.000      0.000      0.000      0.000      0.000
     51 C        0.000      0.000      0.000      0.000      0.000      0.000
     54 C        0.000      0.000      0.000      0.000      0.000      0.000
     55 C        0.000      0.000      0.000      0.000      0.000      0.000
     56 C        0.000      0.000      0.000      0.000      0.000      0.000
     59 C        0.000      0.000      0.000      0.000      0.000      0.000
     60 C        0.000      0.000      0.000      0.000      0.000      0.000
                 14 C       15 C       18 C       20 C       22 C       23 C  
      0 C       69.381     -3.412     -2.389      6.810     -0.923      0.826
      1 C       -0.370      2.414      4.172     -1.098      0.326     -0.287
      2 C        2.836     -0.863     -1.097      1.085     -0.330      0.282
      5 C       -3.011     64.595      3.187     -1.382      0.422     -0.343
      6 C        2.176     -1.081     -0.814      0.605     -0.181      0.153
      7 C       -0.621      2.599      0.191     -0.102      0.037      0.000
     14 C        0.000      3.104     54.102     -2.627      3.780     -0.926
     15 C        3.104      0.000     -1.144      1.005     -0.271      0.253
     18 C       54.102     -1.144      0.000     70.015     -2.152      2.363
     20 C       -2.627      1.005     70.015      0.000     32.147     -2.978
     22 C        3.780     -0.271     -2.152     32.147      0.000     24.198
     23 C       -0.926      0.253      2.363     -2.978     24.198      0.000
     26 C        0.137     -0.034     -0.352      1.029     -1.925     25.406
     29 C       -1.131      0.323      2.266     -2.430      1.055     -2.220
     32 C        4.383     -0.315     -1.297     36.861     -0.203      1.538
     34 C        0.069      0.003      2.476     -1.340      1.612     -0.267
     36 C        0.015     -0.014     -0.153      3.507      0.073      0.155
     39 C        0.257     -0.023     -0.054      2.927     -0.337      2.553
     43 C        0.007      0.017      0.274      0.205     -0.003     -0.110
     44 C        0.005      0.029     -0.049      0.702     -0.135      0.581
     49 C       -0.001      0.000     -0.009     -0.029      0.145      0.051
     50 C        0.000      0.000      0.003      0.219     -0.006      0.118
     51 C        0.000      0.000      0.000      0.068     -0.004      0.002
     54 C        0.000      0.000      0.000      0.000      0.000      0.000
     55 C        0.000      0.000      0.000      0.000      0.000      0.000
     56 C        0.000      0.000      0.000      0.000      0.000      0.000
     59 C        0.000      0.000      0.000      0.000      0.000      0.000
     60 C        0.000      0.000      0.000      0.000      0.000      0.000
                 26 C       29 C       32 C       34 C       36 C       39 C  
      0 C       -0.095      1.161     -1.121      0.022     -0.016     -0.071
      1 C        0.040     -0.364      0.544     -0.015      0.000      0.000
      2 C        0.000      0.000     -0.375      0.014      0.000      0.000
      5 C        0.049     -0.447      0.471     -0.015      0.016      0.030
      6 C        0.000      0.207     -0.214      0.005     -0.008      0.000
      7 C        0.000      0.000      0.044     -0.001      0.000      0.000
     14 C        0.137     -1.131      4.383      0.069      0.015      0.257
     15 C       -0.034      0.323     -0.315      0.003     -0.014     -0.023
     18 C       -0.352      2.266     -1.297      2.476     -0.153     -0.054
     20 C        1.029     -2.430     36.861     -1.340      3.507      2.927
     22 C       -1.925      1.055     -0.203      1.612      0.073     -0.337
     23 C       25.406     -2.220      1.538     -0.267      0.155      2.553
     26 C        0.000     27.875     -0.920      2.278      3.024     -0.545
     29 C       27.875      0.000     23.056      0.941      0.699     28.101
     32 C       -0.920     23.056      0.000     28.035      1.238      3.412
     34 C        2.278      0.941     28.035      0.000     26.086      0.012
     36 C        3.024      0.699      1.238     26.086      0.000     26.387
     39 C       -0.545     28.101      3.412      0.012     26.387      0.000
     43 C       -0.018     -0.684      2.828      1.525     -0.052     27.852
     44 C       -0.601     27.236     -0.993      0.815      0.277     -1.265
     49 C        0.447      0.121     -0.001      0.059      3.266     -1.054
     50 C       -0.070      3.020      0.017      0.109      1.481     -2.743
     51 C       -0.017      0.177      0.156     -0.037      0.074      2.907
     54 C       -0.003      0.110     -0.032      0.015      0.000     -0.786
     55 C       -0.002      0.023      0.000     -0.005      0.005      0.828
     56 C       -0.008      0.120      0.059     -0.006     -0.004      1.212
     59 C        0.000      0.000      0.000     -0.000     -0.003      0.100
     60 C        0.000     -0.005     -0.001      0.000      0.001     -0.034
                 43 C       44 C       49 C       50 C       51 C       54 C  
      0 C        0.000      0.010      0.000      0.000      0.000      0.000
      1 C        0.000     -0.003      0.000      0.000      0.000      0.000
      2 C        0.000      0.000      0.000      0.000      0.000      0.000
      5 C        0.000     -0.002      0.000      0.000      0.000      0.000
      6 C        0.000     -0.003      0.000      0.000      0.000      0.000
      7 C        0.000      0.000      0.000      0.000      0.000      0.000
     14 C        0.007      0.005     -0.001      0.000      0.000      0.000
     15 C        0.017      0.029      0.000      0.000      0.000      0.000
     18 C        0.274     -0.049     -0.009      0.003      0.000      0.000
     20 C        0.205      0.702     -0.029      0.219      0.068      0.000
     22 C       -0.003     -0.135      0.145     -0.006     -0.004      0.000
     23 C       -0.110      0.581      0.051      0.118      0.002      0.000
     26 C       -0.018     -0.601      0.447     -0.070     -0.017     -0.003
     29 C       -0.684     27.236      0.121      3.020      0.177      0.110
     32 C        2.828     -0.993     -0.001      0.017      0.156     -0.032
     34 C        1.525      0.815      0.059      0.109     -0.037      0.015
     36 C       -0.052      0.277      3.266      1.481      0.074      0.000
     39 C       27.852     -1.265     -1.054     -2.743      2.907     -0.786
     43 C        0.000      1.452     27.240     35.753     -1.454      3.799
     44 C        1.452      0.000     -0.040     -0.106      0.076      0.006
     49 C       27.240     -0.040      0.000     -1.942      3.233     -0.060
     50 C       35.753     -0.106     -1.942      0.000     69.142      0.011
     51 C       -1.454      0.076      3.233     69.142      0.000     36.695
     54 C        3.799      0.006     -0.060      0.011     36.695      0.000
     55 C       -0.602      0.006      0.024      3.417     -2.208     26.216
     56 C       -0.644     -0.007      0.034      3.266     -2.209     25.719
     59 C        0.074      0.000      0.021      0.001      3.054     -0.441
     60 C        0.030      0.000      0.004     -0.132      0.871     -1.647
                 55 C       56 C       59 C       60 C  
      0 C        0.000      0.000      0.000      0.000
      1 C        0.000      0.000      0.000      0.000
      2 C        0.000      0.000      0.000      0.000
      5 C        0.000      0.000      0.000      0.000
      6 C        0.000      0.000      0.000      0.000
      7 C        0.000      0.000      0.000      0.000
     14 C        0.000      0.000      0.000      0.000
     15 C        0.000      0.000      0.000      0.000
     18 C        0.000      0.000      0.000      0.000
     20 C        0.000      0.000      0.000      0.000
     22 C        0.000      0.000      0.000      0.000
     23 C        0.000      0.000      0.000      0.000
     26 C       -0.002     -0.008      0.000      0.000
     29 C        0.023      0.120      0.000     -0.005
     32 C        0.000      0.059      0.000     -0.001
     34 C       -0.005     -0.006     -0.000      0.000
     36 C        0.005     -0.004     -0.003      0.001
     39 C        0.828      1.212      0.100     -0.034
     43 C       -0.602     -0.644      0.074      0.030
     44 C        0.006     -0.007      0.000      0.000
     49 C        0.024      0.034      0.021      0.004
     50 C        3.417      3.266      0.001     -0.132
     51 C       -2.208     -2.209      3.054      0.871
     54 C       26.216     25.719     -0.441     -1.647
     55 C        0.000     -1.941      0.651      1.776
     56 C       -1.941      0.000     26.226     26.320
     59 C        0.651     26.226      0.000     -0.885
     60 C        1.776     26.320     -0.885      0.000

NMR spin-spin coupling calculation done in   0.3 sec 

Maximum memory used throughout the entire PROP-calculation: 34.0 MB

--------------------------------
SUGGESTED CITATIONS FOR THIS RUN
--------------------------------

Below you find a list of papers that are relevant to this ORCA run
We neither can nor want to force you to cite these papers, but we appreciate if you do
You receive ORCA, which is the product of decades of hard work by many enthusiastic individuals, for free
The only thing we kindly ask in return is that you cite our papers,
We deeply appreciate it, if you show your appreciation for ORCA by not just citing the generic ORCA reference.

Please note that relegating all ORCA citations to the supporting information does *not* help us.
SI sections are not indexed - citations you put there will not count into any citation statistics
But we need these citations in order to attract the funding resources that allow us to do what we are doing

Therefore, if you are a happy ORCA user, please consider citing a few of the papers listed below in the main body of your paper

In addition to the list printed below, the program has created the file inpJ.bibtex that contains the list in bibtex format
You can import this file easily into all common literature databanks and citation aid programs


List of essential papers. We consider these as the minimum necessary citations

  1. Neese,F.
     Software update: the ORCA program system, version 5.0
     WIRES Comput. Molec. Sci., 2022 12(1)e1606
     doi.org/10.1002/wcms.1606

List of papers to cite with high priority. The work reported in these papers was absolutely
necessary for this run to complete.
Our perspective: the developers of density functionals and basis sets usually get cited in chemistry papers
Good! But without the algorithms to do something with them, the functionals or basis sets would not do anything.
Hence, in our opinion, the algorithm design and method developments papers are equally worthy of getting cited

  1. Neese,F.
     An improvement of the resolution of the identity approximation for the formation of the Coulomb matrix
     J. Comp. Chem., 2003 24(14)1740-1747
     doi.org/10.1002/jcc.10318
  2. Neese,F.; Wennmohs,F.; Hansen,A.; Becker,U.
     Efficient, approximate and parallel Hartree-Fock and hybrid DFT calculations. A 'chain-of-spheres' algorithm for the Hartree-Fock exchange
     Chem. Phys., 2009 356(1-3)98-109
     doi.org/10.1016/j.chemphys.2008.10.036
  3. Stoychev,G.L.; Auer,A.A.; Izsak,R.; Neese,F.
     Self-Consistent Field Calculation of Nuclear Magnetic Resonance Chemical Shielding Constants Using Gauge-Including Atomic Orbitals and Approximate Two-Electron Integrals
     J. Chem. Theory Comput., 2018 14(2)619-637
     doi.org/10.1021/acs.jctc.7b01006
  4. Garcia-Rates,M.; Neese,F.
     Effect of the Solute Cavity on the Solvation Energy and its Derivatives within the Framework of the Gaussian Charge Scheme
     J. Comput. Chem., 2020 41 922-939
     doi.org/10.1002/jcc.26139
  5. Helmich-Paris,B.; de Souza,B.; Neese,F.; Izsák,R.
     An improved chain of spheres for exchange algorithm
     J. Chem. Phys., 2021 155 104109
     doi.org/doi: 10.1063/5.0058766.
  6. Neese,F.
     The SHARK Integral Generation and Digestion System
     J. Comp. Chem., 2022  1-16
     doi.org/10.1002/jcc.26942
  7. Grimme,S.; Bannwarth,C.; Dohm,S.; Hansen,A.; Pisarek,J.; Pracht,P.; Seibert,J.; Neese,F.
     Fully Automated Quantum-Chemistry-Based Computation of Spin-Spin-Coupled Nuclear Magnetic Resonance Spectra
     Angew. Chem., Int. Ed., 2017 56 14763-14769
     doi.org/10.1002/anie.201708266
  8. Caldeweyher,E.; Bannwarth,C.; Grimme,S.
     Extension of the D3 dispersion coefficient model
     J. Chem. Phys., 2017 147 034112-XXXX
     doi.org/10.1063/1.4993215
  9. Caldeweyher,E.; Ehlert,S.; Hansen,A.; Neugebauer,H.; Spicher,S.; Bannwarth,C.; Grimme,S.
     A generally applicable atomic-charge dependent London dispersion correction
     J. Chem. Phys., 2019 150 154122-XXXX
     doi.org/10.1063/1.5090222
 10. Caldeweyher,E.; Mewes,J.; Ehlert,S.; Grimme,S.
     Extension and evaluation of the D4 London-dispersion model for periodic systems
     Phys. Chem. Chem. Phys., 2020 22(16)8499-8512
     doi.org/10.1039/D0CP00502A

List of suggested additional citations. These are papers that are important in the 'surrounding' of 
of this run, or papers that preceded the highly important papers. If you like your results we are grateful for a citation.

  1. Izsak,R.; Neese,F.
     An overlap fitted chain of spheres exchange method
     J. Chem. Phys., 2011 135 144105
     doi.org/10.1063/1.3646921
  2. Izsak,R.; Hansen,A.; Neese,F.
     The resolution of identity and chain of spheres approximations for the LPNO-CCSD singles Fock term
     Molec. Phys., 2012 110 2413-2417
     doi.org/10.1080/00268976.2012.687466
  3. Neese,F.
     The ORCA program system
     WIRES Comput. Molec. Sci., 2012 2(1)73-78
     doi.org/10.1002/wcms.81
  4. Izsak,R.; Neese,F.; Klopper,W.
     Robust fitting techniques in the chain of spheres approximation to the Fock exchange: The role of the complementary space
     J. Chem. Phys., 2013 139 
     doi.org/10.1063/1.4819264
  5. Neese,F.
     Software update: the ORCA program system, version 4.0
     WIRES Comput. Molec. Sci., 2018 8(1)1-6
     doi.org/10.1002/wcms.1327
  6. Neese,F.; Wennmohs,F.; Becker,U.; Riplinger,C.
     The ORCA quantum chemistry program package
     J. Chem. Phys., 2020 152 Art. No. L224108
     doi.org/10.1063/5.0004608

Timings for individual modules:

Sum of individual times          ...      134.555 sec (=   2.243 min)
Startup calculation              ...        3.850 sec (=   0.064 min)   2.9 %
SCF iterations                   ...       18.764 sec (=   0.313 min)  13.9 %
Property integrals               ...        0.717 sec (=   0.012 min)   0.5 %
SCF Response                     ...      110.681 sec (=   1.845 min)  82.3 %
Property calculations            ...        0.543 sec (=   0.009 min)   0.4 %
                             ****ORCA TERMINATED NORMALLY****
TOTAL RUN TIME: 0 days 0 hours 2 minutes 14 seconds 830 msec
