
                                 *****************
                                 * O   R   C   A *
                                 *****************

                                            #,                                       
                                            ###                                      
                                            ####                                     
                                            #####                                    
                                            ######                                   
                                           ########,                                 
                                     ,,################,,,,,                         
                               ,,#################################,,                 
                          ,,##########################################,,             
                       ,#########################################, ''#####,          
                    ,#############################################,,   '####,        
                  ,##################################################,,,,####,       
                ,###########''''           ''''###############################       
              ,#####''   ,,,,##########,,,,          '''####'''          '####       
            ,##' ,,,,###########################,,,                        '##       
           ' ,,###''''                  '''############,,,                           
         ,,##''                                '''############,,,,        ,,,,,,###''
      ,#''                                            '''#######################'''  
     '                                                          ''''####''''         
             ,#######,   #######,   ,#######,      ##                                
            ,#'     '#,  ##    ##  ,#'     '#,    #''#        ######   ,####,        
            ##       ##  ##   ,#'  ##            #'  '#       #        #'  '#        
            ##       ##  #######   ##           ,######,      #####,   #    #        
            '#,     ,#'  ##    ##  '#,     ,#' ,#      #,         ##   #,  ,#        
             '#######'   ##     ##  '#######'  #'      '#     #####' # '####'        



                  #######################################################
                  #                        -***-                        #
                  #          Department of theory and spectroscopy      #
                  #    Directorship and core code : Frank Neese         #
                  #        Max Planck Institute fuer Kohlenforschung    #
                  #                Kaiser Wilhelm Platz 1               #
                  #                 D-45470 Muelheim/Ruhr               #
                  #                      Germany                        #
                  #                                                     #
                  #                  All rights reserved                #
                  #                        -***-                        #
                  #######################################################


                         Program Version 5.0.2 -  RELEASE  -


 With contributions from (in alphabetic order):
   Daniel Aravena         : Magnetic Suceptibility
   Michael Atanasov       : Ab Initio Ligand Field Theory (pilot matlab implementation)
   Alexander A. Auer      : GIAO ZORA, VPT2 properties, NMR spectrum
   Ute Becker             : Parallelization
   Giovanni Bistoni       : ED, misc. LED, open-shell LED, HFLD
   Martin Brehm           : Molecular dynamics
   Dmytro Bykov           : SCF Hessian
   Vijay G. Chilkuri      : MRCI spin determinant printing, contributions to CSF-ICE
   Dipayan Datta          : RHF DLPNO-CCSD density
   Achintya Kumar Dutta   : EOM-CC, STEOM-CC
   Dmitry Ganyushin       : Spin-Orbit,Spin-Spin,Magnetic field MRCI
   Miquel Garcia          : C-PCM and meta-GGA Hessian, CC/C-PCM, Gaussian charge scheme
   Yang Guo               : DLPNO-NEVPT2, F12-NEVPT2, CIM, IAO-localization
   Andreas Hansen         : Spin unrestricted coupled pair/coupled cluster methods
   Benjamin Helmich-Paris : MC-RPA, TRAH-SCF, COSX integrals
   Lee Huntington         : MR-EOM, pCC
   Robert Izsak           : Overlap fitted RIJCOSX, COSX-SCS-MP3, EOM
   Marcus Kettner         : VPT2
   Christian Kollmar      : KDIIS, OOCD, Brueckner-CCSD(T), CCSD density, CASPT2, CASPT2-K
   Simone Kossmann        : Meta GGA functionals, TD-DFT gradient, OOMP2, MP2 Hessian
   Martin Krupicka        : Initial AUTO-CI
   Lucas Lang             : DCDCAS
   Marvin Lechner         : AUTO-CI (C++ implementation), FIC-MRCC
   Dagmar Lenk            : GEPOL surface, SMD
   Dimitrios Liakos       : Extrapolation schemes; Compound Job, initial MDCI parallelization
   Dimitrios Manganas     : Further ROCIS development; embedding schemes
   Dimitrios Pantazis     : SARC Basis sets
   Anastasios Papadopoulos: AUTO-CI, single reference methods and gradients
   Taras Petrenko         : DFT Hessian,TD-DFT gradient, ASA, ECA, R-Raman, ABS, FL, XAS/XES, NRVS
   Peter Pinski           : DLPNO-MP2, DLPNO-MP2 Gradient
   Christoph Reimann      : Effective Core Potentials
   Marius Retegan         : Local ZFS, SOC
   Christoph Riplinger    : Optimizer, TS searches, QM/MM, DLPNO-CCSD(T), (RO)-DLPNO pert. Triples
   Tobias Risthaus        : Range-separated hybrids, TD-DFT gradient, RPA, STAB
   Michael Roemelt        : Original ROCIS implementation
   Masaaki Saitow         : Open-shell DLPNO-CCSD energy and density
   Barbara Sandhoefer     : DKH picture change effects
   Avijit Sen             : IP-ROCIS
   Kantharuban Sivalingam : CASSCF convergence, NEVPT2, FIC-MRCI
   Bernardo de Souza      : ESD, SOC TD-DFT
   Georgi Stoychev        : AutoAux, RI-MP2 NMR, DLPNO-MP2 response
   Willem Van den Heuvel  : Paramagnetic NMR
   Boris Wezisla          : Elementary symmetry handling
   Frank Wennmohs         : Technical directorship


 We gratefully acknowledge several colleagues who have allowed us to
 interface, adapt or use parts of their codes:
   Stefan Grimme, W. Hujo, H. Kruse, P. Pracht,  : VdW corrections, initial TS optimization,
                  C. Bannwarth, S. Ehlert          DFT functionals, gCP, sTDA/sTD-DF
   Ed Valeev, F. Pavosevic, A. Kumar             : LibInt (2-el integral package), F12 methods
   Garnet Chan, S. Sharma, J. Yang, R. Olivares  : DMRG
   Ulf Ekstrom                                   : XCFun DFT Library
   Mihaly Kallay                                 : mrcc  (arbitrary order and MRCC methods)
   Jiri Pittner, Ondrej Demel                    : Mk-CCSD
   Frank Weinhold                                : gennbo (NPA and NBO analysis)
   Christopher J. Cramer and Donald G. Truhlar   : smd solvation model
   Lars Goerigk                                  : TD-DFT with DH, B97 family of functionals
   V. Asgeirsson, H. Jonsson                     : NEB implementation
   FAccTs GmbH                                   : IRC, NEB, NEB-TS, DLPNO-Multilevel, CI-OPT
                                                   MM, QMMM, 2- and 3-layer-ONIOM, Crystal-QMMM,
                                                   LR-CPCM, SF, NACMEs, symmetry and pop. for TD-DFT,
                                                   nearIR, NL-DFT gradient (VV10), updates on ESD,
                                                   ML-optimized integration grids
   S Lehtola, MJT Oliveira, MAL Marques          : LibXC Library
   Liviu Ungur et al                             : ANISO software


 Your calculation uses the libint2 library for the computation of 2-el integrals
 For citations please refer to: http://libint.valeyev.net

 Your ORCA version has been built with support for libXC version: 5.1.0
 For citations please refer to: https://tddft.org/programs/libxc/

 This ORCA versions uses:
   CBLAS   interface :  Fast vector & matrix operations
   LAPACKE interface :  Fast linear algebra routines
   SCALAPACK package :  Parallel linear algebra routines
   Shared memory     :  Shared parallel matrices
   BLAS/LAPACK       :  OpenBLAS 0.3.15  USE64BITINT DYNAMIC_ARCH NO_AFFINITY Zen SINGLE_THREADED
        Core in use  :  Zen
   Copyright (c) 2011-2014, The OpenBLAS Project


Your calculation utilizes the atom-pairwise dispersion correction
based on tight binding partial charges (D4)
Cite in your paper:
E.Caldeweyher, C.Bannwarth, S.Grimme, J.Chem.Phys., (2017), 147, 034112.
E.Caldeweyher, S.Ehlert, A.Hansen, H.Neugebauer, S.Grimme, J.Chem.Phys., (2018), in progress.
   

================================================================================

----- Orbital basis set information -----
Your calculation utilizes the basis: pcJ-0
   F. Jensen, Theor. Chem. Acc. 126, 371 (2010).

----- AuxJ basis set information -----
Your calculation utilizes the auxiliary basis: def2/J
   F. Weigend, Phys. Chem. Chem. Phys. 8, 1057 (2006).

================================================================================
                                        WARNINGS
                       Please study these warnings very carefully!
================================================================================


INFO   : the flag for use of the SHARK integral package has been found!

================================================================================
                                       INPUT FILE
================================================================================
NAME = inpJ
|  1> ! pbe0
|  2> ! D4
|  3> ! pcJ-0
|  4> ! def2/J RIJCOSX
|  5> ! DEFGRID2
|  6> ! scfconv7
|  7> ! smallprint printgap noloewdin
|  8> ! NOSOSCF
|  9> %MaxCore 4000
| 10> %output
| 11>        print[P_BondOrder_M] 1
| 12>        print[P_Mayer] 1
| 13>        print[P_basis] 2
| 14> end
| 15> %pal
| 16>     nprocs 4
| 17> end
| 18> ! CPCM(chloroform)
| 19> *xyz 0 1
| 20> C   -5.0492570300   0.3352656400   0.3096650700
| 21> C   -6.4583702600  -0.0817239500  -0.0400744900
| 22> C   -6.9895123900   0.6794581300  -1.2607971900
| 23> H   -7.1288010000   0.1487346900   0.8053205000
| 24> H   -6.5089150600  -1.1609062500  -0.2218786800
| 25> C   -4.8597200800   1.7972169100   0.4202479400
| 26> C   -5.4372710700   2.5917923000  -0.7293653300
| 27> C   -6.8851140100   2.1832711000  -1.0330698400
| 28> H   -4.8272405600   2.3996160500  -1.6251069800
| 29> H   -5.3755138400   3.6642390100  -0.5165196800
| 30> H   -7.2525795900   2.7172790000  -1.9172966200
| 31> H   -7.5317214300   2.4566450900  -0.1855706400
| 32> O   -8.3292011900   0.2800137100  -1.5787976200
| 33> H   -6.3953836200   0.4016220000  -2.1426465300
| 34> C   -4.0677191100  -0.5863801700   0.4536039200
| 35> C   -4.2685685400   2.3858282400   1.4663063300
| 36> H   -3.8818094800   1.8045736000   2.2986779900
| 37> H   -4.1691279100   3.4675447700   1.5163752500
| 38> C   -2.6679135800  -0.3210547600   0.6917179900
| 39> H   -4.3661905300  -1.6272849900   0.3367746800
| 40> C   -1.7036012000  -1.2414515400   0.9074578000
| 41> H   -2.3736536400   0.7259777200   0.6826356500
| 42> C   -1.9141081000  -2.7316512500   0.9999941700
| 43> C   -0.9762004300  -3.5019592800   0.0515950400
| 44> H   -2.9522632600  -3.0175016100   0.8099924400
| 45> H   -1.6849652100  -3.0393991300   2.0328922400
| 46> C    0.4925329500  -3.0836270400   0.2043107300
| 47> H   -1.3020176800  -3.3400354600  -0.9836639800
| 48> H   -1.0736787900  -4.5774412500   0.2442077700
| 49> C    0.6723787400  -1.5666412200   0.0539728400
| 50> H    1.0961301100  -3.6312190300  -0.5269462000
| 51> H    0.8510496300  -3.3789160100   1.2020332500
| 52> C   -0.2627427900  -0.8786043700   1.0986865200
| 53> H    0.0402663500  -1.3149151700   2.0685944100
| 54> C    0.1899395700   0.5785362700   1.1026168000
| 55> H   -8.8890699200   0.5128464300  -0.8260540100
| 56> C    1.7221083900   0.4824738100   0.8982763500
| 57> H   -0.0855098100   1.0932834400   2.0291534800
| 58> H   -0.2728161100   1.1305880000   0.2769000200
| 59> C    2.0416523200  -0.9929327700   0.5121719700
| 60> H    2.2739218300   0.7734731600   1.7977052600
| 61> H    2.0541020700   1.1581302800   0.1011809800
| 62> H    2.3169508900  -1.5428821800   1.4271983300
| 63> C    3.2466057100  -1.0774371800  -0.4464796800
| 64> C    0.3362228600  -1.1089744800  -1.3715935800
| 65> H   -0.7271472000  -1.2406308800  -1.5943045600
| 66> H    0.9090805000  -1.6839958300  -2.1075550700
| 67> H    0.5724108900  -0.0506857000  -1.5210070400
| 68> H    3.0072904300  -0.5058802000  -1.3555119800
| 69> C    3.6073509400  -2.5153183600  -0.8490890200
| 70> C    4.4438840400  -0.4360899000   0.2054642600
| 71> C    5.1192792600   0.5987041400  -0.2929915600
| 72> H    4.7530806200  -0.8969413300   1.1459491800
| 73> H    4.7719271600   1.0201583900  -1.2410887800
| 74> C    6.3251217300   1.2969695100   0.2874507400
| 75> C    7.3898643200   1.4632728200  -0.8105109300
| 76> C    6.8784443000   0.6646355400   1.5825834300
| 77> H    5.9890042900   2.3139558600   0.5548733200
| 78> H    6.0120982200   0.4467421700   2.2237727400
| 79> C    7.7637649600   1.6498460400   2.3521906800
| 80> C    7.6351510000  -0.6453232000   1.3378178800
| 81> H    6.9805478300   2.0300612300  -1.6535923300
| 82> H    7.7174700300   0.4902369900  -1.1914368300
| 83> H    8.2684459700   2.0016029200  -0.4410803300
| 84> H    8.0940899100   1.2104068500   3.3001467400
| 85> H    7.2239201600   2.5763651700   2.5785570500
| 86> H    8.6622570900   1.9113533900   1.7813085800
| 87> H    8.5934514700  -0.4535788600   0.8414834100
| 88> H    7.0650787300  -1.3383359500   0.7108653300
| 89> H    7.8510710600  -1.1449809600   2.2887168000
| 90> H    4.5418141800  -2.5244795200  -1.4203879800
| 91> H    2.8303591300  -2.9697909100  -1.4689608300
| 92> H    3.7464911200  -3.1442165300   0.0389191000
| 93> *
| 94> %eprnmr
| 95>  Nuclei = all H { ssfc }
| 96>  SpinSpinRThresh 8.0
| 97> end
| 98> 
| 99>                          ****END OF INPUT****
================================================================================

                       ****************************
                       * Single Point Calculation *
                       ****************************

---------------------------------
CARTESIAN COORDINATES (ANGSTROEM)
---------------------------------
  C     -5.049257    0.335266    0.309665
  C     -6.458370   -0.081724   -0.040074
  C     -6.989512    0.679458   -1.260797
  H     -7.128801    0.148735    0.805320
  H     -6.508915   -1.160906   -0.221879
  C     -4.859720    1.797217    0.420248
  C     -5.437271    2.591792   -0.729365
  C     -6.885114    2.183271   -1.033070
  H     -4.827241    2.399616   -1.625107
  H     -5.375514    3.664239   -0.516520
  H     -7.252580    2.717279   -1.917297
  H     -7.531721    2.456645   -0.185571
  O     -8.329201    0.280014   -1.578798
  H     -6.395384    0.401622   -2.142647
  C     -4.067719   -0.586380    0.453604
  C     -4.268569    2.385828    1.466306
  H     -3.881809    1.804574    2.298678
  H     -4.169128    3.467545    1.516375
  C     -2.667914   -0.321055    0.691718
  H     -4.366191   -1.627285    0.336775
  C     -1.703601   -1.241452    0.907458
  H     -2.373654    0.725978    0.682636
  C     -1.914108   -2.731651    0.999994
  C     -0.976200   -3.501959    0.051595
  H     -2.952263   -3.017502    0.809992
  H     -1.684965   -3.039399    2.032892
  C      0.492533   -3.083627    0.204311
  H     -1.302018   -3.340035   -0.983664
  H     -1.073679   -4.577441    0.244208
  C      0.672379   -1.566641    0.053973
  H      1.096130   -3.631219   -0.526946
  H      0.851050   -3.378916    1.202033
  C     -0.262743   -0.878604    1.098687
  H      0.040266   -1.314915    2.068594
  C      0.189940    0.578536    1.102617
  H     -8.889070    0.512846   -0.826054
  C      1.722108    0.482474    0.898276
  H     -0.085510    1.093283    2.029153
  H     -0.272816    1.130588    0.276900
  C      2.041652   -0.992933    0.512172
  H      2.273922    0.773473    1.797705
  H      2.054102    1.158130    0.101181
  H      2.316951   -1.542882    1.427198
  C      3.246606   -1.077437   -0.446480
  C      0.336223   -1.108974   -1.371594
  H     -0.727147   -1.240631   -1.594305
  H      0.909080   -1.683996   -2.107555
  H      0.572411   -0.050686   -1.521007
  H      3.007290   -0.505880   -1.355512
  C      3.607351   -2.515318   -0.849089
  C      4.443884   -0.436090    0.205464
  C      5.119279    0.598704   -0.292992
  H      4.753081   -0.896941    1.145949
  H      4.771927    1.020158   -1.241089
  C      6.325122    1.296970    0.287451
  C      7.389864    1.463273   -0.810511
  C      6.878444    0.664636    1.582583
  H      5.989004    2.313956    0.554873
  H      6.012098    0.446742    2.223773
  C      7.763765    1.649846    2.352191
  C      7.635151   -0.645323    1.337818
  H      6.980548    2.030061   -1.653592
  H      7.717470    0.490237   -1.191437
  H      8.268446    2.001603   -0.441080
  H      8.094090    1.210407    3.300147
  H      7.223920    2.576365    2.578557
  H      8.662257    1.911353    1.781309
  H      8.593451   -0.453579    0.841483
  H      7.065079   -1.338336    0.710865
  H      7.851071   -1.144981    2.288717
  H      4.541814   -2.524480   -1.420388
  H      2.830359   -2.969791   -1.468961
  H      3.746491   -3.144217    0.038919

----------------------------
CARTESIAN COORDINATES (A.U.)
----------------------------
  NO LB      ZA    FRAG     MASS         X           Y           Z
   0 C     6.0000    0    12.011   -9.541713    0.633560    0.585182
   1 C     6.0000    0    12.011  -12.204551   -0.154436   -0.075730
   2 C     6.0000    0    12.011  -13.208264    1.283990   -2.382561
   3 H     1.0000    0     1.008  -13.471482    0.281068    1.521835
   4 H     1.0000    0     1.008  -12.300067   -2.193795   -0.419290
   5 C     6.0000    0    12.011   -9.183540    3.396248    0.794154
   6 C     6.0000    0    12.011  -10.274953    4.897778   -1.378301
   7 C     6.0000    0    12.011  -13.010980    4.125784   -1.952219
   8 H     1.0000    0     1.008   -9.122163    4.534617   -3.071007
   9 H     1.0000    0     1.008  -10.158249    6.924408   -0.976081
  10 H     1.0000    0     1.008  -13.705389    5.134913   -3.623166
  11 H     1.0000    0     1.008  -14.232891    4.642386   -0.350678
  12 O     8.0000    0    15.999  -15.739909    0.529149   -2.983495
  13 H     1.0000    0     1.008  -12.085524    0.758956   -4.049015
  14 C     6.0000    0    12.011   -7.686875   -1.108098    0.857187
  15 C     6.0000    0    12.011   -8.066426    4.508562    2.770917
  16 H     1.0000    0     1.008   -7.335557    3.410150    4.343872
  17 H     1.0000    0     1.008   -7.878510    6.552710    2.865534
  18 C     6.0000    0    12.011   -5.041626   -0.606706    1.307158
  19 H     1.0000    0     1.008   -8.250904   -3.075123    0.636412
  20 C     6.0000    0    12.011   -3.219340   -2.346003    1.714847
  21 H     1.0000    0     1.008   -4.485555    1.371899    1.289994
  22 C     6.0000    0    12.011   -3.617140   -5.162073    1.889715
  23 C     6.0000    0    12.011   -1.844751   -6.617744    0.097500
  24 H     1.0000    0     1.008   -5.578969   -5.702252    1.530664
  25 H     1.0000    0     1.008   -3.184123   -5.743632    3.841610
  26 C     6.0000    0    12.011    0.930752   -5.827211    0.386091
  27 H     1.0000    0     1.008   -2.460457   -6.311752   -1.858856
  28 H     1.0000    0     1.008   -2.028959   -8.650110    0.461486
  29 C     6.0000    0    12.011    1.270612   -2.960523    0.101994
  30 H     1.0000    0     1.008    2.071386   -6.862009   -0.995784
  31 H     1.0000    0     1.008    1.608251   -6.385226    2.271514
  32 C     6.0000    0    12.011   -0.496512   -1.660322    2.076217
  33 H     1.0000    0     1.008    0.076092   -2.484830    3.909077
  34 C     6.0000    0    12.011    0.358934    1.093275    2.083644
  35 H     1.0000    0     1.008  -16.797908    0.969139   -1.561016
  36 C     6.0000    0    12.011    3.254313    0.911743    1.697496
  37 H     1.0000    0     1.008   -0.161590    2.066006    3.834544
  38 H     1.0000    0     1.008   -0.515548    2.136502    0.523265
  39 C     6.0000    0    12.011    3.858164   -1.876371    0.967865
  40 H     1.0000    0     1.008    4.297090    1.461652    3.397171
  41 H     1.0000    0     1.008    3.881690    2.188549    0.191204
  42 H     1.0000    0     1.008    4.378403   -2.915625    2.697014
  43 C     6.0000    0    12.011    6.135196   -2.036061   -0.843724
  44 C     6.0000    0    12.011    0.635369   -2.095658   -2.591936
  45 H     1.0000    0     1.008   -1.374109   -2.344453   -3.012799
  46 H     1.0000    0     1.008    1.717913   -3.182291   -3.982702
  47 H     1.0000    0     1.008    1.081700   -0.095782   -2.874287
  48 H     1.0000    0     1.008    5.682955   -0.955975   -2.561546
  49 C     6.0000    0    12.011    6.816905   -4.753263   -1.604546
  50 C     6.0000    0    12.011    8.397724   -0.824090    0.388271
  51 C     6.0000    0    12.011    9.674036    1.131387   -0.553674
  52 H     1.0000    0     1.008    8.982021   -1.694973    2.165530
  53 H     1.0000    0     1.008    9.017635    1.927820   -2.345318
  54 C     6.0000    0    12.011   11.952748    2.450917    0.543203
  55 C     6.0000    0    12.011   13.964820    2.765185   -1.531644
  56 C     6.0000    0    12.011   12.998376    1.255979    2.990649
  57 H     1.0000    0     1.008   11.317578    4.372743    1.048559
  58 H     1.0000    0     1.008   11.361219    0.844220    4.202321
  59 C     6.0000    0    12.011   14.671390    3.117757    4.444996
  60 C     6.0000    0    12.011   14.428344   -1.219484    2.528109
  61 H     1.0000    0     1.008   13.191324    3.836260   -3.124837
  62 H     1.0000    0     1.008   14.583905    0.926414   -2.251489
  63 H     1.0000    0     1.008   15.625098    3.782481   -0.833521
  64 H     1.0000    0     1.008   15.295613    2.287337    6.236374
  65 H     1.0000    0     1.008   13.651231    4.868625    4.872767
  66 H     1.0000    0     1.008   16.369294    3.611934    3.366185
  67 H     1.0000    0     1.008   16.239270   -0.857140    1.590173
  68 H     1.0000    0     1.008   13.351064   -2.529088    1.343341
  69 H     1.0000    0     1.008   14.836374   -2.163700    4.325048
  70 H     1.0000    0     1.008    8.582785   -4.770575   -2.684144
  71 H     1.0000    0     1.008    5.348604   -5.612091   -2.775934
  72 H     1.0000    0     1.008    7.079842   -5.941708    0.073546

--------------------------------
INTERNAL COORDINATES (ANGSTROEM)
--------------------------------
 C      0   0   0     0.000000000000     0.00000000     0.00000000
 C      1   0   0     1.510562204266     0.00000000     0.00000000
 C      2   1   0     1.533516883334   111.73890249     0.00000000
 H      2   1   3     1.103304695451   109.37677375   241.45782138
 H      2   1   3     1.095555556301   110.69437543   122.88129406
 C      1   2   3     1.478328225533   114.19917856    50.51635035
 C      6   1   2     1.512126273498   114.44431429   312.11740747
 C      3   2   1     1.524536721901   110.30343171   304.96769973
 H      7   6   1     1.100646190989   108.37803312   289.82160228
 H      7   6   1     1.095106922620   110.19957777   172.64536676
 H      8   3   2     1.096381497571   109.69550939   179.11899799
 H      8   3   2     1.100495064963   108.65279224   296.55086231
 O      3   2   1     1.433682740007   111.21806437   180.28237329
 H      3   2   1     1.099017820116   109.02669813    65.11806576
 C      1   2   3     1.354092345458   120.85771076   232.66903311
 C      6   1   2     1.337969206050   123.37969370   129.95066666
 H     16   6   1     1.086407891809   121.39446625     0.63723846
 H     16   6   1     1.087430911332   120.93184335   181.33299309
 C     15   1   2     1.444490015660   126.50884768   175.33522582
 H     15   1   2     1.089135943845   116.13245550   357.97124352
 C     19  15   1     1.350397076594   126.38073881   176.11762462
 H     19  15   1     1.087634320608   115.95268176   355.38724483
 C     21  19  15     1.507836632532   125.71214589   357.22083093
 C     23  21  19     1.540294182392   111.80555592   127.65008509
 H     23  21  19     1.093424538754   112.34956674     3.53176963
 H     23  21  19     1.101859176434   107.72977911   246.29946229
 C     24  23  21     1.534764374919   112.65215896    50.93803460
 H     24  23  21     1.097331965438   109.04450415   288.84545192
 H     24  23  21     1.096933526802   109.15331720   172.87617616
 C     27  24  23     1.534989240168   111.82370506   306.18195074
 H     27  24  23     1.094953522642   108.95160258   182.65292909
 H     27  24  23     1.100536238639   109.19740123    66.15751387
 C     21  19  15     1.498098611506   122.82827398   177.77680750
 H     33  21  19     1.105849432882   106.25607449   124.15788768
 C     33  21  19     1.525842590471   121.12921497     1.95448388
 H     13   3   2     0.966585233040   107.54172226    62.61694243
 C     35  33  21     1.548716987932   103.52872225   196.32124656
 H     35  33  21     1.095128864267   112.11261671    74.29431279
 H     35  33  21     1.095770109440   110.72528236   314.71457309
 C     30  27  24     1.553704593937   116.05884446   166.25047670
 H     37  35  33     1.094600867170   111.95204846   249.34369045
 H     37  35  33     1.096399789259   110.93244647   130.76054361
 H     40  30  27     1.102500292834   106.29797653   320.80937216
 C     40  30  27     1.542098133528   119.01612556    81.59684745
 C     30  27  24     1.534502928766   111.10473300   294.17279300
 H     45  30  27     1.094390000310   111.47106182    66.61407843
 H     45  30  27     1.095652656377   110.66843302   306.45931059
 H     45  30  27     1.094570376640   111.58666418   186.62935067
 H     44  40  30     1.100131313558   108.37439616    61.46384072
 C     44  40  30     1.536142470418   113.43568688   300.63753146
 C     44  40  30     1.506596373935   109.18481548   178.89078982
 C     51  44  40     1.332447227064   124.85731495   239.07850245
 H     51  44  40     1.092015773862   114.71095607    60.04532435
 H     52  51  44     1.094150585975   117.54079760     0.66394707
 C     52  51  44     1.509484631597   128.33955293   180.20855947
 C     55  52  51     1.538458125093   109.17419551   132.23774804
 C     55  52  51     1.543820197042   114.79872674     3.82850596
 H     55  52  51     1.103970563852   106.02559800   246.61419676
 H     57  55  52     1.099616652420   106.73564807   315.26961574
 C     57  55  52     1.531903299685   111.41826401   198.97170121
 C     57  55  52     1.532483965591   113.14761100    74.20101663
 H     56  55  52     1.095251266935   110.28285939    58.03632799
 H     56  55  52     1.095093041243   111.05379884   298.73642039
 H     56  55  52     1.094615905466   111.57948606   177.78058503
 H     60  57  55     1.095829396389   110.54236525   176.23175600
 H     60  57  55     1.095952480635   111.27193707    56.24546587
 H     60  57  55     1.096166307581   111.43774218   295.59210678
 H     61  57  55     1.096108383708   110.76217807    71.16865744
 H     61  57  55     1.094677379248   112.05401706   310.67256041
 H     61  57  55     1.095667881019   110.39588118   190.10173777
 H     50  44  40     1.095302686686   110.17488361   187.33197529
 H     50  44  40     1.092933041107   111.77272408    67.38442442
 H     50  44  40     1.097010172745   110.74695183   306.76796958

---------------------------
INTERNAL COORDINATES (A.U.)
---------------------------
 C      0   0   0     0.000000000000     0.00000000     0.00000000
 C      1   0   0     2.854548874316     0.00000000     0.00000000
 C      2   1   0     2.897926931245   111.73890249     0.00000000
 H      2   1   3     2.084943716672   109.37677375   241.45782138
 H      2   1   3     2.070299965905   110.69437543   122.88129406
 C      1   2   3     2.793635482303   114.19917856    50.51635035
 C      6   1   2     2.857504536819   114.44431429   312.11740747
 C      3   2   1     2.880956885499   110.30343171   304.96769973
 H      7   6   1     2.079919871314   108.37803312   289.82160228
 H      7   6   1     2.069452171114   110.19957777   172.64536676
 H      8   3   2     2.071860768708   109.69550939   179.11899799
 H      8   3   2     2.079634284512   108.65279224   296.55086231
 O      3   2   1     2.709267741544   111.21806437   180.28237329
 H      3   2   1     2.076842696319   109.02669813    65.11806576
 C      1   2   3     2.558863692955   120.85771076   232.66903311
 C      6   1   2     2.528395375055   123.37969370   129.95066666
 H     16   6   1     2.053013385250   121.39446625     0.63723846
 H     16   6   1     2.054946611978   120.93184335   181.33299309
 C     15   1   2     2.729690532782   126.50884768   175.33522582
 H     15   1   2     2.058168656477   116.13245550   357.97124352
 C     19  15   1     2.551880646811   126.38073881   176.11762462
 H     19  15   1     2.055330999802   115.95268176   355.38724483
 C     21  19  15     2.849398290179   125.71214589   357.22083093
 C     23  21  19     2.910734170394   111.80555592   127.65008509
 H     23  21  19     2.066272926355   112.34956674     3.53176963
 H     23  21  19     2.082212081608   107.72977911   246.29946229
 C     24  23  21     2.900284348697   112.65215896    50.93803460
 H     24  23  21     2.073656892676   109.04450415   288.84545192
 H     24  23  21     2.072903952771   109.15331720   172.87617616
 C     27  24  23     2.900709282433   111.82370506   306.18195074
 H     27  24  23     2.069162287165   108.95160258   182.65292909
 H     27  24  23     2.079712091483   109.19740123    66.15751387
 C     21  19  15     2.830996097355   122.82827398   177.77680750
 H     33  21  19     2.089752573498   106.25607449   124.15788768
 C     33  21  19     2.883424619463   121.12921497     1.95448388
 H     13   3   2     1.826581375537   107.54172226    62.61694243
 C     35  33  21     2.926650966142   103.52872225   196.32124656
 H     35  33  21     2.069493634817   112.11261671    74.29431279
 H     35  33  21     2.070705412578   110.72528236   314.71457309
 C     30  27  24     2.936076175556   116.05884446   166.25047670
 H     37  35  33     2.068495864904   111.95204846   249.34369045
 H     37  35  33     2.071895334989   110.93244647   130.76054361
 H     40  30  27     2.083423616024   106.29797653   320.80937216
 C     40  30  27     2.914143143999   119.01612556    81.59684745
 C     30  27  24     2.899790287068   111.10473300   294.17279300
 H     45  30  27     2.068097384287   111.47106182    66.61407843
 H     45  30  27     2.070483458455   110.66843302   306.45931059
 H     45  30  27     2.068438246153   111.58666418   186.62935067
 H     44  40  30     2.078946893976   108.37439616    61.46384072
 C     44  40  30     2.902888571775   113.43568688   300.63753146
 C     44  40  30     2.847054541096   109.18481548   178.89078982
 C     51  44  40     2.517960347054   124.85731495   239.07850245
 H     51  44  40     2.063610746522   114.71095607    60.04532435
 H     52  51  44     2.067644956762   117.54079760     0.66394707
 C     52  51  44     2.852512557081   128.33955293   180.20855947
 C     55  52  51     2.907264524933   109.17419551   132.23774804
 C     55  52  51     2.917397372425   114.79872674     3.82850596
 H     55  52  51     2.086202025591   106.02559800   246.61419676
 H     57  55  52     2.077974325373   106.73564807   315.26961574
 C     57  55  52     2.894877700055   111.41826401   198.97170121
 C     57  55  52     2.895974999593   113.14761100    74.20101663
 H     56  55  52     2.069724942337   110.28285939    58.03632799
 H     56  55  52     2.069425939113   111.05379884   298.73642039
 H     56  55  52     2.068524283165   111.57948606   177.78058503
 H     60  57  55     2.070817448676   110.54236525   176.23175600
 H     60  57  55     2.071050044192   111.27193707    56.24546587
 H     60  57  55     2.071454118560   111.43774218   295.59210678
 H     61  57  55     2.071344658303   110.76217807    71.16865744
 H     61  57  55     2.068640451777   112.05401706   310.67256041
 H     61  57  55     2.070512228859   110.39588118   190.10173777
 H     50  44  40     2.069822111584   110.17488361   187.33197529
 H     50  44  40     2.065344130406   111.77272408    67.38442442
 H     50  44  40     2.073048792613   110.74695183   306.76796958

---------------------
BASIS SET INFORMATION
---------------------
There are 3 groups of distinct atoms

 Group   1 Type C   : 7s4p contracted to 4s3p pattern {4111/211}
 Group   2 Type H   : 5s contracted to 3s pattern {311}
 Group   3 Type O   : 7s4p contracted to 4s3p pattern {4111/211}

Atom   0C    basis set group =>   1
Atom   1C    basis set group =>   1
Atom   2C    basis set group =>   1
Atom   3H    basis set group =>   2
Atom   4H    basis set group =>   2
Atom   5C    basis set group =>   1
Atom   6C    basis set group =>   1
Atom   7C    basis set group =>   1
Atom   8H    basis set group =>   2
Atom   9H    basis set group =>   2
Atom  10H    basis set group =>   2
Atom  11H    basis set group =>   2
Atom  12O    basis set group =>   3
Atom  13H    basis set group =>   2
Atom  14C    basis set group =>   1
Atom  15C    basis set group =>   1
Atom  16H    basis set group =>   2
Atom  17H    basis set group =>   2
Atom  18C    basis set group =>   1
Atom  19H    basis set group =>   2
Atom  20C    basis set group =>   1
Atom  21H    basis set group =>   2
Atom  22C    basis set group =>   1
Atom  23C    basis set group =>   1
Atom  24H    basis set group =>   2
Atom  25H    basis set group =>   2
Atom  26C    basis set group =>   1
Atom  27H    basis set group =>   2
Atom  28H    basis set group =>   2
Atom  29C    basis set group =>   1
Atom  30H    basis set group =>   2
Atom  31H    basis set group =>   2
Atom  32C    basis set group =>   1
Atom  33H    basis set group =>   2
Atom  34C    basis set group =>   1
Atom  35H    basis set group =>   2
Atom  36C    basis set group =>   1
Atom  37H    basis set group =>   2
Atom  38H    basis set group =>   2
Atom  39C    basis set group =>   1
Atom  40H    basis set group =>   2
Atom  41H    basis set group =>   2
Atom  42H    basis set group =>   2
Atom  43C    basis set group =>   1
Atom  44C    basis set group =>   1
Atom  45H    basis set group =>   2
Atom  46H    basis set group =>   2
Atom  47H    basis set group =>   2
Atom  48H    basis set group =>   2
Atom  49C    basis set group =>   1
Atom  50C    basis set group =>   1
Atom  51C    basis set group =>   1
Atom  52H    basis set group =>   2
Atom  53H    basis set group =>   2
Atom  54C    basis set group =>   1
Atom  55C    basis set group =>   1
Atom  56C    basis set group =>   1
Atom  57H    basis set group =>   2
Atom  58H    basis set group =>   2
Atom  59C    basis set group =>   1
Atom  60C    basis set group =>   1
Atom  61H    basis set group =>   2
Atom  62H    basis set group =>   2
Atom  63H    basis set group =>   2
Atom  64H    basis set group =>   2
Atom  65H    basis set group =>   2
Atom  66H    basis set group =>   2
Atom  67H    basis set group =>   2
Atom  68H    basis set group =>   2
Atom  69H    basis set group =>   2
Atom  70H    basis set group =>   2
Atom  71H    basis set group =>   2
Atom  72H    basis set group =>   2

-------------------------
BASIS SET IN INPUT FORMAT
-------------------------

 # Basis set for element : H 
 NewGTO H 
 S 3 
   1    1357.7500000000      0.0012928364
   2      54.3100000000      0.0588280685
   3       4.3448000000      0.9761499708
 S 1 
   1       0.6604910000      1.0000000000
 S 1 
   1       0.1366870000      1.0000000000
  end;

 # Basis set for element : C 
 NewGTO C 
 S 4 
   1  139534.0000000000      0.0001655246
   2    5581.3600000000      0.0074486101
   3     446.5090000000      0.1285821065
   4      67.4620000000      0.9218029311
 S 1 
   1      15.0674000000      1.0000000000
 S 1 
   1       3.9387600000      1.0000000000
 S 1 
   1       0.2999150000      1.0000000000
 P 2 
   1      28.3900000000      0.0816325586
   2       4.3676900000      0.9660360576
 P 1 
   1       0.8698170000      1.0000000000
 P 1 
   1       0.1889340000      1.0000000000
  end;

 # Basis set for element : O 
 NewGTO O 
 S 4 
   1  253789.0000000000      0.0001641076
   2   10151.6000000000      0.0074010921
   3     812.1250000000      0.1277711901
   4     122.6930000000      0.9223372164
 S 1 
   1      27.5608000000      1.0000000000
 S 1 
   1       7.3172600000      1.0000000000
 S 1 
   1       0.5792400000      1.0000000000
 P 2 
   1      53.4157000000      0.0793786106
   2       8.2177900000      0.9670506337
 P 1 
   1       1.6754400000      1.0000000000
 P 1 
   1       0.3506720000      1.0000000000
  end;

---------------------------------
AUXILIARY/J BASIS SET INFORMATION
---------------------------------
There are 3 groups of distinct atoms

 Group   1 Type C   : 12s5p4d2f1g contracted to 6s4p3d1f1g pattern {711111/2111/211/2/1}
 Group   2 Type H   : 5s2p1d contracted to 3s1p1d pattern {311/2/1}
 Group   3 Type O   : 12s5p4d2f1g contracted to 6s4p3d1f1g pattern {711111/2111/211/2/1}

Atom   0C    basis set group =>   1
Atom   1C    basis set group =>   1
Atom   2C    basis set group =>   1
Atom   3H    basis set group =>   2
Atom   4H    basis set group =>   2
Atom   5C    basis set group =>   1
Atom   6C    basis set group =>   1
Atom   7C    basis set group =>   1
Atom   8H    basis set group =>   2
Atom   9H    basis set group =>   2
Atom  10H    basis set group =>   2
Atom  11H    basis set group =>   2
Atom  12O    basis set group =>   3
Atom  13H    basis set group =>   2
Atom  14C    basis set group =>   1
Atom  15C    basis set group =>   1
Atom  16H    basis set group =>   2
Atom  17H    basis set group =>   2
Atom  18C    basis set group =>   1
Atom  19H    basis set group =>   2
Atom  20C    basis set group =>   1
Atom  21H    basis set group =>   2
Atom  22C    basis set group =>   1
Atom  23C    basis set group =>   1
Atom  24H    basis set group =>   2
Atom  25H    basis set group =>   2
Atom  26C    basis set group =>   1
Atom  27H    basis set group =>   2
Atom  28H    basis set group =>   2
Atom  29C    basis set group =>   1
Atom  30H    basis set group =>   2
Atom  31H    basis set group =>   2
Atom  32C    basis set group =>   1
Atom  33H    basis set group =>   2
Atom  34C    basis set group =>   1
Atom  35H    basis set group =>   2
Atom  36C    basis set group =>   1
Atom  37H    basis set group =>   2
Atom  38H    basis set group =>   2
Atom  39C    basis set group =>   1
Atom  40H    basis set group =>   2
Atom  41H    basis set group =>   2
Atom  42H    basis set group =>   2
Atom  43C    basis set group =>   1
Atom  44C    basis set group =>   1
Atom  45H    basis set group =>   2
Atom  46H    basis set group =>   2
Atom  47H    basis set group =>   2
Atom  48H    basis set group =>   2
Atom  49C    basis set group =>   1
Atom  50C    basis set group =>   1
Atom  51C    basis set group =>   1
Atom  52H    basis set group =>   2
Atom  53H    basis set group =>   2
Atom  54C    basis set group =>   1
Atom  55C    basis set group =>   1
Atom  56C    basis set group =>   1
Atom  57H    basis set group =>   2
Atom  58H    basis set group =>   2
Atom  59C    basis set group =>   1
Atom  60C    basis set group =>   1
Atom  61H    basis set group =>   2
Atom  62H    basis set group =>   2
Atom  63H    basis set group =>   2
Atom  64H    basis set group =>   2
Atom  65H    basis set group =>   2
Atom  66H    basis set group =>   2
Atom  67H    basis set group =>   2
Atom  68H    basis set group =>   2
Atom  69H    basis set group =>   2
Atom  70H    basis set group =>   2
Atom  71H    basis set group =>   2
Atom  72H    basis set group =>   2

-------------------------------------
AUXILIARY/J BASIS SET IN INPUT FORMAT
-------------------------------------

 # Auxiliary/J basis set for element : H 
 NewAuxJGTO H 
 S 3 
   1      15.6752927000      0.1007184237
   2       3.6063578000      0.3404257499
   3       1.2080016000      0.6491996172
 S 1 
   1       0.4726794000      1.0000000000
 S 1 
   1       0.2018100000      1.0000000000
 P 2 
   1       2.0281365000      0.5596620919
   2       0.5358730000      0.5596620919
 D 1 
   1       2.2165124000      1.0000000000
  end;

 # Auxiliary/J basis set for element : C 
 NewAuxJGTO C 
 S 7 
   1    1861.0916331000      0.0134602335
   2     642.9939764000      0.0299160374
   3     235.1105725000      0.1008649584
   4      90.7028894000      0.2370970548
   5      36.7794552000      0.3924037254
   6      15.6046273000      0.3195862154
   7       6.8907294000      0.0530104441
 S 1 
   1       3.1478850000     -1.0000000000
 S 1 
   1       1.4777287000      1.0000000000
 S 1 
   1       0.7076466000      1.0000000000
 S 1 
   1       0.3430122000      1.0000000000
 S 1 
   1       0.1669453000      1.0000000000
 P 2 
   1      13.5472892000     -0.6769313712
   2       5.4669419000     -0.3779500978
 P 1 
   1       2.1751721000      1.0000000000
 P 1 
   1       0.8582194000      1.0000000000
 P 1 
   1       0.3376720000      1.0000000000
 D 2 
   1       5.9287253000     -0.3533329857
   2       1.9809209000     -0.7456525731
 D 1 
   1       0.8055417000     -1.0000000000
 D 1 
   1       0.3531244000     -1.0000000000
 F 2 
   1       1.6755626000      0.6311076882
   2       0.5997536000      0.4968166032
 G 1 
   1       1.0024600000     -1.0000000000
  end;

 # Auxiliary/J basis set for element : O 
 NewAuxJGTO O 
 S 7 
   1    2876.8216605000      0.0168151159
   2    1004.7443032000      0.0340137548
   3     369.7579954000      0.1194951309
   4     142.9442404000      0.2664627624
   5      57.8366425000      0.4202764046
   6      24.3864983000      0.2765077335
   7      10.6622662000      0.0057008815
 S 1 
   1       4.8070437000     -1.0000000000
 S 1 
   1       2.2210770000      1.0000000000
 S 1 
   1       1.0447795000      1.0000000000
 S 1 
   1       0.4968425000      1.0000000000
 S 1 
   1       0.2371384000      1.0000000000
 P 2 
   1      64.2613382000     -0.2731534179
   2      16.3006076000     -0.8168011598
 P 1 
   1       4.3550542000      1.0000000000
 P 1 
   1       1.2019554000      1.0000000000
 P 1 
   1       0.3354196000      1.0000000000
 D 2 
   1       9.2146611000     -0.4661230638
   2       2.8435251000     -0.6600908911
 D 1 
   1       0.9955759000     -1.0000000000
 D 1 
   1       0.3649441000     -1.0000000000
 F 2 
   1       2.6420115000      0.5931563945
   2       0.7345613000      0.5931563945
 G 1 
   1       1.3931000000     -1.0000000000
  end;



           ************************************************************
           *        Program running with 4 parallel MPI-processes     *
           *              working on a common directory               *
           ************************************************************
------------------------------------------------------------------------------
                           ORCA GTO INTEGRAL CALCULATION
                           -- RI-GTO INTEGRALS CHOSEN --
------------------------------------------------------------------------------
------------------------------------------------------------------------------
                   ___                                                        
                  /   \      - P O W E R E D   B Y -                         
                 /     \                                                     
                 |  |  |   _    _      __       _____    __    __             
                 |  |  |  | |  | |    /  \     |  _  \  |  |  /  |          
                  \  \/   | |  | |   /    \    | | | |  |  | /  /          
                 / \  \   | |__| |  /  /\  \   | |_| |  |  |/  /          
                |  |  |   |  __  | /  /__\  \  |    /   |      \           
                |  |  |   | |  | | |   __   |  |    \   |  |\   \          
                \     /   | |  | | |  |  |  |  | |\  \  |  | \   \       
                 \___/    |_|  |_| |__|  |__|  |_| \__\ |__|  \__/        
                                                                              
                      - O R C A' S   B I G   F R I E N D -                    
                                      &                                       
                       - I N T E G R A L  F E E D E R -                       
                                                                              
 v1 FN, 2020, v2 2021                                                         
------------------------------------------------------------------------------


Reading SHARK input file inpJ.SHARKINP.tmp ... ok
----------------------
SHARK INTEGRAL PACKAGE
----------------------

Number of atoms                             ...     73
Number of basis functions                   ...    509
Number of shells                            ...    335
Maximum angular momentum                    ...      1
Integral batch strategy                     ... SHARK/LIBINT Hybrid
RI-J (if used) integral strategy            ... SPLIT-RIJ (Revised 2003 algorithm where possible)
Printlevel                                  ...      1
Contraction scheme used                     ... SEGMENTED contraction
Coulomb Range Separation                    ... NOT USED
Exchange Range Separation                   ... NOT USED
Finite Nucleus Model                        ... NOT USED
Auxiliary Coulomb fitting basis             ... AVAILABLE
   # of basis functions in Aux-J            ...   1905
   # of shells in Aux-J                     ...    655
   Maximum angular momentum in Aux-J        ...      4
Auxiliary J/K fitting basis                 ... NOT available
Auxiliary Correlation fitting basis         ... NOT available
Auxiliary 'external' fitting basis          ... NOT available
Integral threshold                          ...     3.000000e-11
Primitive cut-off                           ...     1.000000e-12
Primitive pair pre-selection threshold      ...     1.000000e-12

Calculating pre-screening integrals         ... done (  0.0 sec) Dimension = 335
Organizing shell pair data                  ... done (  0.1 sec)
Shell pair information
Total number of shell pairs                 ...     56280
Shell pairs after pre-screening             ...     21520
Total number of primitive shell pairs       ...    145865
Primitive shell pairs kept                  ...     37028
          la=0 lb=0:  10820 shell pairs
          la=1 lb=0:   8857 shell pairs
          la=1 lb=1:   1843 shell pairs

Calculating one electron integrals          ... done (  0.0 sec)
Calculating RI/J V-Matrix + Cholesky decomp.... done (  0.2 sec)
Calculating Nuclear repulsion               ... done (  0.0 sec) ENN=   2757.275562566319 Eh

SHARK setup successfully completed in   0.5 seconds

Maximum memory used throughout the entire GTOINT-calculation: 46.1 MB


           ************************************************************
           *        Program running with 4 parallel MPI-processes     *
           *              working on a common directory               *
           ************************************************************
-------------------------------------------------------------------------------
                                 ORCA SCF
-------------------------------------------------------------------------------

------------
SCF SETTINGS
------------
Hamiltonian:
 Density Functional     Method          .... DFT(GTOs)
 Exchange Functional    Exchange        .... PBE
   PBE kappa parameter   XKappa         ....  0.804000
   PBE mue parameter    XMuePBE         ....  0.219520
 Correlation Functional Correlation     .... PBE
   PBE beta parameter  CBetaPBE         ....  0.066725
 LDA part of GGA corr.  LDAOpt          .... PW91-LDA
 Gradients option       PostSCFGGA      .... off
 Hybrid DFT is turned on
   Fraction HF Exchange ScalHFX         ....  0.250000
   Scaling of DF-GGA-X  ScalDFX         ....  0.750000
   Scaling of DF-GGA-C  ScalDFC         ....  1.000000
   Scaling of DF-LDA-C  ScalLDAC        ....  1.000000
   Perturbative correction              ....  0.000000
   Density functional embedding theory  .... OFF
   NL short-range parameter             ....  6.900000
 RI-approximation to the Coulomb term is turned on
   Number of AuxJ basis functions       .... 1905
   RIJ-COSX (HFX calculated with COS-X)).... on


General Settings:
 Integral files         IntName         .... inpJ
 Hartree-Fock type      HFTyp           .... RHF
 Total Charge           Charge          ....    0
 Multiplicity           Mult            ....    1
 Number of Electrons    NEL             ....  220
 Basis Dimension        Dim             ....  509
 Nuclear Repulsion      ENuc            ....   2757.2755625663 Eh

Convergence Acceleration:
 DIIS                   CNVDIIS         .... on
   Start iteration      DIISMaxIt       ....    12
   Startup error        DIISStart       ....  0.200000
   # of expansion vecs  DIISMaxEq       ....     5
   Bias factor          DIISBfac        ....   1.050
   Max. coefficient     DIISMaxC        ....  10.000
 Trust-Rad. Augm. Hess. CNVTRAH         .... auto
   Auto Start mean grad. ratio tolernc. ....  1.125000
   Auto Start start iteration           ....    20
   Auto Start num. interpolation iter.  ....    10
   Max. Number of Micro iterations      ....    16
   Max. Number of Macro iterations      .... Maxiter - #DIIS iter
   Number of Davidson start vectors     ....     2
   Converg. threshold I  (grad. norm)   ....   1.000e-04
   Converg. threshold II (energy diff.) ....   1.000e-07
   Grad. Scal. Fac. for Micro threshold ....   0.100
   Minimum threshold for Micro iter.    ....   0.010
   NR start threshold (gradient norm)   ....   0.001
   Initial trust radius                 ....   0.400
   Minimum AH scaling param. (alpha)    ....   1.000
   Maximum AH scaling param. (alpha)    .... 1000.000
   Orbital update algorithm             .... Taylor
   White noise on init. David. guess    .... on
   Maximum white noise                  ....   0.010
   Quad. conv. algorithm                .... NR
 SOSCF                  CNVSOSCF        .... off
 Level Shifting         CNVShift        .... on
   Level shift para.    LevelShift      ....    0.2500
   Turn off err/grad.   ShiftErr        ....    0.0010
 Zerner damping         CNVZerner       .... off
 Static damping         CNVDamp         .... on
   Fraction old density DampFac         ....    0.7000
   Max. Damping (<1)    DampMax         ....    0.9800
   Min. Damping (>=0)   DampMin         ....    0.0000
   Turn off err/grad.   DampErr         ....    0.1000
 Fernandez-Rico         CNVRico         .... off

SCF Procedure:
 Maximum # iterations   MaxIter         ....   125
 SCF integral mode      SCFMode         .... Direct
   Integral package                     .... SHARK and LIBINT hybrid scheme
 Reset frequency        DirectResetFreq ....    20
 Integral Threshold     Thresh          ....  3.000e-11 Eh
 Primitive CutOff       TCut            ....  1.000e-12 Eh

Convergence Tolerance:
 Convergence Check Mode ConvCheckMode   .... Total+1el-Energy
 Convergence forced     ConvForced      .... 0
 Energy Change          TolE            ....  1.000e-07 Eh
 1-El. energy change                    ....  1.000e-04 Eh
 DIIS Error             TolErr          ....  1.000e-07


Diagonalization of the overlap matrix:
Smallest eigenvalue                        ... 7.545e-03
Time for diagonalization                   ...    0.035 sec
Threshold for overlap eigenvalues          ... 1.000e-08
Number of eigenvalues below threshold      ... 0
Time for construction of square roots      ...    0.029 sec
Total time needed                          ...    0.065 sec

Time for model grid setup =    0.806 sec

------------------------------
INITIAL GUESS: MODEL POTENTIAL
------------------------------
Loading Hartree-Fock densities                     ... done
Calculating cut-offs                               ... done
Initializing the effective Hamiltonian             ... done
Setting up the integral package (SHARK)            ... done
Starting the Coulomb interaction                   ... done (   0.5 sec)
Reading the grid                                   ... done
Mapping shells                                     ... done
Starting the XC term evaluation                    ... done (   0.2 sec)
  promolecular density results
     # of electrons  =    219.986009771
     EX              =   -164.432475461
     EC              =     -7.324361904
     EX+EC           =   -171.756837365
Transforming the Hamiltonian                       ... done (   0.0 sec)
Diagonalizing the Hamiltonian                      ... done (   0.0 sec)
Back transforming the eigenvectors                 ... done (   0.0 sec)
Now organizing SCF variables                       ... done
                      ------------------
                      INITIAL GUESS DONE (   1.5 sec)
                      ------------------
-------------------
DFT GRID GENERATION
-------------------

General Integration Accuracy     IntAcc      ... 4.388
Radial Grid Type                 RadialGrid  ... OptM3 with GC (2021)
Angular Grid (max. ang.)         AngularGrid ... 4 (Lebedev-302)
Angular grid pruning method      GridPruning ... 4 (adaptive)
Weight generation scheme         WeightScheme... Becke
Basis function cutoff            BFCut       ... 1.0000e-11
Integration weight cutoff        WCut        ... 1.0000e-14
Angular grids for H and He will be reduced by one unit
Partially contracted basis set               ... off
Rotationally invariant grid construction     ... off

Total number of grid points                  ...   310007
Total number of batches                      ...     4880
Average number of points per batch           ...       63
Average number of grid points per atom       ...     4247
Time for grid setup =    2.882 sec

--------------------
COSX GRID GENERATION
--------------------

GRIDX 1
-------
General Integration Accuracy     IntAcc      ... 3.816
Radial Grid Type                 RadialGrid  ... OptM3 with GC (2021)
Angular Grid (max. ang.)         AngularGrid ... 1 (Lebedev-50)
Angular grid pruning method      GridPruning ... 4 (adaptive)
Weight generation scheme         WeightScheme... Becke
Basis function cutoff            BFCut       ... 1.0000e-11
Integration weight cutoff        WCut        ... 1.0000e-14
Angular grids for H and He will be reduced by one unit
Partially contracted basis set               ... on
Rotationally invariant grid construction     ... off

Total number of grid points                  ...    39435
Total number of batches                      ...      658
Average number of points per batch           ...       59
Average number of grid points per atom       ...      540
UseSFitting                                  ... on

GRIDX 2
-------
General Integration Accuracy     IntAcc      ... 4.020
Radial Grid Type                 RadialGrid  ... OptM3 with GC (2021)
Angular Grid (max. ang.)         AngularGrid ... 2 (Lebedev-110)
Angular grid pruning method      GridPruning ... 4 (adaptive)
Weight generation scheme         WeightScheme... Becke
Basis function cutoff            BFCut       ... 1.0000e-11
Integration weight cutoff        WCut        ... 1.0000e-14
Angular grids for H and He will be reduced by one unit
Partially contracted basis set               ... on
Rotationally invariant grid construction     ... off

Total number of grid points                  ...    81493
Total number of batches                      ...     1312
Average number of points per batch           ...       62
Average number of grid points per atom       ...     1116
UseSFitting                                  ... on

GRIDX 3
-------
General Integration Accuracy     IntAcc      ... 4.338
Radial Grid Type                 RadialGrid  ... OptM3 with GC (2021)
Angular Grid (max. ang.)         AngularGrid ... 3 (Lebedev-194)
Angular grid pruning method      GridPruning ... 4 (adaptive)
Weight generation scheme         WeightScheme... Becke
Basis function cutoff            BFCut       ... 1.0000e-11
Integration weight cutoff        WCut        ... 1.0000e-14
Angular grids for H and He will be reduced by one unit
Partially contracted basis set               ... on
Rotationally invariant grid construction     ... off

Total number of grid points                  ...   176441
Total number of batches                      ...     2796
Average number of points per batch           ...       63
Average number of grid points per atom       ...     2417
UseSFitting                                  ... on

Time for X-Grid setup             =    2.719 sec


--------------------
CPCM SOLVATION MODEL
--------------------
CPCM parameters:
  Epsilon                                         ...       4.9000
  Refrac                                          ...       1.4500
  Rsolv                                           ...       1.3000
  Surface type                                    ... GAUSSIAN VDW
  Epsilon function type                           ...         CPCM
Radii:
 Radius for C  used is    3.8550 Bohr (=   2.0400 Ang.)
 Radius for H  used is    2.4944 Bohr (=   1.3200 Ang.)
 Radius for O  used is    3.4469 Bohr (=   1.8240 Ang.)
Calculating surface                               ...        done! (  0.0s)
GEPOL surface points                              ...         3652
GEPOL Volume                                      ...    3603.5464
GEPOL Surface-area                                ...    1791.5392
Calculating surface distance matrix               ...        done! (  0.1s)
Performing Cholesky decomposition & store         ...        done! (  0.5s)
Overall time for CPCM initialization              ...                 0.6s
--------------
SCF ITERATIONS
--------------
ITER       Energy         Delta-E        Max-DP      RMS-DP      [F,P]     Damp
               ***  Starting incremental Fock matrix formation  ***

  HOMO= 109 E= -3.883 eV LUMO=  7.790 eV gap=  11.673 eV
  0  -1165.0073120431   0.000000000000 0.09769725  0.00106209  0.1933840 0.7000

  HOMO= 109 E= -4.733 eV LUMO=  7.094 eV gap=  11.826 eV
  1  -1165.2261703890  -0.218858345885 0.06551584  0.00078215  0.0940322 0.7000
                               ***Turning on DIIS***

  HOMO= 109 E= -5.332 eV LUMO=  6.536 eV gap=  11.868 eV
  2  -1165.3271273686  -0.100956979597 0.10349779  0.00138605  0.0376748 0.0000

  HOMO= 109 E= -5.900 eV LUMO=  5.992 eV gap=  11.892 eV
  3  -1165.4714910968  -0.144363728152 0.05169805  0.00057067  0.0453098 0.0000

  HOMO= 109 E= -5.981 eV LUMO=  5.912 eV gap=  11.892 eV
  4  -1165.5070745783  -0.035583481505 0.01172431  0.00013492  0.0061939 0.0000

  HOMO= 109 E= -5.927 eV LUMO=  5.973 eV gap=  11.900 eV
  5  -1165.5079416105  -0.000867032230 0.00280664  0.00003814  0.0043361 0.0000

  HOMO= 109 E= -5.914 eV LUMO=  5.986 eV gap=  11.900 eV
  6  -1165.5080186203  -0.000077009856 0.00115311  0.00001163  0.0010683 0.0000

  HOMO= 109 E= -5.915 eV LUMO= -0.818 eV gap=   5.097 eV
  7  -1165.5080235736  -0.000004953213 0.00049451  0.00000596  0.0002263 0.0000
               *** Restarting incremental Fock matrix formation ***
                                   *** Resetting DIIS ***

  HOMO= 109 E= -5.914 eV LUMO= -0.817 eV gap=   5.098 eV
  8  -1165.5081183945  -0.000094820924 0.00040777  0.00000275  0.0001151 0.0000

  HOMO= 109 E= -5.915 eV LUMO= -0.817 eV gap=   5.098 eV
  9  -1165.5081184489  -0.000000054435 0.00013569  0.00000122  0.0001504 0.0000

  HOMO= 109 E= -5.915 eV LUMO= -0.817 eV gap=   5.098 eV
 10  -1165.5081185632  -0.000000114262 0.00006440  0.00000041  0.0000401 0.0000

  HOMO= 109 E= -5.915 eV LUMO= -0.817 eV gap=   5.098 eV
 11  -1165.5081185928  -0.000000029602 0.00002435  0.00000017  0.0000217 0.0000

  HOMO= 109 E= -5.915 eV LUMO= -0.817 eV gap=   5.098 eV
 12  -1165.5081185748   0.000000017977 0.00000731  0.00000005  0.0000038 0.0000
                 **** Energy Check signals convergence ****

               *****************************************************
               *                     SUCCESS                       *
               *           SCF CONVERGED AFTER  13 CYCLES          *
               *****************************************************

Old exchange energy                            =    -42.067470786 Eh
New exchange energy                            =    -42.067535855 Eh
Exchange energy change after final integration =     -0.000065068 Eh
Total energy after final integration           =  -1165.508183647 Eh
Final COS-X integration done in                =    13.161 sec

----------------
TOTAL SCF ENERGY
----------------

Total Energy       :        -1165.50818365 Eh          -31715.09004 eV

Components:
Nuclear Repulsion  :         2757.27556257 Eh           75029.28247 eV
Electronic Energy  :        -3922.78374621 Eh         -106744.37251 eV
One Electron Energy:        -7056.61380620 Eh         -192020.22379 eV
Two Electron Energy:         3133.83005998 Eh           85275.85127 eV
Max COSX asymmetry :            0.00000172 Eh               0.00005 eV
CPCM Dielectric    :           -0.01539373 Eh              -0.41888 eV

Virial components:
Potential Energy   :        -2322.41012133 Eh          -63195.99222 eV
Kinetic Energy     :         1156.90193768 Eh           31480.90218 eV
Virial Ratio       :            2.00743905


DFT components:
N(Alpha)           :      110.000142871844 electrons
N(Beta)            :      110.000142871844 electrons
N(Total)           :      220.000285743688 electrons
E(X)               :     -125.745508727687 Eh       
E(C)               :       -7.326238526317 Eh       
E(XC)              :     -133.071747254004 Eh       
DFET-embed. en.    :        0.000000000000 Eh       
CPCM Solvation Model Properties:
Surface-charge          :           -0.03455727
Charge-correction       :           -0.00005781 Eh              -0.00157 eV
Free-energy (cav+disp)  :  This term is not implemented in the current solvation scheme

---------------
SCF CONVERGENCE
---------------

  Last Energy change         ...   -3.2958e-09  Tolerance :   1.0000e-07
  Last MAX-Density change    ...    0.0000e+00  Tolerance :   1.0000e-05
  Last RMS-Density change    ...    0.0000e+00  Tolerance :   1.0000e-06
  Last DIIS Error            ...    2.5608e-06  Tolerance :   1.0000e-07

             **** THE GBW FILE WAS UPDATED (inpJ.gbw) ****
             **** DENSITY inpJ.scfp WAS UPDATED ****
             **** ENERGY FILE WAS UPDATED (inpJ.en.tmp) ****
             **** THE GBW FILE WAS UPDATED (inpJ.gbw) ****
             **** DENSITY inpJ.scfp WAS UPDATED ****
----------------
ORBITAL ENERGIES
----------------

  NO   OCC          E(Eh)            E(eV) 
   0   2.0000     -19.214977      -522.8661 
   1   2.0000     -10.301266      -280.3117 
   2   2.0000     -10.269378      -279.4440 
   3   2.0000     -10.266575      -279.3677 
   4   2.0000     -10.261633      -279.2332 
   5   2.0000     -10.255981      -279.0794 
   6   2.0000     -10.253233      -279.0047 
   7   2.0000     -10.251725      -278.9636 
   8   2.0000     -10.249745      -278.9097 
   9   2.0000     -10.249147      -278.8935 
  10   2.0000     -10.247379      -278.8454 
  11   2.0000     -10.245959      -278.8067 
  12   2.0000     -10.245169      -278.7852 
  13   2.0000     -10.245119      -278.7839 
  14   2.0000     -10.244466      -278.7661 
  15   2.0000     -10.243796      -278.7479 
  16   2.0000     -10.242935      -278.7244 
  17   2.0000     -10.242787      -278.7204 
  18   2.0000     -10.241781      -278.6930 
  19   2.0000     -10.240928      -278.6698 
  20   2.0000     -10.239004      -278.6175 
  21   2.0000     -10.233707      -278.4733 
  22   2.0000     -10.233480      -278.4671 
  23   2.0000     -10.232430      -278.4386 
  24   2.0000     -10.226487      -278.2769 
  25   2.0000     -10.225650      -278.2541 
  26   2.0000     -10.224728      -278.2290 
  27   2.0000     -10.222073      -278.1567 
  28   2.0000     -10.220115      -278.1035 
  29   2.0000      -1.045715       -28.4553 
  30   2.0000      -0.900481       -24.5033 
  31   2.0000      -0.883506       -24.0414 
  32   2.0000      -0.860064       -23.4035 
  33   2.0000      -0.845564       -23.0090 
  34   2.0000      -0.821919       -22.3655 
  35   2.0000      -0.813458       -22.1353 
  36   2.0000      -0.794737       -21.6259 
  37   2.0000      -0.794648       -21.6235 
  38   2.0000      -0.776361       -21.1259 
  39   2.0000      -0.757309       -20.6074 
  40   2.0000      -0.740993       -20.1634 
  41   2.0000      -0.734942       -19.9988 
  42   2.0000      -0.713435       -19.4135 
  43   2.0000      -0.702035       -19.1033 
  44   2.0000      -0.698927       -19.0188 
  45   2.0000      -0.693312       -18.8660 
  46   2.0000      -0.668817       -18.1994 
  47   2.0000      -0.661984       -18.0135 
  48   2.0000      -0.629814       -17.1381 
  49   2.0000      -0.621523       -16.9125 
  50   2.0000      -0.619279       -16.8514 
  51   2.0000      -0.606344       -16.4995 
  52   2.0000      -0.596583       -16.2339 
  53   2.0000      -0.588139       -16.0041 
  54   2.0000      -0.557733       -15.1767 
  55   2.0000      -0.546880       -14.8814 
  56   2.0000      -0.538630       -14.6569 
  57   2.0000      -0.529624       -14.4118 
  58   2.0000      -0.514921       -14.0117 
  59   2.0000      -0.507909       -13.8209 
  60   2.0000      -0.495637       -13.4870 
  61   2.0000      -0.492016       -13.3884 
  62   2.0000      -0.483670       -13.1613 
  63   2.0000      -0.479620       -13.0511 
  64   2.0000      -0.475863       -12.9489 
  65   2.0000      -0.474443       -12.9102 
  66   2.0000      -0.465193       -12.6585 
  67   2.0000      -0.458759       -12.4835 
  68   2.0000      -0.456830       -12.4310 
  69   2.0000      -0.450855       -12.2684 
  70   2.0000      -0.448164       -12.1952 
  71   2.0000      -0.438383       -11.9290 
  72   2.0000      -0.433209       -11.7882 
  73   2.0000      -0.430421       -11.7124 
  74   2.0000      -0.425434       -11.5766 
  75   2.0000      -0.416015       -11.3203 
  76   2.0000      -0.414082       -11.2677 
  77   2.0000      -0.410804       -11.1786 
  78   2.0000      -0.407557       -11.0902 
  79   2.0000      -0.404497       -11.0069 
  80   2.0000      -0.402185       -10.9440 
  81   2.0000      -0.401685       -10.9304 
  82   2.0000      -0.397658       -10.8208 
  83   2.0000      -0.389990       -10.6122 
  84   2.0000      -0.387397       -10.5416 
  85   2.0000      -0.385830       -10.4990 
  86   2.0000      -0.378603       -10.3023 
  87   2.0000      -0.376498       -10.2450 
  88   2.0000      -0.368793       -10.0354 
  89   2.0000      -0.367198        -9.9920 
  90   2.0000      -0.362843        -9.8734 
  91   2.0000      -0.357795        -9.7361 
  92   2.0000      -0.351892        -9.5755 
  93   2.0000      -0.343789        -9.3550 
  94   2.0000      -0.340439        -9.2638 
  95   2.0000      -0.338777        -9.2186 
  96   2.0000      -0.336835        -9.1657 
  97   2.0000      -0.332463        -9.0468 
  98   2.0000      -0.329944        -8.9782 
  99   2.0000      -0.329382        -8.9629 
 100   2.0000      -0.326156        -8.8752 
 101   2.0000      -0.319611        -8.6971 
 102   2.0000      -0.316435        -8.6106 
 103   2.0000      -0.316049        -8.6001 
 104   2.0000      -0.311332        -8.4718 
 105   2.0000      -0.299573        -8.1518 
 106   2.0000      -0.279887        -7.6161 
 107   2.0000      -0.274629        -7.4730 
 108   2.0000      -0.256609        -6.9827 
 109   2.0000      -0.217362        -5.9147 
 110   0.0000      -0.030011        -0.8166 
 111   0.0000       0.021445         0.5836 
 112   0.0000       0.028728         0.7817 
 113   0.0000       0.080783         2.1982 
 114   0.0000       0.090416         2.4604 
 115   0.0000       0.101958         2.7744 
 116   0.0000       0.105975         2.8837 
 117   0.0000       0.108129         2.9424 
 118   0.0000       0.112566         3.0631 
 119   0.0000       0.118352         3.2205 
 120   0.0000       0.118685         3.2296 
 121   0.0000       0.121078         3.2947 
 122   0.0000       0.127019         3.4564 
 123   0.0000       0.129838         3.5331 
 124   0.0000       0.131709         3.5840 
 125   0.0000       0.138340         3.7644 
 126   0.0000       0.139998         3.8095 
 127   0.0000       0.141412         3.8480 
 128   0.0000       0.143714         3.9107 
 129   0.0000       0.151084         4.1112 
 130   0.0000       0.155781         4.2390 
 131   0.0000       0.156867         4.2686 
 132   0.0000       0.160193         4.3591 
 133   0.0000       0.164813         4.4848 
 134   0.0000       0.165858         4.5132 
 135   0.0000       0.167610         4.5609 
 136   0.0000       0.170728         4.6458 
 137   0.0000       0.175398         4.7728 
 138   0.0000       0.178708         4.8629 
 139   0.0000       0.182646         4.9700 
 140   0.0000       0.183314         4.9882 
 141   0.0000       0.184731         5.0268 
 142   0.0000       0.187592         5.1046 
 143   0.0000       0.188689         5.1345 
 144   0.0000       0.192561         5.2399 
 145   0.0000       0.195605         5.3227 
 146   0.0000       0.197438         5.3726 
 147   0.0000       0.201891         5.4937 
 148   0.0000       0.203265         5.5311 
 149   0.0000       0.204843         5.5740 
 150   0.0000       0.210683         5.7330 
 151   0.0000       0.219162         5.9637 
 152   0.0000       0.220067         5.9883 
 153   0.0000       0.228913         6.2290 
 154   0.0000       0.232792         6.3346 
 155   0.0000       0.236991         6.4489 
 156   0.0000       0.241675         6.5763 
 157   0.0000       0.244800         6.6613 
 158   0.0000       0.247361         6.7310 
 159   0.0000       0.250690         6.8216 
 160   0.0000       0.256013         6.9665 
 161   0.0000       0.257268         7.0006 
 162   0.0000       0.260748         7.0953 
 163   0.0000       0.265709         7.2303 
 164   0.0000       0.270693         7.3659 
 165   0.0000       0.271671         7.3925 
 166   0.0000       0.280023         7.6198 
 167   0.0000       0.286297         7.7905 
 168   0.0000       0.290083         7.8936 
 169   0.0000       0.293774         7.9940 
 170   0.0000       0.295892         8.0516 
 171   0.0000       0.299885         8.1603 
 172   0.0000       0.305979         8.3261 
 173   0.0000       0.308170         8.3857 
 174   0.0000       0.316468         8.6115 
 175   0.0000       0.319292         8.6884 
 176   0.0000       0.325420         8.8551 
 177   0.0000       0.337675         9.1886 
 178   0.0000       0.352981         9.6051 
 179   0.0000       0.356943         9.7129 
 180   0.0000       0.367734        10.0066 
 181   0.0000       0.375731        10.2242 
 182   0.0000       0.379342        10.3224 
 183   0.0000       0.406457        11.0603 
 184   0.0000       0.420331        11.4378 
 185   0.0000       0.463367        12.6088 
 186   0.0000       0.477254        12.9868 
 187   0.0000       0.491209        13.3665 
 188   0.0000       0.511677        13.9234 
 189   0.0000       0.519884        14.1468 
 190   0.0000       0.521313        14.1856 
 191   0.0000       0.525188        14.2911 
 192   0.0000       0.541651        14.7391 
 193   0.0000       0.543114        14.7789 
 194   0.0000       0.560716        15.2579 
 195   0.0000       0.573016        15.5926 
 196   0.0000       0.582160        15.8414 
 197   0.0000       0.585366        15.9286 
 198   0.0000       0.588915        16.0252 
 199   0.0000       0.606019        16.4906 
 200   0.0000       0.612654        16.6712 
 201   0.0000       0.619532        16.8583 
 202   0.0000       0.626636        17.0516 
 203   0.0000       0.628353        17.0984 
 204   0.0000       0.636266        17.3137 
 205   0.0000       0.641305        17.4508 
 206   0.0000       0.648415        17.6443 
 207   0.0000       0.657731        17.8978 
 208   0.0000       0.661346        17.9961 
 209   0.0000       0.666835        18.1455 
 210   0.0000       0.672060        18.2877 
 211   0.0000       0.685600        18.6561 
 212   0.0000       0.695494        18.9253 
 213   0.0000       0.698306        19.0019 
 214   0.0000       0.704145        19.1608 
 215   0.0000       0.711096        19.3499 
 216   0.0000       0.712380        19.3848 
 217   0.0000       0.717113        19.5136 
 218   0.0000       0.723140        19.6777 
 219   0.0000       0.726491        19.7688 
 220   0.0000       0.730783        19.8856 
 221   0.0000       0.734373        19.9833 
 222   0.0000       0.736005        20.0277 
 223   0.0000       0.741415        20.1749 
 224   0.0000       0.743941        20.2437 
 225   0.0000       0.749452        20.3936 
 226   0.0000       0.751227        20.4419 
 227   0.0000       0.756537        20.5864 
 228   0.0000       0.758470        20.6390 
 229   0.0000       0.765856        20.8400 
 230   0.0000       0.770613        20.9695 
 231   0.0000       0.773667        21.0526 
 232   0.0000       0.777735        21.1632 
 233   0.0000       0.780694        21.2438 
 234   0.0000       0.787968        21.4417 
 235   0.0000       0.795509        21.6469 
 236   0.0000       0.801685        21.8150 
 237   0.0000       0.803850        21.8739 
 238   0.0000       0.814034        22.1510 
 239   0.0000       0.820059        22.3149 
 240   0.0000       0.824571        22.4377 
 241   0.0000       0.825303        22.4576 
 242   0.0000       0.838825        22.8256 
 243   0.0000       0.840357        22.8673 
 244   0.0000       0.848253        23.0821 
 245   0.0000       0.856016        23.2934 
 246   0.0000       0.863869        23.5071 
 247   0.0000       0.867093        23.5948 
 248   0.0000       0.869094        23.6492 
 249   0.0000       0.871964        23.7273 
 250   0.0000       0.875393        23.8206 
 251   0.0000       0.877324        23.8732 
 252   0.0000       0.878248        23.8983 
 253   0.0000       0.879784        23.9402 
 254   0.0000       0.883082        24.0299 
 255   0.0000       0.884159        24.0592 
 256   0.0000       0.889539        24.2056 
 257   0.0000       0.892122        24.2759 
 258   0.0000       0.895762        24.3749 
 259   0.0000       0.900109        24.4932 
 260   0.0000       0.902795        24.5663 
 261   0.0000       0.904207        24.6047 
 262   0.0000       0.908753        24.7284 
 263   0.0000       0.916355        24.9353 
 264   0.0000       0.918359        24.9898 
 265   0.0000       0.923056        25.1176 
 266   0.0000       0.924334        25.1524 
 267   0.0000       0.929505        25.2931 
 268   0.0000       0.931637        25.3511 
 269   0.0000       0.939133        25.5551 
 270   0.0000       0.940838        25.6015 
 271   0.0000       0.943117        25.6635 
 272   0.0000       0.947027        25.7699 
 273   0.0000       0.947482        25.7823 
 274   0.0000       0.952384        25.9157 
 275   0.0000       0.956444        26.0262 
 276   0.0000       0.966338        26.2954 
 277   0.0000       0.970090        26.3975 
 278   0.0000       0.975164        26.5356 
 279   0.0000       0.978587        26.6287 
 280   0.0000       0.985422        26.8147 
 281   0.0000       0.999888        27.2083 
 282   0.0000       1.002335        27.2749 
 283   0.0000       1.009144        27.4602 
 284   0.0000       1.017731        27.6939 
 285   0.0000       1.022837        27.8328 
 286   0.0000       1.030555        28.0428 
 287   0.0000       1.044416        28.4200 
 288   0.0000       1.053808        28.6756 
 289   0.0000       1.059359        28.8266 
 290   0.0000       1.076259        29.2865 
 291   0.0000       1.080456        29.4007 
 292   0.0000       1.086377        29.5618 
 293   0.0000       1.090279        29.6680 
 294   0.0000       1.093154        29.7462 
 295   0.0000       1.119790        30.4710 
 296   0.0000       1.130227        30.7550 
 297   0.0000       1.134671        30.8760 
 298   0.0000       1.142411        31.0866 
 299   0.0000       1.160833        31.5879 
 300   0.0000       1.166102        31.7312 
 301   0.0000       1.176323        32.0094 
 302   0.0000       1.200579        32.6694 
 303   0.0000       1.215148        33.0659 
 304   0.0000       1.220211        33.2036 
 305   0.0000       1.237672        33.6788 
 306   0.0000       1.246008        33.9056 
 307   0.0000       1.258051        34.2333 
 308   0.0000       1.279001        34.8034 
 309   0.0000       1.298607        35.3369 
 310   0.0000       1.321616        35.9630 
 311   0.0000       1.334257        36.3070 
 312   0.0000       1.371246        37.3135 
 313   0.0000       1.381880        37.6029 
 314   0.0000       1.406121        38.2625 
 315   0.0000       1.511540        41.1311 
 316   0.0000       1.525776        41.5185 
 317   0.0000       1.572705        42.7955 
 318   0.0000       1.606026        43.7022 
 319   0.0000       1.657461        45.1018 
 320   0.0000       6.207883       168.9251 
 321   0.0000       6.239848       169.7949 
 322   0.0000       6.262385       170.4082 
 323   0.0000       6.268709       170.5802 
 324   0.0000       6.282319       170.9506 
 325   0.0000       6.290524       171.1739 
 326   0.0000       6.300020       171.4323 
 327   0.0000       6.306029       171.5958 
 328   0.0000       6.313380       171.7958 
 329   0.0000       6.332669       172.3207 
 330   0.0000       6.341902       172.5719 
 331   0.0000       6.349974       172.7916 
 332   0.0000       6.358469       173.0227 
 333   0.0000       6.380509       173.6225 
 334   0.0000       6.386762       173.7926 
 335   0.0000       6.392589       173.9512 
 336   0.0000       6.406705       174.3353 
 337   0.0000       6.419213       174.6757 
 338   0.0000       6.423433       174.7905 
 339   0.0000       6.428885       174.9389 
 340   0.0000       6.432142       175.0275 
 341   0.0000       6.438873       175.2106 
 342   0.0000       6.452994       175.5949 
 343   0.0000       6.462865       175.8635 
 344   0.0000       6.468209       176.0089 
 345   0.0000       6.475818       176.2160 
 346   0.0000       6.479358       176.3123 
 347   0.0000       6.491652       176.6468 
 348   0.0000       6.504612       176.9995 
 349   0.0000       6.511222       177.1793 
 350   0.0000       6.520158       177.4225 
 351   0.0000       6.524619       177.5439 
 352   0.0000       6.531975       177.7441 
 353   0.0000       6.542093       178.0194 
 354   0.0000       6.546431       178.1374 
 355   0.0000       6.553871       178.3399 
 356   0.0000       6.560287       178.5145 
 357   0.0000       6.562193       178.5664 
 358   0.0000       6.567342       178.7065 
 359   0.0000       6.580451       179.0632 
 360   0.0000       6.584140       179.1636 
 361   0.0000       6.584914       179.1846 
 362   0.0000       6.587744       179.2616 
 363   0.0000       6.600078       179.5972 
 364   0.0000       6.602519       179.6637 
 365   0.0000       6.605292       179.7391 
 366   0.0000       6.607327       179.7945 
 367   0.0000       6.614613       179.9928 
 368   0.0000       6.617383       180.0681 
 369   0.0000       6.618631       180.1021 
 370   0.0000       6.620840       180.1622 
 371   0.0000       6.623702       180.2401 
 372   0.0000       6.628639       180.3744 
 373   0.0000       6.631120       180.4419 
 374   0.0000       6.640357       180.6933 
[...]
     69 H        0.000      0.000      0.000      0.000      0.000      0.000
     70 H        0.000      0.000      0.000      0.000      0.003      0.036
     71 H        0.000      0.000      0.000     -0.000      0.001      0.020
     72 H        0.000      0.000      0.000      0.000      0.001      0.009
                 25 H       27 H       28 H       30 H       31 H       33 H  
      3 H        2.481     -0.107      0.068      0.000      0.000      2.412
      4 H        0.111     -0.004      0.004      0.000      0.000      0.099
      8 H       -0.340      0.012      0.000      0.000      0.000     -0.312
      9 H        0.000      0.000      0.000      0.000      0.000      0.136
     10 H        0.000      0.000      0.000      0.000      0.000      0.000
     11 H        0.000      0.000      0.000      0.000      0.000      0.000
     13 H       -0.101      0.004     -0.004      0.000      0.000     -0.105
     16 H       -0.372      0.012     -0.006     -0.022     -0.001     -0.345
     17 H       -0.365      0.012      0.000      0.000      0.000     -0.321
     19 H        0.931     -0.048      0.022      0.085      0.007      1.145
     21 H       -2.826      0.198      0.638     -0.216     -0.026     -2.599
     24 H      -14.056      4.328      2.301      0.721     -0.504     -0.117
     25 H        0.000     13.029      5.228     -0.628     -0.352     -2.342
     27 H       13.029      0.000    -13.572      3.984     12.993      0.069
     28 H        5.228    -13.572      0.000      2.646      4.110      0.284
     30 H       -0.628      3.984      2.646      0.000    -12.949      0.014
     31 H       -0.352     12.993      4.110    -12.949      0.000     -0.324
     33 H       -2.342      0.069      0.284      0.014     -0.324      0.000
     35 H        0.000      0.000      0.000      0.000      0.000      0.000
     37 H        0.270      0.005     -0.036      0.518     -0.036      6.473
     38 H        0.192      0.001     -0.029     -0.014      0.124     12.163
     40 H       -0.013      0.020      0.146     -0.004     -0.034     -0.239
     41 H        0.014      0.022     -0.025      0.013      0.078     -0.417
     42 H       -0.018      0.012     -0.010     -0.259     -0.371     -0.206
     45 H       -0.019     -0.226      0.010     -0.207     -0.481     -0.187
     46 H        0.012      0.047      0.069     -0.338      0.028      0.922
     47 H       -0.058     -0.125     -0.146     -0.151      1.822     -0.468
     48 H       -0.015      0.030      0.021      0.028      0.011     -0.001
     52 H        0.001      0.001      0.001     -0.002      0.001      0.003
     53 H        0.000     -0.000      0.000      0.000     -0.002     -0.003
     57 H        0.000      0.000      0.000     -0.002      0.003      0.007
     58 H        0.000      0.000      0.000      0.000     -0.000      0.000
     61 H        0.000      0.000      0.000      0.000      0.000      0.000
     62 H        0.000      0.000      0.000      0.000      0.000      0.000
     63 H        0.000      0.000      0.000      0.000      0.000      0.000
     64 H        0.000      0.000      0.000      0.000      0.000      0.000
     65 H        0.000      0.000      0.000      0.000      0.000      0.000
     66 H        0.000      0.000      0.000      0.000      0.000      0.000
     67 H        0.000      0.000      0.000      0.000      0.000      0.000
     68 H        0.000      0.000      0.000     -0.000     -0.000      0.000
     69 H        0.000      0.000      0.000     -0.000     -0.000     -0.000
     70 H        0.000     -0.010     -0.011      0.079     -0.043      0.004
     71 H        0.004     -0.010     -0.009     -0.454     -0.079      0.004
     72 H        0.000     -0.002     -0.004      0.074      0.013     -0.001
                 35 H       37 H       38 H       40 H       41 H       42 H  
      3 H       -0.075     -0.044     -0.038      0.000      0.000      0.000
      4 H       -0.166     -0.002     -0.002      0.000      0.000      0.000
      8 H        0.020      0.006      0.004      0.000      0.001      0.000
      9 H       -0.092     -0.002     -0.001      0.000     -0.000      0.000
     10 H       -0.183      0.000     -0.002      0.000      0.000      0.000
     11 H       -0.101     -0.000     -0.000      0.000      0.000      0.000
     13 H       13.741      0.002      0.001      0.000      0.000      0.000
     16 H        0.005      0.007      0.002     -0.001      0.001     -0.001
     17 H        0.007      0.005      0.004      0.000      0.002      0.000
     19 H       -0.004     -0.012      0.115      0.005     -0.009      0.006
     21 H       -0.004      0.043     -0.528     -0.011      0.059     -0.025
     24 H       -0.001     -0.054     -0.079     -0.019      0.068     -0.025
     25 H        0.000      0.270      0.192     -0.013      0.014     -0.018
     27 H        0.000      0.005      0.001      0.020      0.022      0.012
     28 H        0.000     -0.036     -0.029      0.146     -0.025     -0.010
     30 H        0.000      0.518     -0.014     -0.004      0.013     -0.259
     31 H        0.000     -0.036      0.124     -0.034      0.078     -0.371
     33 H        0.000      6.473     12.163     -0.239     -0.417     -0.206
     35 H        0.000      0.000      0.000      0.000      0.000      0.000
     37 H        0.000      0.000    -12.192      9.485      2.623     -0.263
     38 H        0.000    -12.192      0.000      6.720     11.592     -0.467
     40 H        0.000      9.485      6.720      0.000    -13.884      9.502
     41 H        0.000      2.623     11.592    -13.884      0.000      8.696
     42 H        0.000     -0.263     -0.467      9.502      8.696      0.000
     45 H        0.000      0.063      0.037     -0.083      0.006      1.134
     46 H        0.000     -0.171      0.008      0.048      0.043     -0.407
     47 H        0.000      0.066     -0.069     -0.111     -0.064     -0.075
     48 H        0.000      0.100     -0.009     -0.204     -0.433     10.319
     52 H        0.000     -0.000      0.003      0.072     -0.018     -0.290
     53 H        0.000      0.003      0.005     -0.114      0.018      0.075
     57 H        0.000     -0.006     -0.003      0.148     -0.016     -0.085
     58 H        0.000      0.000     -0.000     -0.003      0.000     -0.001
     61 H        0.000      0.000      0.000     -0.003      0.000      0.000
     62 H        0.000      0.000      0.000     -0.005      0.001      0.002
     63 H        0.000      0.000      0.000      0.017     -0.001     -0.003
     64 H        0.000      0.000      0.000     -0.000      0.001      0.000
     65 H        0.000     -0.000     -0.000      0.000     -0.000     -0.001
     66 H        0.000      0.000      0.000      0.000     -0.000     -0.000
     67 H        0.000      0.000      0.000     -0.001     -0.000      0.001
     68 H        0.000      0.000      0.000     -0.000     -0.001     -0.000
     69 H        0.000      0.000      0.000     -0.000     -0.000      0.001
     70 H        0.000      0.066      0.010     -0.024      0.005     -0.440
     71 H        0.000     -0.006      0.003      0.084      0.025     -0.196
     72 H        0.000     -0.020      0.037      0.027     -0.053     -0.342
                 45 H       46 H       47 H       48 H       52 H       53 H  
      3 H       -0.020      0.000      0.000      0.000      0.000      0.000
      4 H       -0.001     -0.001      0.001      0.000      0.000      0.000
      8 H        0.002      0.002     -0.003      0.000      0.000      0.000
      9 H       -0.001      0.000      0.001      0.000      0.000      0.000
     10 H       -0.001      0.000      0.000      0.000      0.000      0.000
     11 H       -0.000      0.000      0.000      0.000      0.000      0.000
     13 H        0.001      0.001     -0.001      0.000      0.000      0.000
     16 H        0.002      0.002     -0.004      0.000      0.000      0.000
     17 H        0.003      0.000     -0.004      0.000      0.000      0.000
     19 H       -0.009     -0.007      0.011      0.006      0.000      0.000
     21 H        0.032      0.014     -0.016     -0.016      0.001     -0.001
     24 H       -0.023     -0.017     -0.023      0.002      0.001      0.000
     25 H       -0.019      0.012     -0.058     -0.015      0.001      0.000
     27 H       -0.226      0.047     -0.125      0.030      0.001     -0.000
     28 H        0.010      0.069     -0.146      0.021      0.001      0.000
     30 H       -0.207     -0.338     -0.151      0.028     -0.002      0.000
     31 H       -0.481      0.028      1.822      0.011      0.001     -0.002
     33 H       -0.187      0.922     -0.468     -0.001      0.003     -0.003
     35 H        0.000      0.000      0.000      0.000      0.000      0.000
     37 H        0.063     -0.171      0.066      0.100     -0.000      0.003
     38 H        0.037      0.008     -0.069     -0.009      0.003      0.005
     40 H       -0.083      0.048     -0.111     -0.204      0.072     -0.114
     41 H        0.006      0.043     -0.064     -0.433     -0.018      0.018
     42 H        1.134     -0.407     -0.075     10.319     -0.290      0.075
     45 H        0.000    -12.850    -13.547     -0.097      0.239     -0.001
     46 H      -12.850      0.000    -12.990     -0.042      0.072     -0.002
     47 H      -13.547    -12.990      0.000     -0.165      0.071     -0.002
     48 H       -0.097     -0.042     -0.165      0.000      9.620     -0.648
     52 H        0.239      0.072      0.071      9.620      0.000     16.749
     53 H       -0.001     -0.002     -0.002     -0.648     16.749      0.000
     57 H        0.003      0.000      0.002      0.140     -3.125      3.559
     58 H        0.001      0.000      0.000      0.063     -0.542     -0.435
     61 H        0.000     -0.000     -0.000     -0.000      0.047     -0.248
     62 H        0.000     -0.000     -0.000     -0.008      0.148     -0.215
     63 H        0.000      0.000      0.000      0.020     -0.196      0.097
     64 H        0.000      0.000      0.000     -0.007      0.069      0.759
     65 H        0.000      0.000      0.000      0.001     -0.005      0.025
     66 H        0.000      0.000      0.000      0.016      0.069      0.056
     67 H        0.000      0.000      0.000      0.006     -0.008      0.006
     68 H        0.000      0.000      0.000      0.002     -0.162      0.086
     69 H        0.000      0.000      0.000     -0.003      0.033      0.187
     70 H       -0.027     -0.015     -0.011      2.354     -0.161      0.110
     71 H       -0.049     -0.199     -0.019      4.390     -0.091     -0.386
     72 H       -0.031     -0.036      0.033     12.680     -0.270      0.094
                 57 H       58 H       61 H       62 H       63 H       64 H  
      3 H        0.000      0.000      0.000      0.000      0.000      0.000
      4 H        0.000      0.000      0.000      0.000      0.000      0.000
      8 H        0.000      0.000      0.000      0.000      0.000      0.000
      9 H        0.000      0.000      0.000      0.000      0.000      0.000
     10 H        0.000      0.000      0.000      0.000      0.000      0.000
     11 H        0.000      0.000      0.000      0.000      0.000      0.000
     13 H        0.000      0.000      0.000      0.000      0.000      0.000
     16 H        0.000      0.000      0.000      0.000      0.000      0.000
     17 H        0.000      0.000      0.000      0.000      0.000      0.000
     19 H        0.000      0.000      0.000      0.000      0.000      0.000
     21 H        0.000      0.000      0.000      0.000      0.000      0.000
     24 H        0.000      0.000      0.000      0.000      0.000      0.000
     25 H        0.000      0.000      0.000      0.000      0.000      0.000
     27 H        0.000      0.000      0.000      0.000      0.000      0.000
     28 H        0.000      0.000      0.000      0.000      0.000      0.000
     30 H       -0.002      0.000      0.000      0.000      0.000      0.000
     31 H        0.003     -0.000      0.000      0.000      0.000      0.000
     33 H        0.007      0.000      0.000      0.000      0.000      0.000
     35 H        0.000      0.000      0.000      0.000      0.000      0.000
     37 H       -0.006      0.000      0.000      0.000      0.000      0.000
     38 H       -0.003     -0.000      0.000      0.000      0.000      0.000
     40 H        0.148     -0.003     -0.003     -0.005      0.017     -0.000
     41 H       -0.016      0.000      0.000      0.001     -0.001      0.001
     42 H       -0.085     -0.001      0.000      0.002     -0.003      0.000
     45 H        0.003      0.001      0.000      0.000      0.000      0.000
     46 H        0.000      0.000     -0.000     -0.000      0.000      0.000
     47 H        0.002      0.000     -0.000     -0.000      0.000      0.000
     48 H        0.140      0.063     -0.000     -0.008      0.020     -0.007
     52 H       -3.125     -0.542      0.047      0.148     -0.196      0.069
     53 H        3.559     -0.435     -0.248     -0.215      0.097      0.759
     57 H        0.000      1.774      4.124     13.699      3.552      0.035
     58 H        1.774      0.000      0.564     -0.513     -0.448      3.802
     61 H        4.124      0.564      0.000    -12.773    -13.221     -0.016
     62 H       13.699     -0.513    -12.773      0.000    -11.979      0.041
     63 H        3.552     -0.448    -13.221    -11.979      0.000     -0.122
     64 H        0.035      3.802     -0.016      0.041     -0.122      0.000
     65 H       -0.367      3.236      0.037     -0.008      0.018    -12.649
     66 H       -0.290     12.882     -0.093      0.056     -0.327    -12.931
     67 H       -0.463     12.956     -0.011     -0.058     -0.054     -0.202
     68 H       -0.429      2.189     -0.024     -0.078      0.053     -0.011
     69 H        0.595      4.841     -0.144     -0.066     -0.030     -0.200
     70 H       -0.084     -0.001     -0.000      0.000      0.009     -0.000
     71 H        0.460     -0.013     -0.012     -0.023      0.147      0.000
     72 H       -0.122     -0.000      0.002      0.003     -0.013      0.002
                 65 H       66 H       67 H       68 H       69 H       70 H  
      3 H        0.000      0.000      0.000      0.000      0.000      0.000
      4 H        0.000      0.000      0.000      0.000      0.000      0.000
      8 H        0.000      0.000      0.000      0.000      0.000      0.000
      9 H        0.000      0.000      0.000      0.000      0.000      0.000
     10 H        0.000      0.000      0.000      0.000      0.000      0.000
     11 H        0.000      0.000      0.000      0.000      0.000      0.000
     13 H        0.000      0.000      0.000      0.000      0.000      0.000
     16 H        0.000      0.000      0.000      0.000      0.000      0.000
     17 H        0.000      0.000      0.000      0.000      0.000      0.000
     19 H        0.000      0.000      0.000      0.000      0.000      0.000
     21 H        0.000      0.000      0.000      0.000      0.000      0.003
     24 H        0.000      0.000      0.000      0.000      0.000      0.036
     25 H        0.000      0.000      0.000      0.000      0.000      0.000
     27 H        0.000      0.000      0.000      0.000      0.000     -0.010
     28 H        0.000      0.000      0.000      0.000      0.000     -0.011
     30 H        0.000      0.000      0.000     -0.000     -0.000      0.079
     31 H        0.000      0.000      0.000     -0.000     -0.000     -0.043
     33 H        0.000      0.000      0.000      0.000     -0.000      0.004
     35 H        0.000      0.000      0.000      0.000      0.000      0.000
     37 H       -0.000      0.000      0.000      0.000      0.000      0.066
     38 H       -0.000      0.000      0.000      0.000      0.000      0.010
     40 H        0.000      0.000     -0.001     -0.000     -0.000     -0.024
     41 H       -0.000     -0.000     -0.000     -0.001     -0.000      0.005
     42 H       -0.001     -0.000      0.001     -0.000      0.001     -0.440
     45 H        0.000      0.000      0.000      0.000      0.000     -0.027
     46 H        0.000      0.000      0.000      0.000      0.000     -0.015
     47 H        0.000      0.000      0.000      0.000      0.000     -0.011
     48 H        0.001      0.016      0.006      0.002     -0.003      2.354
     52 H       -0.005      0.069     -0.008     -0.162      0.033     -0.161
     53 H        0.025      0.056      0.006      0.086      0.187      0.110
     57 H       -0.367     -0.290     -0.463     -0.429      0.595     -0.084
     58 H        3.236     12.882     12.956      2.189      4.841     -0.001
     61 H        0.037     -0.093     -0.011     -0.024     -0.144     -0.000
     62 H       -0.008      0.056     -0.058     -0.078     -0.066      0.000
     63 H        0.018     -0.327     -0.054      0.053     -0.030      0.009
     64 H      -12.649    -12.931     -0.202     -0.011     -0.200     -0.000
     65 H        0.000    -11.976     -0.133      2.840     -0.171     -0.000
     66 H      -11.976      0.000     -0.352     -0.320     -0.214      0.001
     67 H       -0.133     -0.352      0.000    -12.559    -12.915     -0.002
     68 H        2.840     -0.320    -12.559      0.000    -12.638     -0.005
     69 H       -0.171     -0.214    -12.915    -12.638      0.000     -0.001
     70 H       -0.000      0.001     -0.002     -0.005     -0.001      0.000
     71 H        0.000      0.000     -0.003      0.002     -0.000    -13.202
     72 H        0.001     -0.000      0.001     -0.002     -0.001    -12.515
                 71 H       72 H  
      3 H        0.000      0.000
      4 H        0.000      0.000
      8 H        0.000      0.000
      9 H        0.000      0.000
     10 H        0.000      0.000
     11 H        0.000      0.000
     13 H        0.000      0.000
     16 H        0.000      0.000
     17 H        0.000      0.000
     19 H       -0.000      0.000
     21 H        0.001      0.001
     24 H        0.020      0.009
     25 H        0.004      0.000
     27 H       -0.010     -0.002
     28 H       -0.009     -0.004
     30 H       -0.454      0.074
     31 H       -0.079      0.013
     33 H        0.004     -0.001
     35 H        0.000      0.000
     37 H       -0.006     -0.020
     38 H        0.003      0.037
     40 H        0.084      0.027
     41 H        0.025     -0.053
     42 H       -0.196     -0.342
     45 H       -0.049     -0.031
     46 H       -0.199     -0.036
     47 H       -0.019      0.033
     48 H        4.390     12.680
     52 H       -0.091     -0.270
     53 H       -0.386      0.094
     57 H        0.460     -0.122
     58 H       -0.013     -0.000
     61 H       -0.012      0.002
     62 H       -0.023      0.003
     63 H        0.147     -0.013
     64 H        0.000      0.002
     65 H        0.000      0.001
     66 H        0.000     -0.000
     67 H       -0.003      0.001
     68 H        0.002     -0.002
     69 H       -0.000     -0.001
     70 H      -13.202    -12.515
     71 H        0.000    -12.447
     72 H      -12.447      0.000

Maximum memory used throughout the entire EPRNMR-calculation: 969.1 MB

Timings for individual modules:

Sum of individual times         ...      405.602 sec (=   6.760 min)
GTO integral calculation        ...        0.726 sec (=   0.012 min)   0.2 %
SCF iterations                  ...      102.418 sec (=   1.707 min)  25.3 %
EPR/NMR calculation             ...      302.459 sec (=   5.041 min)  74.6 %
                             ****ORCA TERMINATED NORMALLY****
TOTAL RUN TIME: 0 days 0 hours 6 minutes 46 seconds 3 msec
