
                                 *****************
                                 * O   R   C   A *
                                 *****************

                                            #,                                       
                                            ###                                      
                                            ####                                     
                                            #####                                    
                                            ######                                   
                                           ########,                                 
                                     ,,################,,,,,                         
                               ,,#################################,,                 
                          ,,##########################################,,             
                       ,#########################################, ''#####,          
                    ,#############################################,,   '####,        
                  ,##################################################,,,,####,       
                ,###########''''           ''''###############################       
              ,#####''   ,,,,##########,,,,          '''####'''          '####       
            ,##' ,,,,###########################,,,                        '##       
           ' ,,###''''                  '''############,,,                           
         ,,##''                                '''############,,,,        ,,,,,,###''
      ,#''                                            '''#######################'''  
     '                                                          ''''####''''         
             ,#######,   #######,   ,#######,      ##                                
            ,#'     '#,  ##    ##  ,#'     '#,    #''#        ,####,   ,####,        
            ##       ##  ##   ,#'  ##            #'  '#       #'       #'  '#        
            ##       ##  #######   ##           ,######,      #####,   #    #        
            '#,     ,#'  ##    ##  '#,     ,#' ,#      #,     #,   #   #,  ,#        
             '#######'   ##     ##  '#######'  #'      '#     '####' # '####'        



                #########################################################
                #                        -***-                          #
                #          Department of theory and spectroscopy        #
                #                                                       #
                #                      Frank Neese                      #
                #                                                       #
                #     Directorship, Architecture, Infrastructure        #
                #                    SHARK, DRIVERS                     #
                #        Core code/Algorithms in most modules           #
                #                                                       #
                #        Max Planck Institute fuer Kohlenforschung      #
                #                Kaiser Wilhelm Platz 1                 #
                #                 D-45470 Muelheim/Ruhr                 #
                #                      Germany                          #
                #                                                       #
                #                  All rights reserved                  #
                #                        -***-                          #
                #########################################################


                         Program Version 6.0.0  -   RELEASE  -


 With contributions from (in alphabetic order):
   Daniel Aravena         : Magnetic Suceptibility
   Michael Atanasov       : Ab Initio Ligand Field Theory (pilot matlab implementation)
   Alexander A. Auer      : GIAO ZORA, VPT2 properties, NMR spectrum
   Ute Becker             : All parallelization in ORCA, NUMFREQ, NUMCALC
   Giovanni Bistoni       : ED, misc. LED, open-shell LED, HFLD
   Martin Brehm           : Molecular dynamics
   Dmytro Bykov           : pre 5.0 version of the SCF Hessian
   Marcos Casanova-Páez   : Triplet and SCS-CIS(D). UHF-(DLPNO)-IP/EA/STEOM-CCSD. UHF-CVS-IP/STEOM-CCSD
   Vijay G. Chilkuri      : MRCI spin determinant printing, contributions to CSF-ICE
   Pauline Colinet        : FMM embedding
   Dipayan Datta          : RHF DLPNO-CCSD density
   Achintya Kumar Dutta   : EOM-CC, STEOM-CC
   Nicolas Foglia         : Exact transition moments, OPA infrastructure, MCD improvements
   Dmitry Ganyushin       : Spin-Orbit,Spin-Spin,Magnetic field MRCI
   Miquel Garcia          : C-PCM and meta-GGA Hessian, CCSD/C-PCM, Gaussian charge scheme
   Tiago L. C. Gouveia    : GS-ROHF, GS-ROCIS
   Yang Guo               : DLPNO-NEVPT2, F12-NEVPT2, CIM, IAO-localization
   Andreas Hansen         : Spin unrestricted coupled pair/coupled cluster methods
   Ingolf Harden          : AUTO-CI MPn and infrastructure 
   Benjamin Helmich-Paris : MC-RPA, TRAH-(SCF,CASSCF), AVAS, COSX integrals, SCF dyn. polar.
   Lee Huntington         : MR-EOM, pCC
   Robert Izsak           : Overlap fitted RIJCOSX, COSX-SCS-MP3, EOM
   Riya Kayal             : Wick's Theorem for AUTO-CI, AUTO-CI UHF-CCSDT
   Emily Kempfer          : AUTO-CI, RHF CISDT and CCSDT
   Christian Kollmar      : KDIIS, OOCD, Brueckner-CCSD(T), CCSD density, CASPT2, CASPT2-K, improved NEVPT2
   Axel Koslowski         : Symmetry handling
   Simone Kossmann        : Meta GGA functionals, TD-DFT gradient, OOMP2, (MP2 Hessian; deprecated post 5.0)
   Lucas Lang             : DCDCAS
   Marvin Lechner         : AUTO-CI (C++ implementation), FIC-MRCC
   Spencer Leger          : CASSCF response
   Dagmar Lenk            : GEPOL surface, SMD, ORCA-2-JSON
   Dimitrios Liakos       : Extrapolation schemes; Compound Job, initial MDCI parallelization
   Dimitrios Manganas     : Further ROCIS development; embedding schemes. LFT, Crystal Embedding
   Dimitrios Pantazis     : SARC Basis sets
   Anastasios Papadopoulos: AUTO-CI, single reference methods and gradients
   Taras Petrenko         : pre 6.0 DFT Hessian and TD-DFT gradient, (ASA, deprecated), ECA, 1-Electron XAS/XES, NRVS
   Peter Pinski           : DLPNO-MP2, DLPNO-MP2 Gradient
   Christoph Reimann      : Effective Core Potentials
   Marius Retegan         : Local ZFS, SOC
   Christoph Riplinger    : Optimizer, TS searches, QM/MM, DLPNO-CCSD(T), (RO)-DLPNO pert. Triples
   Michael Roemelt        : Original ROCIS implementation
   Masaaki Saitow         : Open-shell DLPNO-CCSD energy and density
   Barbara Sandhoefer     : DKH picture change effects
   Kantharuban Sivalingam : CASSCF convergence/infrastructure, NEVPT2 and variants, FIC-MRCI
   Bernardo de Souza      : ESD, SOC TD-DFT
   Georgi Stoychev        : AutoAux, RI-MP2 NMR, DLPNO-MP2 response, X2C
   Van Anh Tran           : RI-MP2 g-tensors
   Willem Van den Heuvel  : Paramagnetic NMR
   Zikuan Wang            : NOTCH, Electric field optimization 
   Frank Wennmohs         : Technical directorship and infrastructure
   Hang Xu                : AUTO-CI-Response properties 


 We gratefully acknowledge several colleagues who have allowed us to
 interface, adapt or use parts of their codes:
   Stefan Grimme, W. Hujo, H. Kruse, P. Pracht,  : VdW corrections, initial TS optimization,
                  C. Bannwarth, S. Ehlert,         DFT functionals, gCP, sTDA/sTD-DF
                  L. Wittmann, M. Mueller
   Ed Valeev, F. Pavosevic, A. Kumar             : LibInt (2-el integral package), F12 methods
   Garnet Chan, S. Sharma, J. Yang, R. Olivares  : DMRG
   Ulf Ekstrom                                   : XCFun DFT Library
   Mihaly Kallay                                 : mrcc  (arbitrary order and MRCC methods)
   Frank Weinhold                                : gennbo (NPA and NBO analysis)
   Simon Mueller                                 : openCOSMO-RS
   Christopher J. Cramer and Donald G. Truhlar   : smd solvation model
   Lars Goerigk                                  : TD-DFT with DH, B97 family of functionals
   V. Asgeirsson, H. Jonsson                     : NEB implementation
   FAccTs GmbH                                   : IRC, NEB, NEB-TS, DLPNO-Multilevel, CI-OPT
                                                   MM, QMMM, 2- and 3-layer-ONIOM, Crystal-QMMM,
                                                   LR-CPCM, SF, NACMEs, symmetry and pop. for TD-DFT,
                                                   nearIR, NL-DFT gradient (VV10), updates on ESD,
                                                   ML-optimized integration grids, MBIS, APM,
                                                   GOAT, DOCKER, SOLVATOR, interface openCOSMO-RS
   S Lehtola, MJT Oliveira, MAL Marques          : LibXC Library
   Liviu Ungur et al                             : ANISO software


 Your calculation uses the libint2 library for the computation of 2-el integrals
 For citations please refer to: http://libint.valeyev.net

 Your ORCA version has been built with support for libXC version: 6.2.2
 For citations please refer to: https://libxc.gitlab.io

 This ORCA versions uses:
   CBLAS   interface :  Fast vector & matrix operations
   LAPACKE interface :  Fast linear algebra routines
   SCALAPACK package :  Parallel linear algebra routines
   Shared memory     :  Shared parallel matrices
   BLAS/LAPACK       :  OpenBLAS 0.3.27  USE64BITINT DYNAMIC_ARCH NO_AFFINITY Zen SINGLE_THREADED
        Core in use  :  Zen
   Copyright (c) 2011-2014, The OpenBLAS Project


NOTE: MaxCore=8000 MB was set to SCF,MP2,MDCI,CIPSI,MRCI and CIS
      => If you want to overwrite this, your respective input block should be placed after the MaxCore statement
Your calculation utilizes the atom-pairwise dispersion correction
based on EEQ partial charges (D4)


================================================================================

----- Orbital basis set information -----
Your calculation utilizes the basis: def2-SVP
   F. Weigend and R. Ahlrichs, Phys. Chem. Chem. Phys. 7, 3297 (2005).

----- AuxJ basis set information -----
Your calculation utilizes the auxiliary basis: def2/J
   F. Weigend, Phys. Chem. Chem. Phys. 8, 1057 (2006).

================================================================================
                                        WARNINGS
                       Please study these warnings very carefully!
================================================================================

WARNING: Old DensityContainer found on disk!
         Will remove this file - 
         If you want to keep old densities, please start your calculation with a different basename. 


================================================================================
                                       INPUT FILE
================================================================================
NAME = inpS
|  1> ! wb97x-d4
|  2> ! def2-svp
|  3> ! def2/J RIJCOSX
|  4> ! DEFGRID2
|  5> ! scfconv7
|  6> ! smallprint printgap noloewdin
|  7> ! NOSOSCF
|  8> %MaxCore 8000
|  9> %output
| 10>        print[P_BondOrder_M] 1
| 11>        print[P_Mayer] 1
| 12>        print[P_basis] 2
| 13> end
| 14> %pal
| 15>     nprocs 4
| 16> end
| 17> ! CPCM(chloroform)
| 18> *xyz 0 1
| 19> C   -4.9393731800   0.3083710100   0.4115522600
| 20> C   -6.3600852000  -0.1012572000   0.1024409200
| 21> C   -6.9357128700   0.6900468900  -1.0783422700
| 22> H   -6.9997380300   0.1062365100   0.9771863300
| 23> H   -6.4166440000  -1.1755179500  -0.1050124900
| 24> C   -4.7452727300   1.7673343500   0.5499205700
| 25> C   -5.3640751400   2.5889943900  -0.5583959600
| 26> C   -6.8226752600   2.1877072700  -0.8170008800
| 27> H   -4.7879839800   2.4175231100  -1.4804076100
| 28> H   -5.2932004400   3.6561278800  -0.3229095100
| 29> H   -7.2233831000   2.7435327700  -1.6728678900
| 30> H   -7.4360834200   2.4392210800   0.0613894100
| 31> O   -8.2861604800   0.2975200900  -1.3570621900
| 32> H   -6.3743966400   0.4351575900  -1.9881846700
| 33> C   -3.9536685500  -0.6160350600   0.4991335600
| 34> C   -4.1166744600   2.3310277700   1.5878787500
| 35> H   -3.7004291700   1.7303058900   2.3917836300
| 36> H   -4.0151746000   3.4112938000   1.6602470400
| 37> C   -2.5459976000  -0.3554083600   0.6917155600
| 38> H   -4.2565316000  -1.6541545500   0.3694494200
| 39> C   -1.5751053500  -1.2798328200   0.8544144300
| 40> H   -2.2520805300   0.6917269200   0.6928950300
| 41> C   -1.7835811500  -2.7712730000   0.9261327700
| 42> C   -0.8803233500  -3.5228696200  -0.0693379100
| 43> H   -2.8279943200  -3.0532201200   0.7671121500
| 44> H   -1.5189844500  -3.0988862200   1.9443518900
| 45> C    0.5933192800  -3.1073838900   0.0381783200
| 46> H   -1.2425726600  -3.3411431100  -1.0890959400
| 47> H   -0.9709784500  -4.6019115800   0.1058066800
| 48> C    0.7693328700  -1.5876089200  -0.0907968900
| 49> H    1.1686952000  -3.6421461600  -0.7242941300
| 50> H    0.9878036700  -3.4207253700   1.0166042600
| 51> C   -0.1279726500  -0.9205869400   0.9999925100
| 52> H    0.2100400000  -1.3748595500   1.9498275200
| 53> C    0.3228019700   0.5364462200   1.0154790000
| 54> H   -8.8188124300   0.5123207500  -0.5796104300
| 55> C    1.8458416300   0.4482483300   0.7492029600
| 56> H    0.0846143600   1.0317831400   1.9626065400
| 57> H   -0.1723185900   1.1047121300   0.2202120400
| 58> C    2.1541235300  -1.0221498100   0.3324803900
| 59> H    2.4293523800   0.7298608800   1.6317185700
| 60> H    2.1360077400   1.1383067600  -0.0522708100
| 61> H    2.4579470000  -1.5823462800   1.2315861500
| 62> C    3.3357116900  -1.1108591000  -0.6641980200
| 63> C    0.3832515600  -1.1032549000  -1.4944205100
| 64> H   -0.6868703500  -1.2343955500  -1.6819315000
| 65> H    0.9313273100  -1.6626887500  -2.2605724100
| 66> H    0.6107756200  -0.0414469900  -1.6321858600
| 67> H    3.0513693700  -0.5246412900  -1.5536104800
| 68> C    3.6440781700  -2.5394572100  -1.1114823800
| 69> C    4.5308248000  -0.4220079200  -0.0485234600
| 70> C    5.6471998000  -1.0018503200   0.3914753000
| 71> H    4.4362085300   0.6580957600   0.0779383000
| 72> H    5.7796297400  -2.0818892100   0.2915728400
| 73> C    6.7923537300  -0.2792490100   1.0453332900
| 74> C    8.0715627800  -0.5038849400   0.2243565800
| 75> C    6.9541493100  -0.7298823000   2.5196978200
| 76> H    6.5641688000   0.7986481800   1.0535426000
| 77> H    7.1160326100  -1.8201331400   2.5112758900
| 78> C    5.6847520600  -0.4366453600   3.3242956900
| 79> C    8.1598419700  -0.0702948600   3.1954898200
| 80> H    7.8989327000  -0.2502432800  -0.8267186300
| 81> H    8.3791825800  -1.5562732500   0.2711784100
| 82> H    8.9015297200   0.1097107900   0.5864019400
| 83> H    5.7966036000  -0.7684647100   4.3623923000
| 84> H    4.8099195700  -0.9345016700   2.8952253000
| 85> H    5.4826863800   0.6425802900   3.3358496100
| 86> H    8.0846726300   1.0231526500   3.1320469500
| 87> H    9.1087838700  -0.3721482800   2.7433547700
| 88> H    8.1972684000  -0.3409743000   4.2565031800
| 89> H    4.5705762100  -2.5688633100  -1.6950020000
| 90> H    2.8431773900  -2.9359241200  -1.7389528600
| 91> H    3.7624474100  -3.2102578500  -0.2524259300
| 92> *
| 93> %eprnmr
| 94>  Nuclei = all C { shift }
| 95>  origin giao
| 96>  giao_2el giao_2el_same_as_scf
| 97>  giao_1el giao_1el_analytic
| 98> end
| 99> 
|100>                          ****END OF INPUT****
================================================================================

                       ****************************
                       * Single Point Calculation *
                       ****************************

---------------------------------
CARTESIAN COORDINATES (ANGSTROEM)
---------------------------------
  C     -4.939373    0.308371    0.411552
  C     -6.360085   -0.101257    0.102441
  C     -6.935713    0.690047   -1.078342
  H     -6.999738    0.106237    0.977186
  H     -6.416644   -1.175518   -0.105012
  C     -4.745273    1.767334    0.549921
  C     -5.364075    2.588994   -0.558396
  C     -6.822675    2.187707   -0.817001
  H     -4.787984    2.417523   -1.480408
  H     -5.293200    3.656128   -0.322910
  H     -7.223383    2.743533   -1.672868
  H     -7.436083    2.439221    0.061389
  O     -8.286160    0.297520   -1.357062
  H     -6.374397    0.435158   -1.988185
  C     -3.953669   -0.616035    0.499134
  C     -4.116674    2.331028    1.587879
  H     -3.700429    1.730306    2.391784
  H     -4.015175    3.411294    1.660247
  C     -2.545998   -0.355408    0.691716
  H     -4.256532   -1.654155    0.369449
  C     -1.575105   -1.279833    0.854414
  H     -2.252081    0.691727    0.692895
  C     -1.783581   -2.771273    0.926133
  C     -0.880323   -3.522870   -0.069338
  H     -2.827994   -3.053220    0.767112
  H     -1.518984   -3.098886    1.944352
  C      0.593319   -3.107384    0.038178
  H     -1.242573   -3.341143   -1.089096
  H     -0.970978   -4.601912    0.105807
  C      0.769333   -1.587609   -0.090797
  H      1.168695   -3.642146   -0.724294
  H      0.987804   -3.420725    1.016604
  C     -0.127973   -0.920587    0.999993
  H      0.210040   -1.374860    1.949828
  C      0.322802    0.536446    1.015479
  H     -8.818812    0.512321   -0.579610
  C      1.845842    0.448248    0.749203
  H      0.084614    1.031783    1.962607
  H     -0.172319    1.104712    0.220212
  C      2.154124   -1.022150    0.332480
  H      2.429352    0.729861    1.631719
  H      2.136008    1.138307   -0.052271
  H      2.457947   -1.582346    1.231586
  C      3.335712   -1.110859   -0.664198
  C      0.383252   -1.103255   -1.494421
  H     -0.686870   -1.234396   -1.681931
  H      0.931327   -1.662689   -2.260572
  H      0.610776   -0.041447   -1.632186
  H      3.051369   -0.524641   -1.553610
  C      3.644078   -2.539457   -1.111482
  C      4.530825   -0.422008   -0.048523
  C      5.647200   -1.001850    0.391475
  H      4.436209    0.658096    0.077938
  H      5.779630   -2.081889    0.291573
  C      6.792354   -0.279249    1.045333
  C      8.071563   -0.503885    0.224357
  C      6.954149   -0.729882    2.519698
  H      6.564169    0.798648    1.053543
  H      7.116033   -1.820133    2.511276
  C      5.684752   -0.436645    3.324296
  C      8.159842   -0.070295    3.195490
  H      7.898933   -0.250243   -0.826719
  H      8.379183   -1.556273    0.271178
  H      8.901530    0.109711    0.586402
  H      5.796604   -0.768465    4.362392
  H      4.809920   -0.934502    2.895225
  H      5.482686    0.642580    3.335850
  H      8.084673    1.023153    3.132047
  H      9.108784   -0.372148    2.743355
  H      8.197268   -0.340974    4.256503
  H      4.570576   -2.568863   -1.695002
  H      2.843177   -2.935924   -1.738953
  H      3.762447   -3.210258   -0.252426

----------------------------
CARTESIAN COORDINATES (A.U.)
----------------------------
  NO LB      ZA    FRAG     MASS         X           Y           Z
   0 C     6.0000    0    12.011   -9.334063    0.582737    0.777721
   1 C     6.0000    0    12.011  -12.018819   -0.191348    0.193585
   2 C     6.0000    0    12.011  -13.106598    1.304000   -2.037772
   3 H     1.0000    0     1.008  -13.227588    0.200758    1.846615
   4 H     1.0000    0     1.008  -12.125700   -2.221407   -0.198445
   5 C     6.0000    0    12.011   -8.967266    3.339778    1.039199
   6 C     6.0000    0    12.011  -10.136633    4.892490   -1.055215
   7 C     6.0000    0    12.011  -12.892988    4.134168   -1.543908
   8 H     1.0000    0     1.008   -9.047978    4.568457   -2.797565
   9 H     1.0000    0     1.008  -10.002699    6.909080   -0.610211
  10 H     1.0000    0     1.008  -13.650216    5.184526   -3.161262
  11 H     1.0000    0     1.008  -14.052161    4.609460    0.116009
  12 O     8.0000    0    15.999  -15.658574    0.562231   -2.564476
  13 H     1.0000    0     1.008  -12.045864    0.822329   -3.757125
  14 C     6.0000    0    12.011   -7.471351   -1.164138    0.943226
  15 C     6.0000    0    12.011   -7.779387    4.405004    3.000656
  16 H     1.0000    0     1.008   -6.992798    3.269804    4.519816
  17 H     1.0000    0     1.008   -7.587580    6.446411    3.137412
  18 C     6.0000    0    12.011   -4.811238   -0.671624    1.307153
  19 H     1.0000    0     1.008   -8.043679   -3.125899    0.698158
  20 C     6.0000    0    12.011   -2.976518   -2.418534    1.614609
  21 H     1.0000    0     1.008   -4.255815    1.307174    1.309382
  22 C     6.0000    0    12.011   -3.370480   -5.236947    1.750137
  23 C     6.0000    0    12.011   -1.663570   -6.657259   -0.131030
  24 H     1.0000    0     1.008   -5.344135   -5.769750    1.449632
  25 H     1.0000    0     1.008   -2.870465   -5.856046    3.674293
  26 C     6.0000    0    12.011    1.121211   -5.872105    0.072147
  27 H     1.0000    0     1.008   -2.348122   -6.313845   -2.058093
  28 H     1.0000    0     1.008   -1.834883   -8.696353    0.199946
  29 C     6.0000    0    12.011    1.453828   -3.000146   -0.171581
  30 H     1.0000    0     1.008    2.208514   -6.882659   -1.368718
  31 H     1.0000    0     1.008    1.866678   -6.464234    1.921104
  32 C     6.0000    0    12.011   -0.241833   -1.739657    1.889712
  33 H     1.0000    0     1.008    0.396918   -2.598108    3.684640
  34 C     6.0000    0    12.011    0.610007    1.013736    1.918977
  35 H     1.0000    0     1.008  -16.665140    0.968146   -1.095305
  36 C     6.0000    0    12.011    3.488135    0.847067    1.415788
  37 H     1.0000    0     1.008    0.159898    1.949788    3.708789
  38 H     1.0000    0     1.008   -0.325635    2.087603    0.416140
  39 C     6.0000    0    12.011    4.070704   -1.931583    0.628297
  40 H     1.0000    0     1.008    4.590811    1.379237    3.083501
  41 H     1.0000    0     1.008    4.036470    2.151088   -0.098778
  42 H     1.0000    0     1.008    4.644847   -2.990201    2.327361
  43 C     6.0000    0    12.011    6.303582   -2.099219   -1.255152
  44 C     6.0000    0    12.011    0.724240   -2.084850   -2.824045
  45 H     1.0000    0     1.008   -1.297997   -2.332670   -3.178390
  46 H     1.0000    0     1.008    1.759954   -3.142026   -4.271863
  47 H     1.0000    0     1.008    1.154199   -0.078323   -3.084384
  48 H     1.0000    0     1.008    5.766252   -0.991428   -2.935898
  49 C     6.0000    0    12.011    6.886310   -4.798879   -2.100397
  50 C     6.0000    0    12.011    8.562018   -0.797479   -0.091696
  51 C     6.0000    0    12.011   10.671661   -1.893223    0.739781
  52 H     1.0000    0     1.008    8.383219    1.243621    0.147282
  53 H     1.0000    0     1.008   10.921917   -3.934200    0.550993
  54 C     6.0000    0    12.011   12.835688   -0.527704    1.975394
  55 C     6.0000    0    12.011   15.253043   -0.952205    0.423972
  56 C     6.0000    0    12.011   13.141438   -1.379278    4.761539
  57 H     1.0000    0     1.008   12.404481    1.509226    1.990907
  58 H     1.0000    0     1.008   13.447353   -3.439553    4.745624
  59 C     6.0000    0    12.011   10.742625   -0.825140    6.282008
  60 C     6.0000    0    12.011   15.419867   -0.132838    6.038601
  61 H     1.0000    0     1.008   14.926820   -0.472891   -1.562272
  62 H     1.0000    0     1.008   15.834360   -2.940930    0.512453
  63 H     1.0000    0     1.008   16.821453    0.207323    1.108139
  64 H     1.0000    0     1.008   10.953993   -1.452188    8.243727
  65 H     1.0000    0     1.008    9.089431   -1.765952    5.471183
  66 H     1.0000    0     1.008   10.360776    1.214301    6.303842
  67 H     1.0000    0     1.008   15.277817    1.933478    5.918711
  68 H     1.0000    0     1.008   17.213107   -0.703258    5.184189
  69 H     1.0000    0     1.008   15.490592   -0.644348    8.043625
  70 H     1.0000    0     1.008    8.637137   -4.854448   -3.203090
  71 H     1.0000    0     1.008    5.372827   -5.548093   -3.286145
  72 H     1.0000    0     1.008    7.109995   -6.066508   -0.477016

--------------------------------
INTERNAL COORDINATES (ANGSTROEM)
--------------------------------
 C      0   0   0     0.000000000000     0.00000000     0.00000000
 C      1   0   0     1.510552129096     0.00000000     0.00000000
 C      2   1   0     1.533544364897   111.75687916     0.00000000
 H      2   1   3     1.103353485939   109.39159872   241.43788546
 H      2   1   3     1.095569246633   110.68359941   122.87971893
 C      1   2   3     1.478308087432   114.22197936    50.39386386
 C      6   1   2     1.512087026142   114.45296013   312.17459566
 C      3   2   1     1.524487926231   110.30938856   305.02244076
 H      7   6   1     1.100631140406   108.37040071   289.88875049
 H      7   6   1     1.095103180853   110.20714159   172.70071216
 H      8   3   2     1.096365403638   109.70180939   179.18125037
 H      8   3   2     1.100499099928   108.66438790   296.64753621
 O      3   2   1     1.433691330056   111.22170263   180.31495265
 H      3   2   1     1.099025776838   109.02906734    65.15441495
 C      1   2   3     1.354182662703   120.84552597   232.51990363
 C      6   1   2     1.337999716079   123.37232223   129.96375461
 H     16   6   1     1.086457534672   121.40307215     0.64876080
 H     16   6   1     1.087434635530   120.93032987   181.35150717
 C     15   1   2     1.444490085446   126.49834421   175.24532749
 H     15   1   2     1.089144654645   116.13832906   357.93536654
 C     19  15   1     1.350430770405   126.38275397   175.97420096
 H     19  15   1     1.087603296155   115.92625055   355.26837067
 C     21  19  15     1.507647004440   125.69690346   357.17662163
 C     23  21  19     1.540043508215   111.77350650   127.72277622
 H     23  21  19     1.093426086085   112.34898497     3.63176197
 H     23  21  19     1.101867511048   107.75107246   246.40313531
 C     24  23  21     1.534865053515   112.68905470    50.90476097
 H     24  23  21     1.097340205580   109.04142869   288.83481554
 H     24  23  21     1.096916371472   109.17177293   172.85296825
 C     27  24  23     1.535360331680   111.84725686   306.14391982
 H     27  24  23     1.094711090535   108.88115898   182.60725174
 H     27  24  23     1.100508126779   109.23009384    66.12860180
 C     21  19  15     1.498146732160   122.82177491   177.75034472
 H     33  21  19     1.105804097468   106.27334931   124.12682439
 C     33  21  19     1.525248576052   121.03313607     1.96585709
 H     13   3   2     0.966586086442   107.56930369    62.73940643
 C     35  33  21     1.548654772120   103.56235381   196.49050228
 H     35  33  21     1.095053687679   112.12371113    74.52867208
 H     35  33  21     1.095682459050   110.76435877   314.88740233
 C     30  27  24     1.554526562291   116.05968996   166.08226554
 H     37  35  33     1.094816982686   111.77189981   248.93774933
 H     37  35  33     1.096693764095   110.48897340   130.36515167
 H     40  30  27     1.102052609265   106.42914107   320.44382621
 C     40  30  27     1.548350015644   118.92671318    80.65721435
 C     30  27  24     1.534215389456   111.13095758   294.16321892
 H     45  30  27     1.094312178364   111.40861123    66.38130208
 H     45  30  27     1.095601202143   110.65159356   306.28075927
 H     45  30  27     1.094615241662   111.65870299   186.38339692
 H     44  40  30     1.102522743397   106.97805076    61.67095672
 C     44  40  30     1.528412818771   113.32175511   302.46613076
 C     44  40  30     1.510584806528   108.37724432   176.59037459
 C     51  44  40     1.332707491637   126.79041698   110.23388061
 H     51  44  40     1.091590021409   115.45866765   292.86457295
 H     52  51  44     1.092704074503   120.09133181     2.22107062
 C     52  51  44     1.503682296130   124.91954688   182.40323155
 C     55  52  51     1.536502474131   109.35630772   239.30696499
 C     55  52  51     1.550160939737   110.69331625   115.12151924
 H     55  52  51     1.101815822749   108.39961604   357.57927713
 H     57  55  52     1.102235921137   107.19364018    58.17525913
 C     57  55  52     1.531252759572   110.95066590   300.02662673
 C     57  55  52     1.531484641989   112.12691285   176.88368262
 H     56  55  52     1.094940333208   110.35172334    52.25965807
 H     56  55  52     1.097425797100   110.53467829   292.98909409
 H     56  55  52     1.093810625321   111.89175358   172.41995308
 H     60  57  55     1.095563516976   110.80886365   179.22444223
 H     60  57  55     1.094209390629   111.69176198    58.27554391
 H     60  57  55     1.098040088393   110.26138637   298.55249477
 H     61  57  55     1.097862871471   110.45977562    56.16155817
 H     61  57  55     1.093632625784   112.44576109   295.32436148
 H     61  57  55     1.095635636058   110.35360030   175.16681215
 H     50  44  40     1.095334872889   110.58841533   188.25428313
 H     50  44  40     1.091946552447   111.07290995    68.69211067
 H     50  44  40     1.096340622202   111.36890827   308.40040954

---------------------------
INTERNAL COORDINATES (A.U.)
---------------------------
 C      0   0   0     0.000000000000     0.00000000     0.00000000
 C      1   0   0     2.854529835003     0.00000000     0.00000000
 C      2   1   0     2.897978863873   111.75687916     0.00000000
 H      2   1   3     2.085035917331   109.39159872   241.43788546
 H      2   1   3     2.070325836883   110.68359941   122.87971893
 C      1   2   3     2.793597426807   114.22197936    50.39386386
 C      6   1   2     2.857430370063   114.45296013   312.17459566
 C      3   2   1     2.880864675046   110.30938856   305.02244076
 H      7   6   1     2.079891429832   108.37040071   289.88875049
 H      7   6   1     2.069445100197   110.20714159   172.70071216
 H      8   3   2     2.071830355582   109.70180939   179.18125037
 H      8   3   2     2.079641909490   108.66438790   296.64753621
 O      3   2   1     2.709283974383   111.22170263   180.31495265
 H      3   2   1     2.076857732343   109.02906734    65.15441495
 C      1   2   3     2.559034367813   120.84552597   232.51990363
 C      6   1   2     2.528453030654   123.37232223   129.96375461
 H     16   6   1     2.053107196665   121.40307215     0.64876080
 H     16   6   1     2.054953649692   120.93032987   181.35150717
 C     15   1   2     2.729690664657   126.49834421   175.24532749
 H     15   1   2     2.058185117502   116.13832906   357.93536654
 C     19  15   1     2.551944318885   126.38275397   175.97420096
 H     19  15   1     2.055272372083   115.92625055   355.26837067
 C     21  19  15     2.849039945018   125.69690346   357.17662163
 C     23  21  19     2.910260464850   111.77350650   127.72277622
 H     23  21  19     2.066275850386   112.34898497     3.63176197
 H     23  21  19     2.082227831746   107.75107246   246.40313531
 C     24  23  21     2.900474603669   112.68905470    50.90476097
 H     24  23  21     2.073672464287   109.04142869   288.83481554
 H     24  23  21     2.072871533896   109.17177293   172.85296825
 C     27  24  23     2.901410543762   111.84725686   306.14391982
 H     27  24  23     2.068704156877   108.88115898   182.60725174
 H     27  24  23     2.079658967767   109.23009384    66.12860180
 C     21  19  15     2.831087032212   122.82177491   177.75034472
 H     33  21  19     2.089666901983   106.27334931   124.12682439
 C     33  21  19     2.882302094891   121.03313607     1.96585709
 H     13   3   2     1.826582988233   107.56930369    62.73940643
 C     35  33  21     2.926533395298   103.56235381   196.49050228
 H     35  33  21     2.069351571654   112.12371113    74.52867208
 H     35  33  21     2.070539777346   110.76435877   314.88740233
 C     30  27  24     2.937629470637   116.05968996   166.08226554
 H     37  35  33     2.068904264042   111.77189981   248.93774933
 H     37  35  33     2.072450866919   110.48897340   130.36515167
 H     40  30  27     2.082577616685   106.42914107   320.44382621
 C     40  30  27     2.925957489020   118.92671318    80.65721435
 C     30  27  24     2.899246916519   111.13095758   294.16321892
 H     45  30  27     2.067950322122   111.40861123    66.38130208
 H     45  30  27     2.070386224045   110.65159356   306.28075927
 H     45  30  27     2.068523028757   111.65870299   186.38339692
 H     44  40  30     2.083466041440   106.97805076    61.67095672
 C     44  40  30     2.888281647052   113.32175511   302.46613076
 C     44  40  30     2.854591586400   108.37724432   176.59037459
 C     51  44  40     2.518452175818   126.79041698   110.23388061
 H     51  44  40     2.062806190985   115.45866765   292.86457295
 H     52  51  44     2.064911446230   120.09133181     2.22107062
 C     52  51  44     2.841547732112   124.91954688   182.40323155
 C     55  52  51     2.903568880200   109.35630772   239.30696499
 C     55  52  51     2.929379639605   110.69331625   115.12151924
 H     55  52  51     2.082130155016   108.39961604   357.57927713
 H     57  55  52     2.082924025919   107.19364018    58.17525913
 C     57  55  52     2.893648357402   110.95066590   300.02662673
 C     57  55  52     2.894086551665   112.12691285   176.88368262
 H     56  55  52     2.069137362747   110.35172334    52.25965807
 H     56  55  52     2.073834208820   110.53467829   292.98909409
 H     56  55  52     2.067002524229   111.89175358   172.41995308
 H     60  57  55     2.070315009400   110.80886365   179.22444223
 H     60  57  55     2.067756081454   111.69176198    58.27554391
 H     60  57  55     2.074995051130   110.26138637   298.55249477
 H     61  57  55     2.074660159681   110.45977562    56.16155817
 H     61  57  55     2.066666153853   112.44576109   295.32436148
 H     61  57  55     2.070451294714   110.35360030   175.16681215
 H     50  44  40     2.069882934693   110.58841533   188.25428313
 H     50  44  40     2.063479937004   111.07290995    68.69211067
 H     50  44  40     2.071783525454   111.36890827   308.40040954

---------------------
BASIS SET INFORMATION
---------------------
There are 3 groups of distinct atoms

 Group   1 Type C   : 7s4p1d contracted to 3s2p1d pattern {511/31/1}
 Group   2 Type H   : 4s1p contracted to 2s1p pattern {31/1}
 Group   3 Type O   : 7s4p1d contracted to 3s2p1d pattern {511/31/1}

Atom   0C    basis set group =>   1
Atom   1C    basis set group =>   1
Atom   2C    basis set group =>   1
Atom   3H    basis set group =>   2
Atom   4H    basis set group =>   2
Atom   5C    basis set group =>   1
Atom   6C    basis set group =>   1
Atom   7C    basis set group =>   1
Atom   8H    basis set group =>   2
Atom   9H    basis set group =>   2
Atom  10H    basis set group =>   2
Atom  11H    basis set group =>   2
Atom  12O    basis set group =>   3
Atom  13H    basis set group =>   2
Atom  14C    basis set group =>   1
Atom  15C    basis set group =>   1
Atom  16H    basis set group =>   2
Atom  17H    basis set group =>   2
Atom  18C    basis set group =>   1
Atom  19H    basis set group =>   2
Atom  20C    basis set group =>   1
Atom  21H    basis set group =>   2
Atom  22C    basis set group =>   1
Atom  23C    basis set group =>   1
Atom  24H    basis set group =>   2
Atom  25H    basis set group =>   2
Atom  26C    basis set group =>   1
Atom  27H    basis set group =>   2
Atom  28H    basis set group =>   2
Atom  29C    basis set group =>   1
Atom  30H    basis set group =>   2
Atom  31H    basis set group =>   2
Atom  32C    basis set group =>   1
Atom  33H    basis set group =>   2
Atom  34C    basis set group =>   1
Atom  35H    basis set group =>   2
Atom  36C    basis set group =>   1
Atom  37H    basis set group =>   2
Atom  38H    basis set group =>   2
Atom  39C    basis set group =>   1
Atom  40H    basis set group =>   2
Atom  41H    basis set group =>   2
Atom  42H    basis set group =>   2
Atom  43C    basis set group =>   1
Atom  44C    basis set group =>   1
Atom  45H    basis set group =>   2
Atom  46H    basis set group =>   2
Atom  47H    basis set group =>   2
Atom  48H    basis set group =>   2
Atom  49C    basis set group =>   1
Atom  50C    basis set group =>   1
Atom  51C    basis set group =>   1
Atom  52H    basis set group =>   2
Atom  53H    basis set group =>   2
Atom  54C    basis set group =>   1
Atom  55C    basis set group =>   1
Atom  56C    basis set group =>   1
Atom  57H    basis set group =>   2
Atom  58H    basis set group =>   2
Atom  59C    basis set group =>   1
Atom  60C    basis set group =>   1
Atom  61H    basis set group =>   2
Atom  62H    basis set group =>   2
Atom  63H    basis set group =>   2
Atom  64H    basis set group =>   2
Atom  65H    basis set group =>   2
Atom  66H    basis set group =>   2
Atom  67H    basis set group =>   2
Atom  68H    basis set group =>   2
Atom  69H    basis set group =>   2
Atom  70H    basis set group =>   2
Atom  71H    basis set group =>   2
Atom  72H    basis set group =>   2

-------------------------
BASIS SET IN INPUT FORMAT
-------------------------

 # Basis set for element : H 
 NewGTO H 
 S 3 
   1      13.0107010000      0.0334854848
   2       1.9622572000      0.2347218709
   3       0.4445379600      0.8137702853
 S 1 
   1       0.1219496200      1.0000000000
 P 1 
   1       0.8000000000      1.0000000000
  end;

 # Basis set for element : C 
 NewGTO C 
 S 5 
   1    1238.4016938000      0.0055173650
   2     186.2900499200      0.0410888285
   3      42.2511763460      0.1822538213
   4      11.6765579320      0.4682845944
   5       3.5930506482      0.4457581734
 S 1 
   1       0.4024514736      1.0000000000
 S 1 
   1       0.1309018267      1.0000000000
 P 3 
   1       9.4680970621      0.0568883320
   2       2.0103545142      0.3129405934
   3       0.5477100471      0.7606501651
 P 1 
   1       0.1526861379      1.0000000000
 D 1 
   1       0.8000000000      1.0000000000
  end;

 # Basis set for element : O 
 NewGTO O 
 S 5 
   1    2266.1767785000     -0.0053893504
   2     340.8701019100     -0.0402347214
   3      77.3631351670     -0.1800818421
   4      21.4796449400     -0.4682885766
   5       6.6589433124     -0.4469261716
 S 1 
   1       0.8097597567      1.0000000000
 S 1 
   1       0.2553077223      1.0000000000
 P 3 
   1      17.7215043170      0.0626302488
   2       3.8635505440      0.3333113849
   3       1.0480920883      0.7414863830
 P 1 
   1       0.2764154441      1.0000000000
 D 1 
   1       1.2000000000      1.0000000000
  end;

---------------------------------
AUXILIARY/J BASIS SET INFORMATION
---------------------------------
There are 3 groups of distinct atoms

 Group   1 Type C   : 12s5p4d2f1g contracted to 6s4p3d1f1g pattern {711111/2111/211/2/1}
 Group   2 Type H   : 5s2p1d contracted to 3s1p1d pattern {311/2/1}
 Group   3 Type O   : 12s5p4d2f1g contracted to 6s4p3d1f1g pattern {711111/2111/211/2/1}

Atom   0C    basis set group =>   1
Atom   1C    basis set group =>   1
Atom   2C    basis set group =>   1
Atom   3H    basis set group =>   2
Atom   4H    basis set group =>   2
Atom   5C    basis set group =>   1
Atom   6C    basis set group =>   1
Atom   7C    basis set group =>   1
Atom   8H    basis set group =>   2
Atom   9H    basis set group =>   2
Atom  10H    basis set group =>   2
Atom  11H    basis set group =>   2
Atom  12O    basis set group =>   3
Atom  13H    basis set group =>   2
Atom  14C    basis set group =>   1
Atom  15C    basis set group =>   1
Atom  16H    basis set group =>   2
Atom  17H    basis set group =>   2
Atom  18C    basis set group =>   1
Atom  19H    basis set group =>   2
Atom  20C    basis set group =>   1
Atom  21H    basis set group =>   2
Atom  22C    basis set group =>   1
Atom  23C    basis set group =>   1
Atom  24H    basis set group =>   2
Atom  25H    basis set group =>   2
Atom  26C    basis set group =>   1
Atom  27H    basis set group =>   2
Atom  28H    basis set group =>   2
Atom  29C    basis set group =>   1
Atom  30H    basis set group =>   2
Atom  31H    basis set group =>   2
Atom  32C    basis set group =>   1
Atom  33H    basis set group =>   2
Atom  34C    basis set group =>   1
Atom  35H    basis set group =>   2
Atom  36C    basis set group =>   1
Atom  37H    basis set group =>   2
Atom  38H    basis set group =>   2
Atom  39C    basis set group =>   1
Atom  40H    basis set group =>   2
Atom  41H    basis set group =>   2
Atom  42H    basis set group =>   2
Atom  43C    basis set group =>   1
Atom  44C    basis set group =>   1
Atom  45H    basis set group =>   2
Atom  46H    basis set group =>   2
Atom  47H    basis set group =>   2
Atom  48H    basis set group =>   2
Atom  49C    basis set group =>   1
Atom  50C    basis set group =>   1
Atom  51C    basis set group =>   1
Atom  52H    basis set group =>   2
Atom  53H    basis set group =>   2
Atom  54C    basis set group =>   1
Atom  55C    basis set group =>   1
Atom  56C    basis set group =>   1
Atom  57H    basis set group =>   2
Atom  58H    basis set group =>   2
Atom  59C    basis set group =>   1
Atom  60C    basis set group =>   1
Atom  61H    basis set group =>   2
Atom  62H    basis set group =>   2
Atom  63H    basis set group =>   2
Atom  64H    basis set group =>   2
Atom  65H    basis set group =>   2
Atom  66H    basis set group =>   2
Atom  67H    basis set group =>   2
Atom  68H    basis set group =>   2
Atom  69H    basis set group =>   2
Atom  70H    basis set group =>   2
Atom  71H    basis set group =>   2
Atom  72H    basis set group =>   2

-------------------------------------
AUXILIARY/J BASIS SET IN INPUT FORMAT
-------------------------------------

 # Auxiliary/J basis set for element : H 
 NewAuxJGTO H 
 S 3 
   1      15.6752927000      0.1007184237
   2       3.6063578000      0.3404257499
   3       1.2080016000      0.6491996172
 S 1 
   1       0.4726794000      1.0000000000
 S 1 
   1       0.2018100000      1.0000000000
 P 2 
   1       2.0281365000      0.5596620919
   2       0.5358730000      0.5596620919
 D 1 
   1       2.2165124000      1.0000000000
  end;

 # Auxiliary/J basis set for element : C 
 NewAuxJGTO C 
 S 7 
   1    1861.0916331000      0.0134602335
   2     642.9939764000      0.0299160374
   3     235.1105725000      0.1008649584
   4      90.7028894000      0.2370970548
   5      36.7794552000      0.3924037254
   6      15.6046273000      0.3195862154
   7       6.8907294000      0.0530104441
 S 1 
   1       3.1478850000     -1.0000000000
 S 1 
   1       1.4777287000      1.0000000000
 S 1 
   1       0.7076466000      1.0000000000
 S 1 
   1       0.3430122000      1.0000000000
 S 1 
   1       0.1669453000      1.0000000000
 P 2 
   1      13.5472892000     -0.6769313712
   2       5.4669419000     -0.3779500978
 P 1 
   1       2.1751721000      1.0000000000
 P 1 
   1       0.8582194000      1.0000000000
 P 1 
   1       0.3376720000      1.0000000000
 D 2 
   1       5.9287253000     -0.3533329857
   2       1.9809209000     -0.7456525731
 D 1 
   1       0.8055417000     -1.0000000000
 D 1 
   1       0.3531244000     -1.0000000000
 F 2 
   1       1.6755626000      0.6311076882
   2       0.5997536000      0.4968166032
 G 1 
   1       1.0024600000     -1.0000000000
  end;

 # Auxiliary/J basis set for element : O 
 NewAuxJGTO O 
 S 7 
   1    2876.8216605000      0.0168151159
   2    1004.7443032000      0.0340137548
   3     369.7579954000      0.1194951309
   4     142.9442404000      0.2664627624
   5      57.8366425000      0.4202764046
   6      24.3864983000      0.2765077335
   7      10.6622662000      0.0057008815
 S 1 
   1       4.8070437000     -1.0000000000
 S 1 
   1       2.2210770000      1.0000000000
 S 1 
   1       1.0447795000      1.0000000000
 S 1 
   1       0.4968425000      1.0000000000
 S 1 
   1       0.2371384000      1.0000000000
 P 2 
   1      64.2613382000     -0.2731534179
   2      16.3006076000     -0.8168011598
 P 1 
   1       4.3550542000      1.0000000000
 P 1 
   1       1.2019554000      1.0000000000
 P 1 
   1       0.3354196000      1.0000000000
 D 2 
   1       9.2146611000     -0.4661230638
   2       2.8435251000     -0.6600908911
 D 1 
   1       0.9955759000     -1.0000000000
 D 1 
   1       0.3649441000     -1.0000000000
 F 2 
   1       2.6420115000      0.5931563945
   2       0.7345613000      0.5931563945
 G 1 
   1       1.3931000000     -1.0000000000
  end;


Checking for AutoStart:
The File: inpS.gbw exists
Trying to determine its content:
     ... Fine, the file contains calculation information
     ... Fine, the calculation information was read
     ... Fine, the file contains a basis set
     ... Fine, the basis set was read
     ... Fine, the file contains a geometry
     ... Fine, the geometry was read
     ... Fine, the file contains a set of orbitals
     ... Fine, the orbitals can be read
     => possible old guess file was deleted
     => GBW file was renamed to GES file
     => GES file is set as startup file
     => Guess is set to MORead
     ... now leaving AutoStart



           ************************************************************
           *        Program running with 4 parallel MPI-processes     *
           *              working on a common directory               *
           ************************************************************
------------------------------------------------------------------------------
                             ORCA STARTUP CALCULATIONS
                           -- RI-GTO INTEGRALS CHOSEN --
------------------------------------------------------------------------------
------------------------------------------------------------------------------
                   ___                                                        
                  /   \      - P O W E R E D   B Y -                         
                 /     \                                                     
                 |  |  |   _    _      __       _____    __    __             
                 |  |  |  | |  | |    /  \     |  _  \  |  |  /  |          
                  \  \/   | |  | |   /    \    | | | |  |  | /  /          
                 / \  \   | |__| |  /  /\  \   | |_| |  |  |/  /          
                |  |  |   |  __  | /  /__\  \  |    /   |      \           
                |  |  |   | |  | | |   __   |  |    \   |  |\   \          
                \     /   | |  | | |  |  |  |  | |\  \  |  | \   \       
                 \___/    |_|  |_| |__|  |__|  |_| \__\ |__|  \__/        
                                                                              
                      - O R C A' S   B I G   F R I E N D -                    
                                      &                                       
                       - I N T E G R A L  F E E D E R -                       
                                                                              
 v1 FN, 2020, v2 2021, v3 2022-2024                                           
------------------------------------------------------------------------------


----------------------
SHARK INTEGRAL PACKAGE
----------------------

Number of atoms                             ...     73
Number of basis functions                   ...    626
Number of shells                            ...    306
Maximum angular momentum                    ...      2
Integral batch strategy                     ... SHARK/LIBINT Hybrid
RI-J (if used) integral strategy            ... SPLIT-RIJ (Revised 2003 algorithm where possible)
Printlevel                                  ...      1
Contraction scheme used                     ... SEGMENTED contraction
Prescreening option                         ... SCHWARTZ
   Thresh                                   ... 3.000e-11
   Tcut                                     ... 1.000e-12
   Tpresel                                  ... 1.000e-12 
Coulomb Range Separation                    ... NOT USED
Exchange Range Separation                   ... Long Range
   Mu parameter                             ... 3.000e-01
   Scaling (regular/separated)              ... 1.670e-01 8.330e-01
Multipole approximations                    ... NOT USED
Finite Nucleus Model                        ... NOT USED
CABS basis                                  ... NOT available
Auxiliary Coulomb fitting basis             ... AVAILABLE
   # of basis functions in Aux-J            ...   1905
   # of shells in Aux-J                     ...    655
   Maximum angular momentum in Aux-J        ...      4
Auxiliary J/K fitting basis                 ... NOT available
Auxiliary Correlation fitting basis         ... NOT available
Auxiliary 'external' fitting basis          ... NOT available

Checking pre-screening integrals            ... done (  0.0 sec) Dimension = 306
Check shell pair data                       ... done (  0.0 sec)
Shell pair information
Shell pair cut-off parameter TPreSel        ...   1.0e-12
Total number of shell pairs                 ...     46971
Shell pairs after pre-screening             ...     27381
Total number of primitive shell pairs       ...    162105
Primitive shell pairs kept                  ...     60379
          la=0 lb=0:   9589 shell pairs
          la=1 lb=0:  10510 shell pairs
          la=1 lb=1:   2893 shell pairs
          la=2 lb=0:   2728 shell pairs
          la=2 lb=1:   1466 shell pairs
          la=2 lb=2:    195 shell pairs

Calculating one electron integrals          ... done (  0.1 sec)
Calculating RI/J V-Matrix + Cholesky decomp.... done (  0.2 sec)
Calculating Nuclear repulsion               ... done (  0.0 sec) ENN=   2762.965631719105 Eh

Diagonalization of the overlap matrix:
Smallest eigenvalue                        ... 4.455e-04
Time for diagonalization                   ...    0.051 sec
Threshold for overlap eigenvalues          ... 1.000e-07
Number of eigenvalues below threshold      ... 0
Time for construction of square roots      ...    0.031 sec
Total time needed                          ...    0.085 sec

-------------------
DFT GRID GENERATION
-------------------

General Integration Accuracy     IntAcc      ... 4.388
Radial Grid Type                 RadialGrid  ... OptM3 with GC (2021)
Angular Grid (max. ang.)         AngularGrid ... 4 (Lebedev-302)
Angular grid pruning method      GridPruning ... 4 (adaptive)
Weight generation scheme         WeightScheme... mBecke (2022)
Basis function cutoff            BFCut       ... 1.0000e-11
Integration weight cutoff        WCut        ... 1.0000e-14
Partially contracted basis set               ... off
Rotationally invariant grid construction     ... off
Angular grids for H and He will be reduced by one unit

Total number of grid points                  ...   309882
Total number of batches                      ...     4874
Average number of points per batch           ...       63
Average number of grid points per atom       ...     4245

--------------------
COSX GRID GENERATION
--------------------

GRIDX 1
-------
General Integration Accuracy     IntAcc      ... 3.816
Radial Grid Type                 RadialGrid  ... OptM3 with GC (2021)
Angular Grid (max. ang.)         AngularGrid ... 1 (Lebedev-50)
Angular grid pruning method      GridPruning ... 4 (adaptive)
Weight generation scheme         WeightScheme... mBecke (2022)
Basis function cutoff            BFCut       ... 1.0000e-11
Integration weight cutoff        WCut        ... 1.0000e-14
Partially contracted basis set               ... on
Rotationally invariant grid construction     ... off
Angular grids for H and He will be reduced by one unit

Total number of grid points                  ...    39439
Total number of batches                      ...      354
Average number of points per batch           ...      111
Average number of grid points per atom       ...      540
UseSFitting                                  ... on

GRIDX 2
-------
General Integration Accuracy     IntAcc      ... 4.020
Radial Grid Type                 RadialGrid  ... OptM3 with GC (2021)
Angular Grid (max. ang.)         AngularGrid ... 2 (Lebedev-110)
Angular grid pruning method      GridPruning ... 4 (adaptive)
Weight generation scheme         WeightScheme... mBecke (2022)
Basis function cutoff            BFCut       ... 1.0000e-11
Integration weight cutoff        WCut        ... 1.0000e-14
Partially contracted basis set               ... on
Rotationally invariant grid construction     ... off
Angular grids for H and He will be reduced by one unit

Total number of grid points                  ...    81484
Total number of batches                      ...      678
Average number of points per batch           ...      120
Average number of grid points per atom       ...     1116
UseSFitting                                  ... on

GRIDX 3
-------
General Integration Accuracy     IntAcc      ... 4.338
Radial Grid Type                 RadialGrid  ... OptM3 with GC (2021)
Angular Grid (max. ang.)         AngularGrid ... 3 (Lebedev-194)
Angular grid pruning method      GridPruning ... 4 (adaptive)
Weight generation scheme         WeightScheme... mBecke (2022)
Basis function cutoff            BFCut       ... 1.0000e-11
Integration weight cutoff        WCut        ... 1.0000e-14
Partially contracted basis set               ... on
Rotationally invariant grid construction     ... off
Angular grids for H and He will be reduced by one unit

Total number of grid points                  ...   176429
Total number of batches                      ...     1418
Average number of points per batch           ...      124
Average number of grid points per atom       ...     2417
UseSFitting                                  ... on
Initializing property integral containers    ... done (  0.0 sec)

SHARK setup successfully completed in   4.5 seconds

Maximum memory used throughout the entire STARTUP-calculation: 95.3 MB


           ************************************************************
           *        Program running with 4 parallel MPI-processes     *
           *              working on a common directory               *
           ************************************************************
-------------------------------------------------------------------------------
                                 ORCA GUESS
                   Start orbitals & Density for SCF / CASSCF
-------------------------------------------------------------------------------

------------
SCF SETTINGS
------------
Hamiltonian:
 Density Functional     Method          .... DFT(GTOs)
 Exchange Functional    Exchange        .... WB97X-V
 Correlation Functional Correlation     .... WB97X-V
 Gradients option       PostSCFGGA      .... off
 Hybrid DFT is turned on
   Fraction HF Exchange ScalHFX         ....  0.167000
   Scaling of DF-GGA-X  ScalDFX         ....  0.000000
   Scaling of DF-GGA-C  ScalDFC         ....  1.000000
   Scaling of DF-LDA-C  ScalLDAC        ....  1.000000
   Perturbative correction              ....  0.000000
 Long-range corrected/Screened/Range-Separated Hybrid DFT is turned on
   Amount of maximum screened exact exchange              ....  0.833000
   Range separation parameter mu (erf(mu*r12)/r12)        ....  0.300000
 RI-approximation to the Coulomb term is turned on
   Number of AuxJ basis functions       .... 1905
   RIJ-COSX (HFX calculated with COS-X)).... on


General Settings:
 Integral files         IntName         .... inpS
 Hartree-Fock type      HFTyp           .... RHF
 Total Charge           Charge          ....    0
 Multiplicity           Mult            ....    1
 Number of Electrons    NEL             ....  220
 Basis Dimension        Dim             ....  626
 Nuclear Repulsion      ENuc            ....   2762.9656317191 Eh

Convergence Acceleration:
 AO-DIIS                CNVDIIS         .... on
   Start iteration      DIISMaxIt       ....    12
   Startup error        DIISStart       ....  0.200000
   # of expansion vecs  DIISMaxEq       ....     5
   Bias factor          DIISBfac        ....   1.050
   Max. coefficient     DIISMaxC        ....  10.000
 MO-DIIS                CNVKDIIS        .... off
 Trust-Rad. Augm. Hess. CNVTRAH         .... auto
   Auto Start mean grad. ratio tolernc. ....  1.125000
   Auto Start start iteration           ....     1
   Auto Start num. interpolation iter.  ....    10
   Max. Number of Micro iterations      ....    24
   Max. Number of Macro iterations      .... Maxiter - #DIIS iter
   Number of Davidson start vectors     ....     2
   Converg. threshold    (grad. norm)   ....   1.000e-04
   Grad. Scal. Fac. for Micro threshold ....   0.100
   Minimum threshold for Micro iter.    ....   1.000e-02
   NR start threshold (gradient norm)   ....   1.000e-04
   Initial trust radius                 ....   0.400
   Minimum AH scaling param. (alpha)    ....   1.000
   Maximum AH scaling param. (alpha)    .... 1000.000
   Quad. conv. algorithm                .... NR
   White noise on init. David. guess    .... on
   Maximum white noise                  ....   0.010
   Pseudo random numbers                .... off
   Inactive MOs                         .... canonical
   Orbital update algorithm             .... Taylor
   Preconditioner                       .... Diag
   Full preconditioner red. dimension   ....   250
 SOSCF                  CNVSOSCF        .... off
 Level Shifting         CNVShift        .... on
   Level shift para.    LevelShift      ....    0.2500
   Turn off err/grad.   ShiftErr        ....    0.0010
 Zerner damping         CNVZerner       .... off
 Static damping         CNVDamp         .... on
   Fraction old density DampFac         ....    0.7000
   Max. Damping (<1)    DampMax         ....    0.9800
   Min. Damping (>=0)   DampMin         ....    0.0000
   Turn off err/grad.   DampErr         ....    0.1000

SCF Procedure:
 Maximum # iterations   MaxIter         ....   125
 SCF integral mode      SCFMode         .... Direct
   Integral package                     .... SHARK and LIBINT hybrid scheme
 Reset frequency        DirectResetFreq ....    20
 Integral Threshold     Thresh          ....  3.000e-11 Eh
 Primitive CutOff       TCut            ....  1.000e-12 Eh

Convergence Tolerance:
 Convergence Check Mode ConvCheckMode   .... Total+1el-Energy
 Convergence forced     ConvForced      .... 0
 Energy Change          TolE            ....  1.000e-07 Eh
 1-El. energy change                    ....  1.000e-04 Eh
 DIIS Error             TolErr          ....  1.000e-07

---------------------
INITIAL GUESS: MOREAD
---------------------
Guess MOs are being read from file: inpS.ges
Input Geometry matches current geometry (good)
Input basis set matches current basis set (good)
Occupation numbers will be reassigned to an Aufbau configuration
MOs were renormalized
MOs were reorthogonalized (Cholesky)
                      ------------------
                      INITIAL GUESS DONE (   0.2 sec)
                      ------------------
             **** ENERGY FILE WAS UPDATED (inpS.en.tmp) ****
Finished Guess after   0.3 sec
Maximum memory used throughout the entire GUESS-calculation: 52.2 MB


           ************************************************************
           *        Program running with 4 parallel MPI-processes     *
           *              working on a common directory               *
           ************************************************************

-------------------------------------------------------------------------------------------
                                      ORCA LEAN-SCF
                              memory conserving SCF solver
-------------------------------------------------------------------------------------------

--------------------
CPCM SOLVATION MODEL
--------------------
CPCM parameters:
  Epsilon                                         ...       4.8030
  Refrac                                          ...       1.4459
  Rsolv                                           ...       1.3000
  Surface type                                    ... GAUSSIAN VDW
  Discretization scheme                           ... Constant charge density
    Threshold for H atoms                         ...       5.0000 (charges/Ang^2)
    Threshold for non-H atoms                     ...       5.0000 (charges/Ang^2)
  Epsilon function type                           ...         CPCM
Solvent:                                          ... CHLOROFORM
Radii:
  Scheme                                          ... Element-dependent radii
  Radius for C  used is    3.8550 Bohr (=   2.0400 Ang.)
  Radius for H  used is    2.4944 Bohr (=   1.3200 Ang.)
  Radius for O  used is    3.4469 Bohr (=   1.8240 Ang.)
Calculating surface                               ...        done! (  0.0s)
Cavity surface points                             ...         5406
Cavity Volume                                     ...    3615.1081
Cavity Surface-area                               ...    1812.4340
Calculating surface distance matrix               ...        done! (  0.2s)
Performing Cholesky decomposition & store         ...        done! (  1.0s)
Overall time for CPCM initialization              ...                 1.2s

----------------------------------------D-I-I-S--------------------------------------------
Iteration    Energy (Eh)           Delta-E    RMSDP     MaxDP     DIISErr   Damp  Time(sec)
-------------------------------------------------------------------------------------------
               ***  Starting incremental Fock matrix formation  ***
    1    -1168.3627110232200721     0.00e+00  3.27e-08  1.78e-06  6.48e-06  0.700  23.7

  HOMO= 109 E= -7.884 eV LUMO=  8.090 eV gap=  15.974 eV
    2    -1168.3627110213051310     1.91e-09  2.83e-08  1.51e-06  3.26e-06  0.700   4.7
                 **** Energy Check signals convergence ****

  HOMO= 109 E= -7.884 eV LUMO=  8.090 eV gap=  15.974 eV

               *****************************************************
               *                     SUCCESS                       *
               *           SCF CONVERGED AFTER   2 CYCLES          *
               *****************************************************

Recomputing exchange energy using gridx3       ... done (   40.926 sec)
Old exchange energy                            :    -56.782352826 Eh
New exchange energy                            :    -56.782347430 Eh
Exchange energy change after final integration :      0.000005396 Eh
Total energy after final integration           :  -1168.362705625 Eh
             **** ENERGY FILE WAS UPDATED (inpS.en.tmp) ****

----------------
TOTAL SCF ENERGY
----------------

Total Energy       :      -1168.36270562522282 Eh          -31792.76553 eV

Components:
Nuclear Repulsion  :       2762.96563171910520 Eh           75184.11713 eV
Electronic Energy  :      -3931.31782404828436 Eh         -106976.59658 eV
One Electron Energy:      -7071.18037754719353 Eh         -192416.60034 eV
Two Electron Energy:       3139.86255349890916 Eh           85440.00377 eV
CPCM Dielectric    :         -0.01051869212594 Eh              -0.28623 eV

Virial components:
Potential Energy   :      -2321.68717340200828 Eh          -63176.31981 eV
Kinetic Energy     :       1153.32446777678547 Eh           31383.55428 eV
Virial Ratio       :          2.01303903478041

DFT components:
N(Alpha)           :      110.000184581962 electrons
N(Beta)            :      110.000184581962 electrons
N(Total)           :      220.000369163925 electrons
E(X)               :     -111.769534157791 Eh       
E(C)               :       -8.950611000746 Eh       
E(XC)              :     -120.720145158537 Eh       

CPCM Solvation Model Properties:
Surface-charge          :         -0.04179389523956
Corrected charge        :         -0.00000000000000
Outlying charge corr.   :          0.00006081455716 Eh               0.00165 eV
Free-energy (cav+disp)  :  This term is not implemented in the current solvation scheme

---------------
SCF CONVERGENCE
---------------

  Last Energy change         ...   -1.9149e-09  Tolerance :   1.0000e-07
  Last MAX-Density change    ...    1.5084e-06  Tolerance :   1.0000e-05
  Last RMS-Density change    ...    2.8268e-08  Tolerance :   1.0000e-06
  Last DIIS Error            ...    3.2643e-06  Tolerance :   1.0000e-07


----------------
ORBITAL ENERGIES
----------------

  NO   OCC          E(Eh)            E(eV) 
   0   2.0000     -19.213699      -522.8313 
   1   2.0000     -10.329785      -281.0878 
   2   2.0000     -10.293505      -280.1005 
   3   2.0000     -10.290284      -280.0129 
   4   2.0000     -10.286214      -279.9021 
   5   2.0000     -10.286187      -279.9014 
   6   2.0000     -10.285145      -279.8730 
   7   2.0000     -10.283140      -279.8185 
   8   2.0000     -10.282031      -279.7883 
   9   2.0000     -10.280904      -279.7576 
  10   2.0000     -10.280830      -279.7556 
  11   2.0000     -10.280817      -279.7553 
  12   2.0000     -10.279453      -279.7181 
  13   2.0000     -10.278837      -279.7014 
  14   2.0000     -10.278467      -279.6913 
  15   2.0000     -10.277161      -279.6558 
  16   2.0000     -10.276791      -279.6457 
  17   2.0000     -10.276555      -279.6393 
  18   2.0000     -10.272819      -279.5376 
  19   2.0000     -10.272058      -279.5169 
  20   2.0000     -10.271680      -279.5066 
  21   2.0000     -10.271674      -279.5065 
  22   2.0000     -10.271657      -279.5060 
  23   2.0000     -10.270981      -279.4876 
  24   2.0000     -10.269782      -279.4550 
  25   2.0000     -10.268238      -279.4130 
  26   2.0000     -10.268209      -279.4122 
  27   2.0000     -10.267180      -279.3842 
  28   2.0000     -10.266126      -279.3555 
  29   2.0000      -1.131637       -30.7934 
  30   2.0000      -0.998376       -27.1672 
  31   2.0000      -0.979192       -26.6452 
  32   2.0000      -0.957478       -26.0543 
  33   2.0000      -0.942808       -25.6551 
  34   2.0000      -0.917618       -24.9697 
  35   2.0000      -0.910932       -24.7877 
  36   2.0000      -0.889595       -24.2071 
  37   2.0000      -0.887207       -24.1421 
  38   2.0000      -0.872481       -23.7414 
  39   2.0000      -0.853321       -23.2201 
  40   2.0000      -0.835183       -22.7265 
  41   2.0000      -0.828419       -22.5424 
  42   2.0000      -0.809234       -22.0204 
  43   2.0000      -0.797843       -21.7104 
  44   2.0000      -0.795249       -21.6398 
  45   2.0000      -0.787138       -21.4191 
  46   2.0000      -0.759642       -20.6709 
  47   2.0000      -0.753376       -20.5004 
  48   2.0000      -0.725448       -19.7404 
  49   2.0000      -0.713235       -19.4081 
  50   2.0000      -0.712275       -19.3820 
  51   2.0000      -0.700795       -19.0696 
  52   2.0000      -0.689933       -18.7740 
  53   2.0000      -0.668921       -18.2023 
  54   2.0000      -0.658076       -17.9072 
  55   2.0000      -0.639623       -17.4050 
  56   2.0000      -0.630849       -17.1663 
  57   2.0000      -0.620862       -16.8945 
  58   2.0000      -0.605008       -16.4631 
  59   2.0000      -0.601471       -16.3669 
  60   2.0000      -0.587745       -15.9934 
  61   2.0000      -0.584182       -15.8964 
  62   2.0000      -0.567998       -15.4560 
  63   2.0000      -0.567972       -15.4553 
  64   2.0000      -0.563544       -15.3348 
  65   2.0000      -0.561293       -15.2736 
  66   2.0000      -0.552758       -15.0413 
  67   2.0000      -0.547999       -14.9118 
  68   2.0000      -0.546580       -14.8732 
  69   2.0000      -0.540450       -14.7064 
  70   2.0000      -0.535464       -14.5707 
  71   2.0000      -0.533475       -14.5166 
  72   2.0000      -0.526259       -14.3202 
  73   2.0000      -0.521463       -14.1897 
  74   2.0000      -0.517883       -14.0923 
  75   2.0000      -0.514981       -14.0133 
  76   2.0000      -0.503961       -13.7135 
  77   2.0000      -0.501446       -13.6450 
  78   2.0000      -0.497559       -13.5393 
  79   2.0000      -0.490256       -13.3405 
  80   2.0000      -0.488186       -13.2842 
  81   2.0000      -0.486924       -13.2499 
  82   2.0000      -0.485619       -13.2144 
  83   2.0000      -0.480117       -13.0647 
  84   2.0000      -0.472976       -12.8703 
  85   2.0000      -0.467697       -12.7267 
  86   2.0000      -0.466580       -12.6963 
  87   2.0000      -0.462470       -12.5844 
  88   2.0000      -0.455187       -12.3863 
  89   2.0000      -0.450903       -12.2697 
  90   2.0000      -0.448442       -12.2027 
  91   2.0000      -0.445972       -12.1355 
  92   2.0000      -0.437108       -11.8943 
  93   2.0000      -0.431808       -11.7501 
  94   2.0000      -0.426619       -11.6089 
  95   2.0000      -0.426263       -11.5992 
  96   2.0000      -0.423227       -11.5166 
  97   2.0000      -0.421225       -11.4621 
  98   2.0000      -0.415406       -11.3038 
  99   2.0000      -0.414795       -11.2871 
 100   2.0000      -0.411162       -11.1883 
 101   2.0000      -0.407492       -11.0884 
 102   2.0000      -0.405785       -11.0420 
 103   2.0000      -0.400804       -10.9064 
 104   2.0000      -0.394669       -10.7395 
 105   2.0000      -0.381940       -10.3931 
 106   2.0000      -0.372293       -10.1306 
 107   2.0000      -0.357148        -9.7185 
 108   2.0000      -0.335475        -9.1287 
 109   2.0000      -0.289738        -7.8842 
 110   0.0000       0.047307         1.2873 
 111   0.0000       0.100438         2.7331 
 112   0.0000       0.112580         3.0635 
 113   0.0000       0.130741         3.5576 
 114   0.0000       0.144501         3.9321 
 115   0.0000       0.147015         4.0005 
 116   0.0000       0.151760         4.1296 
 117   0.0000       0.156518         4.2591 
 118   0.0000       0.157415         4.2835 
 119   0.0000       0.159277         4.3341 
 120   0.0000       0.168273         4.5789 
*Only the first 10 virtual orbitals were printed.

                    ********************************
                    * MULLIKEN POPULATION ANALYSIS *
                    ********************************

-----------------------
MULLIKEN ATOMIC CHARGES
-----------------------
   0 C :   -0.126787
   1 C :    0.143967
   2 C :    0.081564
   3 H :    0.016773
   4 H :    0.013288
   5 C :   -0.184330
   6 C :    0.111079
   7 C :    0.006731
   8 H :    0.029771
   9 H :    0.012225
  10 H :    0.023567
  11 H :    0.011390
  12 O :   -0.355181
  13 H :    0.014168
  14 C :   -0.024832
  15 C :   -0.044735
  16 H :    0.036398
  17 H :    0.029251
  18 C :   -0.060133
  19 H :   -0.006914
  20 C :   -0.116263
  21 H :    0.000699
  22 C :    0.114986
  23 C :   -0.000917
  24 H :    0.012656
  25 H :    0.017767
  26 C :    0.105527
  27 H :    0.012585
  28 H :    0.014952
  29 C :   -0.405454
  30 H :    0.008650
  31 H :   -0.002415
  32 C :   -0.043781
  33 H :    0.011551
  34 C :    0.119753
  35 H :    0.181699
  36 C :    0.049446
  37 H :    0.007600
  38 H :    0.015969
  39 C :   -0.057058
  40 H :    0.012746
  41 H :    0.009786
  42 H :   -0.003630
  43 C :   -0.019190
  44 C :    0.092899
  45 H :    0.023529
  46 H :    0.018970
  47 H :    0.019247
  48 H :    0.003562
  49 C :    0.061033
  50 C :   -0.063852
  51 C :   -0.055536
  52 H :    0.008415
  53 H :    0.007124
  54 C :   -0.067779
  55 C :    0.034741
  56 C :   -0.163045
  57 H :    0.001678
  58 H :    0.007646
  59 C :    0.032351
  60 C :    0.029218
  61 H :    0.018515
  62 H :    0.016295
  63 H :    0.026332
  64 H :    0.017220
  65 H :    0.024526
  66 H :    0.010892
  67 H :    0.013462
  68 H :    0.023711
  69 H :    0.017963
  70 H :    0.018931
  71 H :    0.029297
  72 H :    0.017734
Sum of atomic charges:   -0.0000000

--------------------------------
MULLIKEN REDUCED ORBITAL CHARGES
--------------------------------
  0 C s       :     3.077721  s :     3.077721
      pz      :     1.004536  p :     3.006227
      px      :     0.998785
      py      :     1.002905
      dz2     :     0.003122  d :     0.042840
      dxz     :     0.007025
      dyz     :     0.006064
      dx2y2   :     0.014785
      dxy     :     0.011843

  1 C s       :     2.932519  s :     2.932519
      pz      :     0.982989  p :     2.889073
      px      :     0.938298
      py      :     0.967786
      dz2     :     0.007016  d :     0.034441
      dxz     :     0.009123
      dyz     :     0.004762
      dx2y2   :     0.009058
      dxy     :     0.004482

  2 C s       :     3.075240  s :     3.075240
      pz      :     1.045284  p :     2.772035
      px      :     0.752707
      py      :     0.974045
      dz2     :     0.011746  d :     0.071161
      dxz     :     0.015714
      dyz     :     0.009172
      dx2y2   :     0.019618
      dxy     :     0.014911

  3 H s       :     0.960036  s :     0.960036
      pz      :     0.011106  p :     0.023191
      px      :     0.007400
      py      :     0.004685

  4 H s       :     0.963920  s :     0.963920
      pz      :     0.004379  p :     0.022792
      px      :     0.003803
      py      :     0.014610

  5 C s       :     3.111828  s :     3.111828
      pz      :     1.002421  p :     3.027712
      px      :     0.975745
      py      :     1.049547
      dz2     :     0.011157  d :     0.044790
      dxz     :     0.006510
      dyz     :     0.011775
      dx2y2   :     0.008547
      dxy     :     0.006800

  6 C s       :     2.949096  s :     2.949096
      pz      :     0.977066  p :     2.904353
      px      :     0.964055
      py      :     0.963232
      dz2     :     0.006977  d :     0.035472
      dxz     :     0.009207
      dyz     :     0.005041
      dx2y2   :     0.009262
      dxy     :     0.004985

  7 C s       :     3.013043  s :     3.013043
      pz      :     0.990629  p :     2.945204
      px      :     0.987890
      py      :     0.966685
      dz2     :     0.005341  d :     0.035021
      dxz     :     0.008194
      dyz     :     0.006713
      dx2y2   :     0.009627
      dxy     :     0.005147

  8 H s       :     0.946939  s :     0.946939
      pz      :     0.011725  p :     0.023290
      px      :     0.006940
      py      :     0.004625

  9 H s       :     0.964954  s :     0.964954
      pz      :     0.004614  p :     0.022821
      px      :     0.003730
      py      :     0.014477

 10 H s       :     0.953741  s :     0.953741
      pz      :     0.010944  p :     0.022692
      px      :     0.005253
      py      :     0.006495

 11 H s       :     0.965918  s :     0.965918
      pz      :     0.011245  p :     0.022692
      px      :     0.006956
      py      :     0.004492

 12 O s       :     3.726260  s :     3.726260
      pz      :     1.523908  p :     4.616718
      px      :     1.255184
      py      :     1.837627
      dz2     :     0.002755  d :     0.012203
      dxz     :     0.003985
      dyz     :     0.001553
      dx2y2   :     0.001895
      dxy     :     0.002016

 13 H s       :     0.965612  s :     0.965612
      pz      :     0.011436  p :     0.020220
      px      :     0.004683
      py      :     0.004101

 14 C s       :     3.197090  s :     3.197090
      pz      :     0.990682  p :     2.791507
      px      :     0.885181
      py      :     0.915645
      dz2     :     0.002621  d :     0.036234
      dxz     :     0.007634
      dyz     :     0.003294
      dx2y2   :     0.012167
      dxy     :     0.010518

 15 C s       :     3.122923  s :     3.122923
      pz      :     0.979818  p :     2.895565
      px      :     0.999765
      py      :     0.915982
      dz2     :     0.007041  d :     0.026247
      dxz     :     0.004216
      dyz     :     0.006947
      dx2y2   :     0.004958
      dxy     :     0.003085

 16 H s       :     0.939056  s :     0.939056
      pz      :     0.010495  p :     0.024546
      px      :     0.006265
      py      :     0.007786

 17 H s       :     0.946124  s :     0.946124
      pz      :     0.004096  p :     0.024625
      px      :     0.004664
      py      :     0.015865

 18 C s       :     3.200845  s :     3.200845
      pz      :     1.030240  p :     2.823979
      px      :     0.875318
      py      :     0.918422
      dz2     :     0.002707  d :     0.035309
      dxz     :     0.006986
      dyz     :     0.003135
      dx2y2   :     0.012444
      dxy     :     0.010036

 19 H s       :     0.982590  s :     0.982590
      pz      :     0.004687  p :     0.024324
      px      :     0.004444
      py      :     0.015192

 20 C s       :     3.099886  s :     3.099886
      pz      :     0.955321  p :     2.972370
      px      :     0.993571
      py      :     1.023477
      dz2     :     0.003328  d :     0.044008
      dxz     :     0.007182
      dyz     :     0.006951
      dx2y2   :     0.014806
      dxy     :     0.011741

 21 H s       :     0.974776  s :     0.974776
      pz      :     0.004641  p :     0.024525
      px      :     0.004326
      py      :     0.015558

 22 C s       :     2.924294  s :     2.924294
      pz      :     1.001901  p :     2.925147
      px      :     0.975540
      py      :     0.947705
      dz2     :     0.009305  d :     0.035572
      dxz     :     0.004281
      dyz     :     0.006269
      dx2y2   :     0.009927
      dxy     :     0.005791

 23 C s       :     3.001240  s :     3.001240
      pz      :     1.008315  p :     2.963230
      px      :     0.969630
      py      :     0.985285
      dz2     :     0.009432  d :     0.036447
      dxz     :     0.008065
      dyz     :     0.003308
      dx2y2   :     0.010232
      dxy     :     0.005410

 24 H s       :     0.964096  s :     0.964096
      pz      :     0.004606  p :     0.023248
      px      :     0.014067
      py      :     0.004576

 25 H s       :     0.958924  s :     0.958924
      pz      :     0.013216  p :     0.023308
      px      :     0.005100
      py      :     0.004993

 26 C s       :     2.970815  s :     2.970815
      pz      :     0.967851  p :     2.888337
      px      :     0.974428
      py      :     0.946058
      dz2     :     0.006502  d :     0.035322
      dxz     :     0.006849
      dyz     :     0.006007
      dx2y2   :     0.008816
      dxy     :     0.007148

 27 H s       :     0.964536  s :     0.964536
      pz      :     0.013186  p :     0.022879
      px      :     0.004808
      py      :     0.004885

 28 H s       :     0.962404  s :     0.962404
      pz      :     0.004561  p :     0.022645
      px      :     0.003840
      py      :     0.014244

 29 C s       :     3.254090  s :     3.254090
      pz      :     1.040144  p :     3.100414
      px      :     1.002843
      py      :     1.057427
      dz2     :     0.011657  d :     0.050950
      dxz     :     0.010176
      dyz     :     0.009575
      dx2y2   :     0.011070
      dxy     :     0.008472

 30 H s       :     0.968290  s :     0.968290
      pz      :     0.009712  p :     0.023060
      px      :     0.007084
      py      :     0.006263

 31 H s       :     0.979879  s :     0.979879
      pz      :     0.012656  p :     0.022536
      px      :     0.005241
      py      :     0.004639

 32 C s       :     3.032033  s :     3.032033
      pz      :     0.983605  p :     2.967920
      px      :     0.952954
      py      :     1.031360
      dz2     :     0.008252  d :     0.043828
      dxz     :     0.007638
      dyz     :     0.008120
      dx2y2   :     0.011064
      dxy     :     0.008754

 33 H s       :     0.967154  s :     0.967154
      pz      :     0.011854  p :     0.021295
      px      :     0.004500
      py      :     0.004941

 34 C s       :     2.896677  s :     2.896677
      pz      :     0.987890  p :     2.948734
      px      :     0.975966
      py      :     0.984878
      dz2     :     0.005537  d :     0.034836
      dxz     :     0.005831
      dyz     :     0.008215
      dx2y2   :     0.008739
      dxy     :     0.006513

 35 H s       :     0.750178  s :     0.750178
[...]
 Total          142.451          174.134          191.256  iso=     169.280

 Orientation: 
  X           0.3102639   -0.5929014    0.7431045
  Y          -0.1560679   -0.8028420   -0.5754021
  Z           0.9377522    0.0625517   -0.3416258

 --------------
 Nucleus  39C :
 --------------

Diamagnetic contribution to the shielding tensor (ppm) : 
           265.168          5.244        -8.977
             6.212        256.983         3.324
            -8.038          2.357       268.593

Paramagnetic contribution to the shielding tensor (ppm): 
           -99.599         -3.282         8.034
             0.172       -128.509         0.162
            11.959         -2.126      -142.201

Total shielding tensor (ppm): 
           165.569          1.962        -0.943
             6.384        128.473         3.486
             3.921          0.231       126.392


 Diagonalized sT*s matrix:
 
 sDSO           262.201          262.848          265.694  iso=     263.581
 sPSO          -136.918         -133.797          -99.595  iso=    -123.436
        ---------------  ---------------  ---------------
 Total          125.284          129.050          166.100  iso=     140.145

 Orientation: 
  X           0.0258988   -0.1068864   -0.9939339
  Y          -0.5329826    0.8396873   -0.1041867
  Z           0.8457298    0.5324478   -0.0352217

 --------------
 Nucleus  43C :
 --------------

Diamagnetic contribution to the shielding tensor (ppm) : 
           257.919         -0.977        -7.157
             0.504        241.909         8.066
           -11.202          2.677       254.569

Paramagnetic contribution to the shielding tensor (ppm): 
           -94.187         -2.362        -0.560
             1.616        -85.144        -5.978
             3.955          2.577       -90.991

Total shielding tensor (ppm): 
           163.731         -3.340        -7.717
             2.120        156.765         2.088
            -7.246          5.254       163.578


 Diagonalized sT*s matrix:
 
 sDSO           240.285          248.150          265.962  iso=     251.466
 sPSO           -86.262          -89.854          -94.207  iso=     -90.107
        ---------------  ---------------  ---------------
 Total          154.023          158.296          171.755  iso=     161.358

 Orientation: 
  X          -0.4060976    0.6167683   -0.6743009
  Y           0.6951746    0.6874452    0.2101224
  Z          -0.5931417    0.3834267    0.7079314

 --------------
 Nucleus  44C :
 --------------

Diamagnetic contribution to the shielding tensor (ppm) : 
           251.162          1.296         1.739
             0.062        253.978        -4.193
            -0.626         -0.469       273.990

Paramagnetic contribution to the shielding tensor (ppm): 
           -72.061         -5.844        -1.528
            -2.875        -73.482         1.014
             1.088         -2.823       -80.706

Total shielding tensor (ppm): 
           179.101         -4.547         0.210
            -2.813        180.496        -3.179
             0.462         -3.292       193.285


 Diagonalized sT*s matrix:
 
 sDSO           253.085          252.284          273.762  iso=     259.710
 sPSO           -77.229          -69.412          -79.607  iso=     -75.416
        ---------------  ---------------  ---------------
 Total          175.855          182.872          194.155  iso=     184.294

 Orientation: 
  X           0.7421684   -0.6651032    0.0826065
  Y           0.6613473    0.7067845   -0.2511482
  Z           0.1086545    0.2410258    0.9644173

 --------------
 Nucleus  49C :
 --------------

Diamagnetic contribution to the shielding tensor (ppm) : 
           243.672         -4.921        -2.672
           -12.037        252.861         8.672
           -12.159          6.060       253.480

Paramagnetic contribution to the shielding tensor (ppm): 
           -64.798          2.768        -3.063
             9.389        -70.290        -2.845
             4.587         -1.298       -76.949

Total shielding tensor (ppm): 
           178.874         -2.153        -5.734
            -2.648        182.571         5.826
            -7.572          4.761       176.532


 Diagonalized sT*s matrix:
 
 sDSO           243.329          240.812          265.873  iso=     250.004
 sPSO           -72.994          -62.157          -76.885  iso=     -70.679
        ---------------  ---------------  ---------------
 Total          170.335          178.654          188.988  iso=     179.326

 Orientation: 
  X           0.5530627   -0.6503254    0.5207672
  Y          -0.2371669   -0.7220969   -0.6498676
  Z           0.7986698    0.2359088   -0.5536006

 --------------
 Nucleus  50C :
 --------------

Diamagnetic contribution to the shielding tensor (ppm) : 
           275.434         -1.984         9.450
             7.689        256.750        -6.208
             7.624          0.704       250.258

Paramagnetic contribution to the shielding tensor (ppm): 
          -186.336        -20.003       -48.998
           -28.768       -292.575       -27.810
           -46.591        -32.179      -120.144

Total shielding tensor (ppm): 
            89.099        -21.987       -39.547
           -21.079        -35.826       -34.018
           -38.967        -31.475       130.114


 Diagonalized sT*s matrix:
 
 sDSO           258.139          274.718          249.584  iso=     260.814
 sPSO          -306.355         -198.580          -94.120  iso=    -199.685
        ---------------  ---------------  ---------------
 Total          -48.216           76.139          155.464  iso=      61.129

 Orientation: 
  X          -0.2127875    0.8503026   -0.4813594
  Y          -0.9548402   -0.2855091   -0.0822484
  Z          -0.2073685    0.4421199    0.8726559

 --------------
 Nucleus  51C :
 --------------

Diamagnetic contribution to the shielding tensor (ppm) : 
           271.568         -2.190        12.924
            -3.621        267.181         9.766
             9.303         11.992       246.423

Paramagnetic contribution to the shielding tensor (ppm): 
          -193.410        -23.487       -57.307
            -9.459       -294.300       -45.585
           -42.840        -51.922      -107.203

Total shielding tensor (ppm): 
            78.158        -25.677       -44.383
           -13.079        -27.120       -35.819
           -33.537        -39.930       139.219


 Diagonalized sT*s matrix:
 
 sDSO           272.460          272.957          239.754  iso=     261.724
 sPSO          -308.075         -208.869          -77.970  iso=    -198.305
        ---------------  ---------------  ---------------
 Total          -35.615           64.088          161.784  iso=      63.419

 Orientation: 
  X           0.4419125   -0.8162486   -0.3720908
  Y           0.8454925    0.5175952   -0.1312924
  Z           0.2997596   -0.2565802    0.9188638

 --------------
 Nucleus  54C :
 --------------

Diamagnetic contribution to the shielding tensor (ppm) : 
           255.008          2.934         0.383
            -0.919        245.393        -1.601
            -5.352          1.278       247.961

Paramagnetic contribution to the shielding tensor (ppm): 
          -109.578          2.157         7.839
             4.370        -92.809         2.532
            13.968          1.018       -89.236

Total shielding tensor (ppm): 
           145.431          5.091         8.222
             3.451        152.585         0.931
             8.615          2.296       158.725


 Diagonalized sT*s matrix:
 
 sDSO           254.513          246.370          247.480  iso=     249.454
 sPSO          -114.012          -93.952          -83.658  iso=     -97.207
        ---------------  ---------------  ---------------
 Total          140.501          152.418          163.822  iso=     152.247

 Orientation: 
  X           0.8853240   -0.1040525    0.4531826
  Y          -0.2596528   -0.9191522    0.2962089
  Z          -0.3857225    0.3799110    0.8407650

 --------------
 Nucleus  55C :
 --------------

Diamagnetic contribution to the shielding tensor (ppm) : 
           255.844         -1.918        -2.842
            -1.521        238.271        -1.646
           -21.454         -5.337       222.300

Paramagnetic contribution to the shielding tensor (ppm): 
           -68.285          0.265        -5.032
            -3.756        -71.216         4.176
            10.815          5.093       -45.099

Total shielding tensor (ppm): 
           187.559         -1.653        -7.874
            -5.277        167.055         2.530
           -10.639         -0.244       177.202


 Diagonalized sT*s matrix:
 
 sDSO           237.514          221.282          257.620  iso=     238.805
 sPSO           -71.048          -49.399          -64.152  iso=     -61.533
        ---------------  ---------------  ---------------
 Total          166.466          171.882          193.468  iso=     177.272

 Orientation: 
  X           0.1797625   -0.4780849   -0.8597211
  Y           0.9819379    0.1396426    0.1276631
  Z           0.0590199   -0.8671418    0.4945522

 --------------
 Nucleus  56C :
 --------------

Diamagnetic contribution to the shielding tensor (ppm) : 
           249.229          1.954         1.796
             8.123        241.937         1.085
            13.537         -1.958       249.663

Paramagnetic contribution to the shielding tensor (ppm): 
           -91.477         -2.979        -0.349
            -8.389        -79.137        -4.219
           -12.294          0.533       -74.815

Total shielding tensor (ppm): 
           157.752         -1.025         1.447
            -0.266        162.800        -3.134
             1.243         -1.425       174.847


 Diagonalized sT*s matrix:
 
 sDSO           249.123          241.072          250.634  iso=     246.943
 sPSO           -91.520          -78.657          -75.253  iso=     -81.810
        ---------------  ---------------  ---------------
 Total          157.603          162.415          175.382  iso=     165.133

 Orientation: 
  X           0.9934977   -0.0801518    0.0808585
  Y           0.0936049    0.9793224   -0.1793480
  Z          -0.0648115    0.1857506    0.9804571

 --------------
 Nucleus  59C :
 --------------

Diamagnetic contribution to the shielding tensor (ppm) : 
           247.517         -4.077       -10.438
             3.219        250.287         6.493
            14.867          6.710       266.127

Paramagnetic contribution to the shielding tensor (ppm): 
           -61.755          3.458         2.756
            -9.823        -87.643        -3.828
           -26.366         -6.392       -89.482

Total shielding tensor (ppm): 
           185.762         -0.618        -7.682
            -6.604        162.643         2.665
           -11.499          0.319       176.645


 Diagonalized sT*s matrix:
 
 sDSO           250.109          262.229          251.593  iso=     254.643
 sPSO           -88.014          -91.592          -59.274  iso=     -79.627
        ---------------  ---------------  ---------------
 Total          162.095          170.636          192.319  iso=     175.017

 Orientation: 
  X           0.1404534   -0.5170934   -0.8443265
  Y           0.9900872    0.0731029    0.1199300
  Z          -0.0002923   -0.8528015    0.5222352

 --------------
 Nucleus  60C :
 --------------

Diamagnetic contribution to the shielding tensor (ppm) : 
           245.895          5.350        11.315
             8.024        228.330         3.190
            23.976         -4.263       226.188

Paramagnetic contribution to the shielding tensor (ppm): 
           -60.987          1.678        -4.042
             3.917        -57.015         1.062
           -12.305          8.014       -52.121

Total shielding tensor (ppm): 
           184.908          7.028         7.273
            11.941        171.315         4.253
            11.671          3.751       174.067


 Diagonalized sT*s matrix:
 
 sDSO           222.928          221.523          255.962  iso=     233.471
 sPSO           -56.659          -52.344          -61.119  iso=     -56.708
        ---------------  ---------------  ---------------
 Total          166.268          169.179          194.842  iso=     176.763

 Orientation: 
  X           0.5220242    0.2722891    0.8083003
  Y          -0.8228240    0.4103321    0.3931771
  Z          -0.2246137   -0.8703369    0.4382493



--------------------------------
CHEMICAL SHIELDING SUMMARY (ppm)
--------------------------------


  Nucleus  Element    Isotropic     Anisotropy
  -------  -------  ------------   ------------
      0       C           59.670        148.145 
      1       C          151.159         30.125 
      2       C          128.860         55.171 
      5       C           51.544        179.180 
      6       C          165.006         22.945 
      7       C          161.657         22.588 
     14       C           74.636        128.277 
     15       C           83.010        121.127 
     18       C           79.575        134.255 
     20       C           52.422        174.898 
     22       C          169.229          8.617 
     23       C          174.495         12.638 
     26       C          158.632         23.608 
     29       C          153.850         17.891 
     32       C          143.425         28.028 
     34       C          174.820         23.215 
     36       C          169.280         32.963 
     39       C          140.145         38.933 
     43       C          161.358         15.595 
     44       C          184.294         14.792 
     49       C          179.326         14.493 
     50       C           61.129        141.503 
     51       C           63.419        147.547 
     54       C          152.247         17.362 
     55       C          177.272         24.294 
     56       C          165.133         15.373 
     59       C          175.017         25.953 
     60       C          176.763         27.119 


NMR shielding tensor and spin rotation calculation done in   1.0 sec 

Maximum memory used throughout the entire PROP-calculation: 51.7 MB

--------------------------------
SUGGESTED CITATIONS FOR THIS RUN
--------------------------------

Below you find a list of papers that are relevant to this ORCA run
We neither can nor want to force you to cite these papers, but we appreciate if you do
You receive ORCA, which is the product of decades of hard work by many enthusiastic individuals, for free
The only thing we kindly ask in return is that you cite our papers,
We deeply appreciate it, if you show your appreciation for ORCA by not just citing the generic ORCA reference.

Please note that relegating all ORCA citations to the supporting information does *not* help us.
SI sections are not indexed - citations you put there will not count into any citation statistics
But we need these citations in order to attract the funding resources that allow us to do what we are doing

Therefore, if you are a happy ORCA user, please consider citing a few of the papers listed below in the main body of your paper

In addition to the list printed below, the program has created the file inpS.bibtex that contains the list in bibtex format
You can import this file easily into all common literature databanks and citation aid programs


List of essential papers. We consider these as the minimum necessary citations

  1. Neese,F.
     Software update: the ORCA program system, version 5.0
     WIRES Comput. Molec. Sci., 2022 12(1)e1606
     doi.org/10.1002/wcms.1606

List of papers to cite with high priority. The work reported in these papers was absolutely
necessary for this run to complete.
Our perspective: the developers of density functionals and basis sets usually get cited in chemistry papers
Good! But without the algorithms to do something with them, the functionals or basis sets would not do anything.
Hence, in our opinion, the algorithm design and method developments papers are equally worthy of getting cited

  1. Neese,F.
     An improvement of the resolution of the identity approximation for the formation of the Coulomb matrix
     J. Comp. Chem., 2003 24(14)1740-1747
     doi.org/10.1002/jcc.10318
  2. Neese,F.; Wennmohs,F.; Hansen,A.; Becker,U.
     Efficient, approximate and parallel Hartree-Fock and hybrid DFT calculations. A 'chain-of-spheres' algorithm for the Hartree-Fock exchange
     Chem. Phys., 2009 356(1-3)98-109
     doi.org/10.1016/j.chemphys.2008.10.036
  3. Stoychev,G.L.; Auer,A.A.; Izsak,R.; Neese,F.
     Self-Consistent Field Calculation of Nuclear Magnetic Resonance Chemical Shielding Constants Using Gauge-Including Atomic Orbitals and Approximate Two-Electron Integrals
     J. Chem. Theory Comput., 2018 14(2)619-637
     doi.org/10.1021/acs.jctc.7b01006
  4. Garcia-Rates,M.; Neese,F.
     Effect of the Solute Cavity on the Solvation Energy and its Derivatives within the Framework of the Gaussian Charge Scheme
     J. Comput. Chem., 2020 41 922-939
     doi.org/10.1002/jcc.26139
  5. Helmich-Paris,B.; de Souza,B.; Neese,F.; Izsák,R.
     An improved chain of spheres for exchange algorithm
     J. Chem. Phys., 2021 155 104109
     doi.org/doi: 10.1063/5.0058766.
  6. Neese,F.
     The SHARK Integral Generation and Digestion System
     J. Comp. Chem., 2022  1-16
     doi.org/10.1002/jcc.26942
  7. Caldeweyher,E.; Bannwarth,C.; Grimme,S.
     Extension of the D3 dispersion coefficient model
     J. Chem. Phys., 2017 147 034112-XXXX
     doi.org/10.1063/1.4993215
  8. Caldeweyher,E.; Ehlert,S.; Hansen,A.; Neugebauer,H.; Spicher,S.; Bannwarth,C.; Grimme,S.
     A generally applicable atomic-charge dependent London dispersion correction
     J. Chem. Phys., 2019 150 154122-XXXX
     doi.org/10.1063/1.5090222
  9. Caldeweyher,E.; Mewes,J.; Ehlert,S.; Grimme,S.
     Extension and evaluation of the D4 London-dispersion model for periodic systems
     Phys. Chem. Chem. Phys., 2020 22(16)8499-8512
     doi.org/10.1039/D0CP00502A

List of suggested additional citations. These are papers that are important in the 'surrounding' of 
of this run, or papers that preceded the highly important papers. If you like your results we are grateful for a citation.

  1. Izsak,R.; Neese,F.
     An overlap fitted chain of spheres exchange method
     J. Chem. Phys., 2011 135 144105
     doi.org/10.1063/1.3646921
  2. Izsak,R.; Hansen,A.; Neese,F.
     The resolution of identity and chain of spheres approximations for the LPNO-CCSD singles Fock term
     Molec. Phys., 2012 110 2413-2417
     doi.org/10.1080/00268976.2012.687466
  3. Neese,F.
     The ORCA program system
     WIRES Comput. Molec. Sci., 2012 2(1)73-78
     doi.org/10.1002/wcms.81
  4. Izsak,R.; Neese,F.; Klopper,W.
     Robust fitting techniques in the chain of spheres approximation to the Fock exchange: The role of the complementary space
     J. Chem. Phys., 2013 139 
     doi.org/10.1063/1.4819264
  5. Neese,F.
     Software update: the ORCA program system, version 4.0
     WIRES Comput. Molec. Sci., 2018 8(1)1-6
     doi.org/10.1002/wcms.1327
  6. Neese,F.; Wennmohs,F.; Becker,U.; Riplinger,C.
     The ORCA quantum chemistry program package
     J. Chem. Phys., 2020 152 Art. No. L224108
     doi.org/10.1063/5.0004608

Timings for individual modules:

Sum of individual times          ...      177.005 sec (=   2.950 min)
Startup calculation              ...        4.665 sec (=   0.078 min)   2.6 %
SCF iterations                   ...       72.096 sec (=   1.202 min)  40.7 %
Property integrals               ...       60.278 sec (=   1.005 min)  34.1 %
SCF Response                     ...       38.639 sec (=   0.644 min)  21.8 %
Property calculations            ...        1.327 sec (=   0.022 min)   0.7 %
                             ****ORCA TERMINATED NORMALLY****
TOTAL RUN TIME: 0 days 0 hours 2 minutes 57 seconds 330 msec
