
                                 *****************
                                 * O   R   C   A *
                                 *****************

                                            #,                                       
                                            ###                                      
                                            ####                                     
                                            #####                                    
                                            ######                                   
                                           ########,                                 
                                     ,,################,,,,,                         
                               ,,#################################,,                 
                          ,,##########################################,,             
                       ,#########################################, ''#####,          
                    ,#############################################,,   '####,        
                  ,##################################################,,,,####,       
                ,###########''''           ''''###############################       
              ,#####''   ,,,,##########,,,,          '''####'''          '####       
            ,##' ,,,,###########################,,,                        '##       
           ' ,,###''''                  '''############,,,                           
         ,,##''                                '''############,,,,        ,,,,,,###''
      ,#''                                            '''#######################'''  
     '                                                          ''''####''''         
             ,#######,   #######,   ,#######,      ##                                
            ,#'     '#,  ##    ##  ,#'     '#,    #''#        ,####,   ,####,        
            ##       ##  ##   ,#'  ##            #'  '#       #'       #'  '#        
            ##       ##  #######   ##           ,######,      #####,   #    #        
            '#,     ,#'  ##    ##  '#,     ,#' ,#      #,     #,   #   #,  ,#        
             '#######'   ##     ##  '#######'  #'      '#     '####' # '####'        



                #########################################################
                #                        -***-                          #
                #          Department of theory and spectroscopy        #
                #                                                       #
                #                      Frank Neese                      #
                #                                                       #
                #     Directorship, Architecture, Infrastructure        #
                #                    SHARK, DRIVERS                     #
                #        Core code/Algorithms in most modules           #
                #                                                       #
                #        Max Planck Institute fuer Kohlenforschung      #
                #                Kaiser Wilhelm Platz 1                 #
                #                 D-45470 Muelheim/Ruhr                 #
                #                      Germany                          #
                #                                                       #
                #                  All rights reserved                  #
                #                        -***-                          #
                #########################################################


                         Program Version 6.0.0  -   RELEASE  -


 With contributions from (in alphabetic order):
   Daniel Aravena         : Magnetic Suceptibility
   Michael Atanasov       : Ab Initio Ligand Field Theory (pilot matlab implementation)
   Alexander A. Auer      : GIAO ZORA, VPT2 properties, NMR spectrum
   Ute Becker             : All parallelization in ORCA, NUMFREQ, NUMCALC
   Giovanni Bistoni       : ED, misc. LED, open-shell LED, HFLD
   Martin Brehm           : Molecular dynamics
   Dmytro Bykov           : pre 5.0 version of the SCF Hessian
   Marcos Casanova-Páez   : Triplet and SCS-CIS(D). UHF-(DLPNO)-IP/EA/STEOM-CCSD. UHF-CVS-IP/STEOM-CCSD
   Vijay G. Chilkuri      : MRCI spin determinant printing, contributions to CSF-ICE
   Pauline Colinet        : FMM embedding
   Dipayan Datta          : RHF DLPNO-CCSD density
   Achintya Kumar Dutta   : EOM-CC, STEOM-CC
   Nicolas Foglia         : Exact transition moments, OPA infrastructure, MCD improvements
   Dmitry Ganyushin       : Spin-Orbit,Spin-Spin,Magnetic field MRCI
   Miquel Garcia          : C-PCM and meta-GGA Hessian, CCSD/C-PCM, Gaussian charge scheme
   Tiago L. C. Gouveia    : GS-ROHF, GS-ROCIS
   Yang Guo               : DLPNO-NEVPT2, F12-NEVPT2, CIM, IAO-localization
   Andreas Hansen         : Spin unrestricted coupled pair/coupled cluster methods
   Ingolf Harden          : AUTO-CI MPn and infrastructure 
   Benjamin Helmich-Paris : MC-RPA, TRAH-(SCF,CASSCF), AVAS, COSX integrals, SCF dyn. polar.
   Lee Huntington         : MR-EOM, pCC
   Robert Izsak           : Overlap fitted RIJCOSX, COSX-SCS-MP3, EOM
   Riya Kayal             : Wick's Theorem for AUTO-CI, AUTO-CI UHF-CCSDT
   Emily Kempfer          : AUTO-CI, RHF CISDT and CCSDT
   Christian Kollmar      : KDIIS, OOCD, Brueckner-CCSD(T), CCSD density, CASPT2, CASPT2-K, improved NEVPT2
   Axel Koslowski         : Symmetry handling
   Simone Kossmann        : Meta GGA functionals, TD-DFT gradient, OOMP2, (MP2 Hessian; deprecated post 5.0)
   Lucas Lang             : DCDCAS
   Marvin Lechner         : AUTO-CI (C++ implementation), FIC-MRCC
   Spencer Leger          : CASSCF response
   Dagmar Lenk            : GEPOL surface, SMD, ORCA-2-JSON
   Dimitrios Liakos       : Extrapolation schemes; Compound Job, initial MDCI parallelization
   Dimitrios Manganas     : Further ROCIS development; embedding schemes. LFT, Crystal Embedding
   Dimitrios Pantazis     : SARC Basis sets
   Anastasios Papadopoulos: AUTO-CI, single reference methods and gradients
   Taras Petrenko         : pre 6.0 DFT Hessian and TD-DFT gradient, (ASA, deprecated), ECA, 1-Electron XAS/XES, NRVS
   Peter Pinski           : DLPNO-MP2, DLPNO-MP2 Gradient
   Christoph Reimann      : Effective Core Potentials
   Marius Retegan         : Local ZFS, SOC
   Christoph Riplinger    : Optimizer, TS searches, QM/MM, DLPNO-CCSD(T), (RO)-DLPNO pert. Triples
   Michael Roemelt        : Original ROCIS implementation
   Masaaki Saitow         : Open-shell DLPNO-CCSD energy and density
   Barbara Sandhoefer     : DKH picture change effects
   Kantharuban Sivalingam : CASSCF convergence/infrastructure, NEVPT2 and variants, FIC-MRCI
   Bernardo de Souza      : ESD, SOC TD-DFT
   Georgi Stoychev        : AutoAux, RI-MP2 NMR, DLPNO-MP2 response, X2C
   Van Anh Tran           : RI-MP2 g-tensors
   Willem Van den Heuvel  : Paramagnetic NMR
   Zikuan Wang            : NOTCH, Electric field optimization 
   Frank Wennmohs         : Technical directorship and infrastructure
   Hang Xu                : AUTO-CI-Response properties 


 We gratefully acknowledge several colleagues who have allowed us to
 interface, adapt or use parts of their codes:
   Stefan Grimme, W. Hujo, H. Kruse, P. Pracht,  : VdW corrections, initial TS optimization,
                  C. Bannwarth, S. Ehlert,         DFT functionals, gCP, sTDA/sTD-DF
                  L. Wittmann, M. Mueller
   Ed Valeev, F. Pavosevic, A. Kumar             : LibInt (2-el integral package), F12 methods
   Garnet Chan, S. Sharma, J. Yang, R. Olivares  : DMRG
   Ulf Ekstrom                                   : XCFun DFT Library
   Mihaly Kallay                                 : mrcc  (arbitrary order and MRCC methods)
   Frank Weinhold                                : gennbo (NPA and NBO analysis)
   Simon Mueller                                 : openCOSMO-RS
   Christopher J. Cramer and Donald G. Truhlar   : smd solvation model
   Lars Goerigk                                  : TD-DFT with DH, B97 family of functionals
   V. Asgeirsson, H. Jonsson                     : NEB implementation
   FAccTs GmbH                                   : IRC, NEB, NEB-TS, DLPNO-Multilevel, CI-OPT
                                                   MM, QMMM, 2- and 3-layer-ONIOM, Crystal-QMMM,
                                                   LR-CPCM, SF, NACMEs, symmetry and pop. for TD-DFT,
                                                   nearIR, NL-DFT gradient (VV10), updates on ESD,
                                                   ML-optimized integration grids, MBIS, APM,
                                                   GOAT, DOCKER, SOLVATOR, interface openCOSMO-RS
   S Lehtola, MJT Oliveira, MAL Marques          : LibXC Library
   Liviu Ungur et al                             : ANISO software


 Your calculation uses the libint2 library for the computation of 2-el integrals
 For citations please refer to: http://libint.valeyev.net

 Your ORCA version has been built with support for libXC version: 6.2.2
 For citations please refer to: https://libxc.gitlab.io

 This ORCA versions uses:
   CBLAS   interface :  Fast vector & matrix operations
   LAPACKE interface :  Fast linear algebra routines
   SCALAPACK package :  Parallel linear algebra routines
   Shared memory     :  Shared parallel matrices
   BLAS/LAPACK       :  OpenBLAS 0.3.27  USE64BITINT DYNAMIC_ARCH NO_AFFINITY Zen SINGLE_THREADED
        Core in use  :  Zen
   Copyright (c) 2011-2014, The OpenBLAS Project


NOTE: MaxCore=8000 MB was set to SCF,MP2,MDCI,CIPSI,MRCI and CIS
      => If you want to overwrite this, your respective input block should be placed after the MaxCore statement
Your calculation utilizes the atom-pairwise dispersion correction
based on EEQ partial charges (D4)


================================================================================

----- Orbital basis set information -----
Your calculation utilizes the basis: pcJ-0
   F. Jensen, Theor. Chem. Acc. 126, 371 (2010).

----- AuxJ basis set information -----
Your calculation utilizes the auxiliary basis: def2/J
   F. Weigend, Phys. Chem. Chem. Phys. 8, 1057 (2006).

================================================================================
                                        WARNINGS
                       Please study these warnings very carefully!
================================================================================

WARNING: Old DensityContainer found on disk!
         Will remove this file - 
         If you want to keep old densities, please start your calculation with a different basename. 


================================================================================
                                       INPUT FILE
================================================================================
NAME = inpJ
|  1> ! pbe0
|  2> ! D4
|  3> ! pcJ-0
|  4> ! def2/J RIJCOSX
|  5> ! DEFGRID2
|  6> ! scfconv7
|  7> ! smallprint printgap noloewdin
|  8> ! NOSOSCF
|  9> %MaxCore 8000
| 10> %output
| 11>        print[P_BondOrder_M] 1
| 12>        print[P_Mayer] 1
| 13>        print[P_basis] 2
| 14> end
| 15> %pal
| 16>     nprocs 4
| 17> end
| 18> ! CPCM(chloroform)
| 19> *xyz 0 1
| 20> C   -4.9393731800   0.3083710100   0.4115522600
| 21> C   -6.3600852000  -0.1012572000   0.1024409200
| 22> C   -6.9357128700   0.6900468900  -1.0783422700
| 23> H   -6.9997380300   0.1062365100   0.9771863300
| 24> H   -6.4166440000  -1.1755179500  -0.1050124900
| 25> C   -4.7452727300   1.7673343500   0.5499205700
| 26> C   -5.3640751400   2.5889943900  -0.5583959600
| 27> C   -6.8226752600   2.1877072700  -0.8170008800
| 28> H   -4.7879839800   2.4175231100  -1.4804076100
| 29> H   -5.2932004400   3.6561278800  -0.3229095100
| 30> H   -7.2233831000   2.7435327700  -1.6728678900
| 31> H   -7.4360834200   2.4392210800   0.0613894100
| 32> O   -8.2861604800   0.2975200900  -1.3570621900
| 33> H   -6.3743966400   0.4351575900  -1.9881846700
| 34> C   -3.9536685500  -0.6160350600   0.4991335600
| 35> C   -4.1166744600   2.3310277700   1.5878787500
| 36> H   -3.7004291700   1.7303058900   2.3917836300
| 37> H   -4.0151746000   3.4112938000   1.6602470400
| 38> C   -2.5459976000  -0.3554083600   0.6917155600
| 39> H   -4.2565316000  -1.6541545500   0.3694494200
| 40> C   -1.5751053500  -1.2798328200   0.8544144300
| 41> H   -2.2520805300   0.6917269200   0.6928950300
| 42> C   -1.7835811500  -2.7712730000   0.9261327700
| 43> C   -0.8803233500  -3.5228696200  -0.0693379100
| 44> H   -2.8279943200  -3.0532201200   0.7671121500
| 45> H   -1.5189844500  -3.0988862200   1.9443518900
| 46> C    0.5933192800  -3.1073838900   0.0381783200
| 47> H   -1.2425726600  -3.3411431100  -1.0890959400
| 48> H   -0.9709784500  -4.6019115800   0.1058066800
| 49> C    0.7693328700  -1.5876089200  -0.0907968900
| 50> H    1.1686952000  -3.6421461600  -0.7242941300
| 51> H    0.9878036700  -3.4207253700   1.0166042600
| 52> C   -0.1279726500  -0.9205869400   0.9999925100
| 53> H    0.2100400000  -1.3748595500   1.9498275200
| 54> C    0.3228019700   0.5364462200   1.0154790000
| 55> H   -8.8188124300   0.5123207500  -0.5796104300
| 56> C    1.8458416300   0.4482483300   0.7492029600
| 57> H    0.0846143600   1.0317831400   1.9626065400
| 58> H   -0.1723185900   1.1047121300   0.2202120400
| 59> C    2.1541235300  -1.0221498100   0.3324803900
| 60> H    2.4293523800   0.7298608800   1.6317185700
| 61> H    2.1360077400   1.1383067600  -0.0522708100
| 62> H    2.4579470000  -1.5823462800   1.2315861500
| 63> C    3.3357116900  -1.1108591000  -0.6641980200
| 64> C    0.3832515600  -1.1032549000  -1.4944205100
| 65> H   -0.6868703500  -1.2343955500  -1.6819315000
| 66> H    0.9313273100  -1.6626887500  -2.2605724100
| 67> H    0.6107756200  -0.0414469900  -1.6321858600
| 68> H    3.0513693700  -0.5246412900  -1.5536104800
| 69> C    3.6440781700  -2.5394572100  -1.1114823800
| 70> C    4.5308248000  -0.4220079200  -0.0485234600
| 71> C    5.6471998000  -1.0018503200   0.3914753000
| 72> H    4.4362085300   0.6580957600   0.0779383000
| 73> H    5.7796297400  -2.0818892100   0.2915728400
| 74> C    6.7923537300  -0.2792490100   1.0453332900
| 75> C    8.0715627800  -0.5038849400   0.2243565800
| 76> C    6.9541493100  -0.7298823000   2.5196978200
| 77> H    6.5641688000   0.7986481800   1.0535426000
| 78> H    7.1160326100  -1.8201331400   2.5112758900
| 79> C    5.6847520600  -0.4366453600   3.3242956900
| 80> C    8.1598419700  -0.0702948600   3.1954898200
| 81> H    7.8989327000  -0.2502432800  -0.8267186300
| 82> H    8.3791825800  -1.5562732500   0.2711784100
| 83> H    8.9015297200   0.1097107900   0.5864019400
| 84> H    5.7966036000  -0.7684647100   4.3623923000
| 85> H    4.8099195700  -0.9345016700   2.8952253000
| 86> H    5.4826863800   0.6425802900   3.3358496100
| 87> H    8.0846726300   1.0231526500   3.1320469500
| 88> H    9.1087838700  -0.3721482800   2.7433547700
| 89> H    8.1972684000  -0.3409743000   4.2565031800
| 90> H    4.5705762100  -2.5688633100  -1.6950020000
| 91> H    2.8431773900  -2.9359241200  -1.7389528600
| 92> H    3.7624474100  -3.2102578500  -0.2524259300
| 93> *
| 94> %eprnmr
| 95>  Nuclei = all C { ssfc }
| 96>  SpinSpinRThresh 8.0
| 97> end
| 98> 
| 99>                          ****END OF INPUT****
================================================================================

                       ****************************
                       * Single Point Calculation *
                       ****************************

---------------------------------
CARTESIAN COORDINATES (ANGSTROEM)
---------------------------------
  C     -4.939373    0.308371    0.411552
  C     -6.360085   -0.101257    0.102441
  C     -6.935713    0.690047   -1.078342
  H     -6.999738    0.106237    0.977186
  H     -6.416644   -1.175518   -0.105012
  C     -4.745273    1.767334    0.549921
  C     -5.364075    2.588994   -0.558396
  C     -6.822675    2.187707   -0.817001
  H     -4.787984    2.417523   -1.480408
  H     -5.293200    3.656128   -0.322910
  H     -7.223383    2.743533   -1.672868
  H     -7.436083    2.439221    0.061389
  O     -8.286160    0.297520   -1.357062
  H     -6.374397    0.435158   -1.988185
  C     -3.953669   -0.616035    0.499134
  C     -4.116674    2.331028    1.587879
  H     -3.700429    1.730306    2.391784
  H     -4.015175    3.411294    1.660247
  C     -2.545998   -0.355408    0.691716
  H     -4.256532   -1.654155    0.369449
  C     -1.575105   -1.279833    0.854414
  H     -2.252081    0.691727    0.692895
  C     -1.783581   -2.771273    0.926133
  C     -0.880323   -3.522870   -0.069338
  H     -2.827994   -3.053220    0.767112
  H     -1.518984   -3.098886    1.944352
  C      0.593319   -3.107384    0.038178
  H     -1.242573   -3.341143   -1.089096
  H     -0.970978   -4.601912    0.105807
  C      0.769333   -1.587609   -0.090797
  H      1.168695   -3.642146   -0.724294
  H      0.987804   -3.420725    1.016604
  C     -0.127973   -0.920587    0.999993
  H      0.210040   -1.374860    1.949828
  C      0.322802    0.536446    1.015479
  H     -8.818812    0.512321   -0.579610
  C      1.845842    0.448248    0.749203
  H      0.084614    1.031783    1.962607
  H     -0.172319    1.104712    0.220212
  C      2.154124   -1.022150    0.332480
  H      2.429352    0.729861    1.631719
  H      2.136008    1.138307   -0.052271
  H      2.457947   -1.582346    1.231586
  C      3.335712   -1.110859   -0.664198
  C      0.383252   -1.103255   -1.494421
  H     -0.686870   -1.234396   -1.681931
  H      0.931327   -1.662689   -2.260572
  H      0.610776   -0.041447   -1.632186
  H      3.051369   -0.524641   -1.553610
  C      3.644078   -2.539457   -1.111482
  C      4.530825   -0.422008   -0.048523
  C      5.647200   -1.001850    0.391475
  H      4.436209    0.658096    0.077938
  H      5.779630   -2.081889    0.291573
  C      6.792354   -0.279249    1.045333
  C      8.071563   -0.503885    0.224357
  C      6.954149   -0.729882    2.519698
  H      6.564169    0.798648    1.053543
  H      7.116033   -1.820133    2.511276
  C      5.684752   -0.436645    3.324296
  C      8.159842   -0.070295    3.195490
  H      7.898933   -0.250243   -0.826719
  H      8.379183   -1.556273    0.271178
  H      8.901530    0.109711    0.586402
  H      5.796604   -0.768465    4.362392
  H      4.809920   -0.934502    2.895225
  H      5.482686    0.642580    3.335850
  H      8.084673    1.023153    3.132047
  H      9.108784   -0.372148    2.743355
  H      8.197268   -0.340974    4.256503
  H      4.570576   -2.568863   -1.695002
  H      2.843177   -2.935924   -1.738953
  H      3.762447   -3.210258   -0.252426

----------------------------
CARTESIAN COORDINATES (A.U.)
----------------------------
  NO LB      ZA    FRAG     MASS         X           Y           Z
   0 C     6.0000    0    12.011   -9.334063    0.582737    0.777721
   1 C     6.0000    0    12.011  -12.018819   -0.191348    0.193585
   2 C     6.0000    0    12.011  -13.106598    1.304000   -2.037772
   3 H     1.0000    0     1.008  -13.227588    0.200758    1.846615
   4 H     1.0000    0     1.008  -12.125700   -2.221407   -0.198445
   5 C     6.0000    0    12.011   -8.967266    3.339778    1.039199
   6 C     6.0000    0    12.011  -10.136633    4.892490   -1.055215
   7 C     6.0000    0    12.011  -12.892988    4.134168   -1.543908
   8 H     1.0000    0     1.008   -9.047978    4.568457   -2.797565
   9 H     1.0000    0     1.008  -10.002699    6.909080   -0.610211
  10 H     1.0000    0     1.008  -13.650216    5.184526   -3.161262
  11 H     1.0000    0     1.008  -14.052161    4.609460    0.116009
  12 O     8.0000    0    15.999  -15.658574    0.562231   -2.564476
  13 H     1.0000    0     1.008  -12.045864    0.822329   -3.757125
  14 C     6.0000    0    12.011   -7.471351   -1.164138    0.943226
  15 C     6.0000    0    12.011   -7.779387    4.405004    3.000656
  16 H     1.0000    0     1.008   -6.992798    3.269804    4.519816
  17 H     1.0000    0     1.008   -7.587580    6.446411    3.137412
  18 C     6.0000    0    12.011   -4.811238   -0.671624    1.307153
  19 H     1.0000    0     1.008   -8.043679   -3.125899    0.698158
  20 C     6.0000    0    12.011   -2.976518   -2.418534    1.614609
  21 H     1.0000    0     1.008   -4.255815    1.307174    1.309382
  22 C     6.0000    0    12.011   -3.370480   -5.236947    1.750137
  23 C     6.0000    0    12.011   -1.663570   -6.657259   -0.131030
  24 H     1.0000    0     1.008   -5.344135   -5.769750    1.449632
  25 H     1.0000    0     1.008   -2.870465   -5.856046    3.674293
  26 C     6.0000    0    12.011    1.121211   -5.872105    0.072147
  27 H     1.0000    0     1.008   -2.348122   -6.313845   -2.058093
  28 H     1.0000    0     1.008   -1.834883   -8.696353    0.199946
  29 C     6.0000    0    12.011    1.453828   -3.000146   -0.171581
  30 H     1.0000    0     1.008    2.208514   -6.882659   -1.368718
  31 H     1.0000    0     1.008    1.866678   -6.464234    1.921104
  32 C     6.0000    0    12.011   -0.241833   -1.739657    1.889712
  33 H     1.0000    0     1.008    0.396918   -2.598108    3.684640
  34 C     6.0000    0    12.011    0.610007    1.013736    1.918977
  35 H     1.0000    0     1.008  -16.665140    0.968146   -1.095305
  36 C     6.0000    0    12.011    3.488135    0.847067    1.415788
  37 H     1.0000    0     1.008    0.159898    1.949788    3.708789
  38 H     1.0000    0     1.008   -0.325635    2.087603    0.416140
  39 C     6.0000    0    12.011    4.070704   -1.931583    0.628297
  40 H     1.0000    0     1.008    4.590811    1.379237    3.083501
  41 H     1.0000    0     1.008    4.036470    2.151088   -0.098778
  42 H     1.0000    0     1.008    4.644847   -2.990201    2.327361
  43 C     6.0000    0    12.011    6.303582   -2.099219   -1.255152
  44 C     6.0000    0    12.011    0.724240   -2.084850   -2.824045
  45 H     1.0000    0     1.008   -1.297997   -2.332670   -3.178390
  46 H     1.0000    0     1.008    1.759954   -3.142026   -4.271863
  47 H     1.0000    0     1.008    1.154199   -0.078323   -3.084384
  48 H     1.0000    0     1.008    5.766252   -0.991428   -2.935898
  49 C     6.0000    0    12.011    6.886310   -4.798879   -2.100397
  50 C     6.0000    0    12.011    8.562018   -0.797479   -0.091696
  51 C     6.0000    0    12.011   10.671661   -1.893223    0.739781
  52 H     1.0000    0     1.008    8.383219    1.243621    0.147282
  53 H     1.0000    0     1.008   10.921917   -3.934200    0.550993
  54 C     6.0000    0    12.011   12.835688   -0.527704    1.975394
  55 C     6.0000    0    12.011   15.253043   -0.952205    0.423972
  56 C     6.0000    0    12.011   13.141438   -1.379278    4.761539
  57 H     1.0000    0     1.008   12.404481    1.509226    1.990907
  58 H     1.0000    0     1.008   13.447353   -3.439553    4.745624
  59 C     6.0000    0    12.011   10.742625   -0.825140    6.282008
  60 C     6.0000    0    12.011   15.419867   -0.132838    6.038601
  61 H     1.0000    0     1.008   14.926820   -0.472891   -1.562272
  62 H     1.0000    0     1.008   15.834360   -2.940930    0.512453
  63 H     1.0000    0     1.008   16.821453    0.207323    1.108139
  64 H     1.0000    0     1.008   10.953993   -1.452188    8.243727
  65 H     1.0000    0     1.008    9.089431   -1.765952    5.471183
  66 H     1.0000    0     1.008   10.360776    1.214301    6.303842
  67 H     1.0000    0     1.008   15.277817    1.933478    5.918711
  68 H     1.0000    0     1.008   17.213107   -0.703258    5.184189
  69 H     1.0000    0     1.008   15.490592   -0.644348    8.043625
  70 H     1.0000    0     1.008    8.637137   -4.854448   -3.203090
  71 H     1.0000    0     1.008    5.372827   -5.548093   -3.286145
  72 H     1.0000    0     1.008    7.109995   -6.066508   -0.477016

--------------------------------
INTERNAL COORDINATES (ANGSTROEM)
--------------------------------
 C      0   0   0     0.000000000000     0.00000000     0.00000000
 C      1   0   0     1.510552129096     0.00000000     0.00000000
 C      2   1   0     1.533544364897   111.75687916     0.00000000
 H      2   1   3     1.103353485939   109.39159872   241.43788546
 H      2   1   3     1.095569246633   110.68359941   122.87971893
 C      1   2   3     1.478308087432   114.22197936    50.39386386
 C      6   1   2     1.512087026142   114.45296013   312.17459566
 C      3   2   1     1.524487926231   110.30938856   305.02244076
 H      7   6   1     1.100631140406   108.37040071   289.88875049
 H      7   6   1     1.095103180853   110.20714159   172.70071216
 H      8   3   2     1.096365403638   109.70180939   179.18125037
 H      8   3   2     1.100499099928   108.66438790   296.64753621
 O      3   2   1     1.433691330056   111.22170263   180.31495265
 H      3   2   1     1.099025776838   109.02906734    65.15441495
 C      1   2   3     1.354182662703   120.84552597   232.51990363
 C      6   1   2     1.337999716079   123.37232223   129.96375461
 H     16   6   1     1.086457534672   121.40307215     0.64876080
 H     16   6   1     1.087434635530   120.93032987   181.35150717
 C     15   1   2     1.444490085446   126.49834421   175.24532749
 H     15   1   2     1.089144654645   116.13832906   357.93536654
 C     19  15   1     1.350430770405   126.38275397   175.97420096
 H     19  15   1     1.087603296155   115.92625055   355.26837067
 C     21  19  15     1.507647004440   125.69690346   357.17662163
 C     23  21  19     1.540043508215   111.77350650   127.72277622
 H     23  21  19     1.093426086085   112.34898497     3.63176197
 H     23  21  19     1.101867511048   107.75107246   246.40313531
 C     24  23  21     1.534865053515   112.68905470    50.90476097
 H     24  23  21     1.097340205580   109.04142869   288.83481554
 H     24  23  21     1.096916371472   109.17177293   172.85296825
 C     27  24  23     1.535360331680   111.84725686   306.14391982
 H     27  24  23     1.094711090535   108.88115898   182.60725174
 H     27  24  23     1.100508126779   109.23009384    66.12860180
 C     21  19  15     1.498146732160   122.82177491   177.75034472
 H     33  21  19     1.105804097468   106.27334931   124.12682439
 C     33  21  19     1.525248576052   121.03313607     1.96585709
 H     13   3   2     0.966586086442   107.56930369    62.73940643
 C     35  33  21     1.548654772120   103.56235381   196.49050228
 H     35  33  21     1.095053687679   112.12371113    74.52867208
 H     35  33  21     1.095682459050   110.76435877   314.88740233
 C     30  27  24     1.554526562291   116.05968996   166.08226554
 H     37  35  33     1.094816982686   111.77189981   248.93774933
 H     37  35  33     1.096693764095   110.48897340   130.36515167
 H     40  30  27     1.102052609265   106.42914107   320.44382621
 C     40  30  27     1.548350015644   118.92671318    80.65721435
 C     30  27  24     1.534215389456   111.13095758   294.16321892
 H     45  30  27     1.094312178364   111.40861123    66.38130208
 H     45  30  27     1.095601202143   110.65159356   306.28075927
 H     45  30  27     1.094615241662   111.65870299   186.38339692
 H     44  40  30     1.102522743397   106.97805076    61.67095672
 C     44  40  30     1.528412818771   113.32175511   302.46613076
 C     44  40  30     1.510584806528   108.37724432   176.59037459
 C     51  44  40     1.332707491637   126.79041698   110.23388061
 H     51  44  40     1.091590021409   115.45866765   292.86457295
 H     52  51  44     1.092704074503   120.09133181     2.22107062
 C     52  51  44     1.503682296130   124.91954688   182.40323155
 C     55  52  51     1.536502474131   109.35630772   239.30696499
 C     55  52  51     1.550160939737   110.69331625   115.12151924
 H     55  52  51     1.101815822749   108.39961604   357.57927713
 H     57  55  52     1.102235921137   107.19364018    58.17525913
 C     57  55  52     1.531252759572   110.95066590   300.02662673
 C     57  55  52     1.531484641989   112.12691285   176.88368262
 H     56  55  52     1.094940333208   110.35172334    52.25965807
 H     56  55  52     1.097425797100   110.53467829   292.98909409
 H     56  55  52     1.093810625321   111.89175358   172.41995308
 H     60  57  55     1.095563516976   110.80886365   179.22444223
 H     60  57  55     1.094209390629   111.69176198    58.27554391
 H     60  57  55     1.098040088393   110.26138637   298.55249477
 H     61  57  55     1.097862871471   110.45977562    56.16155817
 H     61  57  55     1.093632625784   112.44576109   295.32436148
 H     61  57  55     1.095635636058   110.35360030   175.16681215
 H     50  44  40     1.095334872889   110.58841533   188.25428313
 H     50  44  40     1.091946552447   111.07290995    68.69211067
 H     50  44  40     1.096340622202   111.36890827   308.40040954

---------------------------
INTERNAL COORDINATES (A.U.)
---------------------------
 C      0   0   0     0.000000000000     0.00000000     0.00000000
 C      1   0   0     2.854529835003     0.00000000     0.00000000
 C      2   1   0     2.897978863873   111.75687916     0.00000000
 H      2   1   3     2.085035917331   109.39159872   241.43788546
 H      2   1   3     2.070325836883   110.68359941   122.87971893
 C      1   2   3     2.793597426807   114.22197936    50.39386386
 C      6   1   2     2.857430370063   114.45296013   312.17459566
 C      3   2   1     2.880864675046   110.30938856   305.02244076
 H      7   6   1     2.079891429832   108.37040071   289.88875049
 H      7   6   1     2.069445100197   110.20714159   172.70071216
 H      8   3   2     2.071830355582   109.70180939   179.18125037
 H      8   3   2     2.079641909490   108.66438790   296.64753621
 O      3   2   1     2.709283974383   111.22170263   180.31495265
 H      3   2   1     2.076857732343   109.02906734    65.15441495
 C      1   2   3     2.559034367813   120.84552597   232.51990363
 C      6   1   2     2.528453030654   123.37232223   129.96375461
 H     16   6   1     2.053107196665   121.40307215     0.64876080
 H     16   6   1     2.054953649692   120.93032987   181.35150717
 C     15   1   2     2.729690664657   126.49834421   175.24532749
 H     15   1   2     2.058185117502   116.13832906   357.93536654
 C     19  15   1     2.551944318885   126.38275397   175.97420096
 H     19  15   1     2.055272372083   115.92625055   355.26837067
 C     21  19  15     2.849039945018   125.69690346   357.17662163
 C     23  21  19     2.910260464850   111.77350650   127.72277622
 H     23  21  19     2.066275850386   112.34898497     3.63176197
 H     23  21  19     2.082227831746   107.75107246   246.40313531
 C     24  23  21     2.900474603669   112.68905470    50.90476097
 H     24  23  21     2.073672464287   109.04142869   288.83481554
 H     24  23  21     2.072871533896   109.17177293   172.85296825
 C     27  24  23     2.901410543762   111.84725686   306.14391982
 H     27  24  23     2.068704156877   108.88115898   182.60725174
 H     27  24  23     2.079658967767   109.23009384    66.12860180
 C     21  19  15     2.831087032212   122.82177491   177.75034472
 H     33  21  19     2.089666901983   106.27334931   124.12682439
 C     33  21  19     2.882302094891   121.03313607     1.96585709
 H     13   3   2     1.826582988233   107.56930369    62.73940643
 C     35  33  21     2.926533395298   103.56235381   196.49050228
 H     35  33  21     2.069351571654   112.12371113    74.52867208
 H     35  33  21     2.070539777346   110.76435877   314.88740233
 C     30  27  24     2.937629470637   116.05968996   166.08226554
 H     37  35  33     2.068904264042   111.77189981   248.93774933
 H     37  35  33     2.072450866919   110.48897340   130.36515167
 H     40  30  27     2.082577616685   106.42914107   320.44382621
 C     40  30  27     2.925957489020   118.92671318    80.65721435
 C     30  27  24     2.899246916519   111.13095758   294.16321892
 H     45  30  27     2.067950322122   111.40861123    66.38130208
 H     45  30  27     2.070386224045   110.65159356   306.28075927
 H     45  30  27     2.068523028757   111.65870299   186.38339692
 H     44  40  30     2.083466041440   106.97805076    61.67095672
 C     44  40  30     2.888281647052   113.32175511   302.46613076
 C     44  40  30     2.854591586400   108.37724432   176.59037459
 C     51  44  40     2.518452175818   126.79041698   110.23388061
 H     51  44  40     2.062806190985   115.45866765   292.86457295
 H     52  51  44     2.064911446230   120.09133181     2.22107062
 C     52  51  44     2.841547732112   124.91954688   182.40323155
 C     55  52  51     2.903568880200   109.35630772   239.30696499
 C     55  52  51     2.929379639605   110.69331625   115.12151924
 H     55  52  51     2.082130155016   108.39961604   357.57927713
 H     57  55  52     2.082924025919   107.19364018    58.17525913
 C     57  55  52     2.893648357402   110.95066590   300.02662673
 C     57  55  52     2.894086551665   112.12691285   176.88368262
 H     56  55  52     2.069137362747   110.35172334    52.25965807
 H     56  55  52     2.073834208820   110.53467829   292.98909409
 H     56  55  52     2.067002524229   111.89175358   172.41995308
 H     60  57  55     2.070315009400   110.80886365   179.22444223
 H     60  57  55     2.067756081454   111.69176198    58.27554391
 H     60  57  55     2.074995051130   110.26138637   298.55249477
 H     61  57  55     2.074660159681   110.45977562    56.16155817
 H     61  57  55     2.066666153853   112.44576109   295.32436148
 H     61  57  55     2.070451294714   110.35360030   175.16681215
 H     50  44  40     2.069882934693   110.58841533   188.25428313
 H     50  44  40     2.063479937004   111.07290995    68.69211067
 H     50  44  40     2.071783525454   111.36890827   308.40040954

---------------------
BASIS SET INFORMATION
---------------------
There are 3 groups of distinct atoms

 Group   1 Type C   : 7s4p contracted to 4s3p pattern {4111/211}
 Group   2 Type H   : 5s contracted to 3s pattern {311}
 Group   3 Type O   : 7s4p contracted to 4s3p pattern {4111/211}

Atom   0C    basis set group =>   1
Atom   1C    basis set group =>   1
Atom   2C    basis set group =>   1
Atom   3H    basis set group =>   2
Atom   4H    basis set group =>   2
Atom   5C    basis set group =>   1
Atom   6C    basis set group =>   1
Atom   7C    basis set group =>   1
Atom   8H    basis set group =>   2
Atom   9H    basis set group =>   2
Atom  10H    basis set group =>   2
Atom  11H    basis set group =>   2
Atom  12O    basis set group =>   3
Atom  13H    basis set group =>   2
Atom  14C    basis set group =>   1
Atom  15C    basis set group =>   1
Atom  16H    basis set group =>   2
Atom  17H    basis set group =>   2
Atom  18C    basis set group =>   1
Atom  19H    basis set group =>   2
Atom  20C    basis set group =>   1
Atom  21H    basis set group =>   2
Atom  22C    basis set group =>   1
Atom  23C    basis set group =>   1
Atom  24H    basis set group =>   2
Atom  25H    basis set group =>   2
Atom  26C    basis set group =>   1
Atom  27H    basis set group =>   2
Atom  28H    basis set group =>   2
Atom  29C    basis set group =>   1
Atom  30H    basis set group =>   2
Atom  31H    basis set group =>   2
Atom  32C    basis set group =>   1
Atom  33H    basis set group =>   2
Atom  34C    basis set group =>   1
Atom  35H    basis set group =>   2
Atom  36C    basis set group =>   1
Atom  37H    basis set group =>   2
Atom  38H    basis set group =>   2
Atom  39C    basis set group =>   1
Atom  40H    basis set group =>   2
Atom  41H    basis set group =>   2
Atom  42H    basis set group =>   2
Atom  43C    basis set group =>   1
Atom  44C    basis set group =>   1
Atom  45H    basis set group =>   2
Atom  46H    basis set group =>   2
Atom  47H    basis set group =>   2
Atom  48H    basis set group =>   2
Atom  49C    basis set group =>   1
Atom  50C    basis set group =>   1
Atom  51C    basis set group =>   1
Atom  52H    basis set group =>   2
Atom  53H    basis set group =>   2
Atom  54C    basis set group =>   1
Atom  55C    basis set group =>   1
Atom  56C    basis set group =>   1
Atom  57H    basis set group =>   2
Atom  58H    basis set group =>   2
Atom  59C    basis set group =>   1
Atom  60C    basis set group =>   1
Atom  61H    basis set group =>   2
Atom  62H    basis set group =>   2
Atom  63H    basis set group =>   2
Atom  64H    basis set group =>   2
Atom  65H    basis set group =>   2
Atom  66H    basis set group =>   2
Atom  67H    basis set group =>   2
Atom  68H    basis set group =>   2
Atom  69H    basis set group =>   2
Atom  70H    basis set group =>   2
Atom  71H    basis set group =>   2
Atom  72H    basis set group =>   2

-------------------------
BASIS SET IN INPUT FORMAT
-------------------------

 # Basis set for element : H 
 NewGTO H 
 S 3 
   1    1357.7500000000      0.0012928364
   2      54.3100000000      0.0588280685
   3       4.3448000000      0.9761499708
 S 1 
   1       0.6604910000      1.0000000000
 S 1 
   1       0.1366870000      1.0000000000
  end;

 # Basis set for element : C 
 NewGTO C 
 S 4 
   1  139534.0000000000      0.0001655246
   2    5581.3600000000      0.0074486101
   3     446.5090000000      0.1285821065
   4      67.4620000000      0.9218029311
 S 1 
   1      15.0674000000      1.0000000000
 S 1 
   1       3.9387600000      1.0000000000
 S 1 
   1       0.2999150000      1.0000000000
 P 2 
   1      28.3900000000      0.0816325586
   2       4.3676900000      0.9660360576
 P 1 
   1       0.8698170000      1.0000000000
 P 1 
   1       0.1889340000      1.0000000000
  end;

 # Basis set for element : O 
 NewGTO O 
 S 4 
   1  253789.0000000000      0.0001641076
   2   10151.6000000000      0.0074010921
   3     812.1250000000      0.1277711901
   4     122.6930000000      0.9223372164
 S 1 
   1      27.5608000000      1.0000000000
 S 1 
   1       7.3172600000      1.0000000000
 S 1 
   1       0.5792400000      1.0000000000
 P 2 
   1      53.4157000000      0.0793786106
   2       8.2177900000      0.9670506337
 P 1 
   1       1.6754400000      1.0000000000
 P 1 
   1       0.3506720000      1.0000000000
  end;

---------------------------------
AUXILIARY/J BASIS SET INFORMATION
---------------------------------
There are 3 groups of distinct atoms

 Group   1 Type C   : 12s5p4d2f1g contracted to 6s4p3d1f1g pattern {711111/2111/211/2/1}
 Group   2 Type H   : 5s2p1d contracted to 3s1p1d pattern {311/2/1}
 Group   3 Type O   : 12s5p4d2f1g contracted to 6s4p3d1f1g pattern {711111/2111/211/2/1}

Atom   0C    basis set group =>   1
Atom   1C    basis set group =>   1
Atom   2C    basis set group =>   1
Atom   3H    basis set group =>   2
Atom   4H    basis set group =>   2
Atom   5C    basis set group =>   1
Atom   6C    basis set group =>   1
Atom   7C    basis set group =>   1
Atom   8H    basis set group =>   2
Atom   9H    basis set group =>   2
Atom  10H    basis set group =>   2
Atom  11H    basis set group =>   2
Atom  12O    basis set group =>   3
Atom  13H    basis set group =>   2
Atom  14C    basis set group =>   1
Atom  15C    basis set group =>   1
Atom  16H    basis set group =>   2
Atom  17H    basis set group =>   2
Atom  18C    basis set group =>   1
Atom  19H    basis set group =>   2
Atom  20C    basis set group =>   1
Atom  21H    basis set group =>   2
Atom  22C    basis set group =>   1
Atom  23C    basis set group =>   1
Atom  24H    basis set group =>   2
Atom  25H    basis set group =>   2
Atom  26C    basis set group =>   1
Atom  27H    basis set group =>   2
Atom  28H    basis set group =>   2
Atom  29C    basis set group =>   1
Atom  30H    basis set group =>   2
Atom  31H    basis set group =>   2
Atom  32C    basis set group =>   1
Atom  33H    basis set group =>   2
Atom  34C    basis set group =>   1
Atom  35H    basis set group =>   2
Atom  36C    basis set group =>   1
Atom  37H    basis set group =>   2
Atom  38H    basis set group =>   2
Atom  39C    basis set group =>   1
Atom  40H    basis set group =>   2
Atom  41H    basis set group =>   2
Atom  42H    basis set group =>   2
Atom  43C    basis set group =>   1
Atom  44C    basis set group =>   1
Atom  45H    basis set group =>   2
Atom  46H    basis set group =>   2
Atom  47H    basis set group =>   2
Atom  48H    basis set group =>   2
Atom  49C    basis set group =>   1
Atom  50C    basis set group =>   1
Atom  51C    basis set group =>   1
Atom  52H    basis set group =>   2
Atom  53H    basis set group =>   2
Atom  54C    basis set group =>   1
Atom  55C    basis set group =>   1
Atom  56C    basis set group =>   1
Atom  57H    basis set group =>   2
Atom  58H    basis set group =>   2
Atom  59C    basis set group =>   1
Atom  60C    basis set group =>   1
Atom  61H    basis set group =>   2
Atom  62H    basis set group =>   2
Atom  63H    basis set group =>   2
Atom  64H    basis set group =>   2
Atom  65H    basis set group =>   2
Atom  66H    basis set group =>   2
Atom  67H    basis set group =>   2
Atom  68H    basis set group =>   2
Atom  69H    basis set group =>   2
Atom  70H    basis set group =>   2
Atom  71H    basis set group =>   2
Atom  72H    basis set group =>   2

-------------------------------------
AUXILIARY/J BASIS SET IN INPUT FORMAT
-------------------------------------

 # Auxiliary/J basis set for element : H 
 NewAuxJGTO H 
 S 3 
   1      15.6752927000      0.1007184237
   2       3.6063578000      0.3404257499
   3       1.2080016000      0.6491996172
 S 1 
   1       0.4726794000      1.0000000000
 S 1 
   1       0.2018100000      1.0000000000
 P 2 
   1       2.0281365000      0.5596620919
   2       0.5358730000      0.5596620919
 D 1 
   1       2.2165124000      1.0000000000
  end;

 # Auxiliary/J basis set for element : C 
 NewAuxJGTO C 
 S 7 
   1    1861.0916331000      0.0134602335
   2     642.9939764000      0.0299160374
   3     235.1105725000      0.1008649584
   4      90.7028894000      0.2370970548
   5      36.7794552000      0.3924037254
   6      15.6046273000      0.3195862154
   7       6.8907294000      0.0530104441
 S 1 
   1       3.1478850000     -1.0000000000
 S 1 
   1       1.4777287000      1.0000000000
 S 1 
   1       0.7076466000      1.0000000000
 S 1 
   1       0.3430122000      1.0000000000
 S 1 
   1       0.1669453000      1.0000000000
 P 2 
   1      13.5472892000     -0.6769313712
   2       5.4669419000     -0.3779500978
 P 1 
   1       2.1751721000      1.0000000000
 P 1 
   1       0.8582194000      1.0000000000
 P 1 
   1       0.3376720000      1.0000000000
 D 2 
   1       5.9287253000     -0.3533329857
   2       1.9809209000     -0.7456525731
 D 1 
   1       0.8055417000     -1.0000000000
 D 1 
   1       0.3531244000     -1.0000000000
 F 2 
   1       1.6755626000      0.6311076882
   2       0.5997536000      0.4968166032
 G 1 
   1       1.0024600000     -1.0000000000
  end;

 # Auxiliary/J basis set for element : O 
 NewAuxJGTO O 
 S 7 
   1    2876.8216605000      0.0168151159
   2    1004.7443032000      0.0340137548
   3     369.7579954000      0.1194951309
   4     142.9442404000      0.2664627624
   5      57.8366425000      0.4202764046
   6      24.3864983000      0.2765077335
   7      10.6622662000      0.0057008815
 S 1 
   1       4.8070437000     -1.0000000000
 S 1 
   1       2.2210770000      1.0000000000
 S 1 
   1       1.0447795000      1.0000000000
 S 1 
   1       0.4968425000      1.0000000000
 S 1 
   1       0.2371384000      1.0000000000
 P 2 
   1      64.2613382000     -0.2731534179
   2      16.3006076000     -0.8168011598
 P 1 
   1       4.3550542000      1.0000000000
 P 1 
   1       1.2019554000      1.0000000000
 P 1 
   1       0.3354196000      1.0000000000
 D 2 
   1       9.2146611000     -0.4661230638
   2       2.8435251000     -0.6600908911
 D 1 
   1       0.9955759000     -1.0000000000
 D 1 
   1       0.3649441000     -1.0000000000
 F 2 
   1       2.6420115000      0.5931563945
   2       0.7345613000      0.5931563945
 G 1 
   1       1.3931000000     -1.0000000000
  end;


Checking for AutoStart:
The File: inpJ.gbw exists
Trying to determine its content:
     ... Fine, the file contains calculation information
     ... Fine, the calculation information was read
     ... Fine, the file contains a basis set
     ... Fine, the basis set was read
     ... Fine, the file contains a geometry
     ... Fine, the geometry was read
     ... Fine, the file contains a set of orbitals
     ... Fine, the orbitals can be read
     => possible old guess file was deleted
     => GBW file was renamed to GES file
     => GES file is set as startup file
     => Guess is set to MORead
     ... now leaving AutoStart



           ************************************************************
           *        Program running with 4 parallel MPI-processes     *
           *              working on a common directory               *
           ************************************************************
------------------------------------------------------------------------------
                             ORCA STARTUP CALCULATIONS
                           -- RI-GTO INTEGRALS CHOSEN --
------------------------------------------------------------------------------
------------------------------------------------------------------------------
                   ___                                                        
                  /   \      - P O W E R E D   B Y -                         
                 /     \                                                     
                 |  |  |   _    _      __       _____    __    __             
                 |  |  |  | |  | |    /  \     |  _  \  |  |  /  |          
                  \  \/   | |  | |   /    \    | | | |  |  | /  /          
                 / \  \   | |__| |  /  /\  \   | |_| |  |  |/  /          
                |  |  |   |  __  | /  /__\  \  |    /   |      \           
                |  |  |   | |  | | |   __   |  |    \   |  |\   \          
                \     /   | |  | | |  |  |  |  | |\  \  |  | \   \       
                 \___/    |_|  |_| |__|  |__|  |_| \__\ |__|  \__/        
                                                                              
                      - O R C A' S   B I G   F R I E N D -                    
                                      &                                       
                       - I N T E G R A L  F E E D E R -                       
                                                                              
 v1 FN, 2020, v2 2021, v3 2022-2024                                           
------------------------------------------------------------------------------


----------------------
SHARK INTEGRAL PACKAGE
----------------------

Number of atoms                             ...     73
Number of basis functions                   ...    509
Number of shells                            ...    335
Maximum angular momentum                    ...      1
Integral batch strategy                     ... SHARK/LIBINT Hybrid
RI-J (if used) integral strategy            ... SPLIT-RIJ (Revised 2003 algorithm where possible)
Printlevel                                  ...      1
Contraction scheme used                     ... SEGMENTED contraction
Prescreening option                         ... SCHWARTZ
   Thresh                                   ... 3.000e-11
   Tcut                                     ... 1.000e-12
   Tpresel                                  ... 1.000e-12 
Coulomb Range Separation                    ... NOT USED
Exchange Range Separation                   ... NOT USED
Multipole approximations                    ... NOT USED
Finite Nucleus Model                        ... NOT USED
CABS basis                                  ... NOT available
Auxiliary Coulomb fitting basis             ... AVAILABLE
   # of basis functions in Aux-J            ...   1905
   # of shells in Aux-J                     ...    655
   Maximum angular momentum in Aux-J        ...      4
Auxiliary J/K fitting basis                 ... NOT available
Auxiliary Correlation fitting basis         ... NOT available
Auxiliary 'external' fitting basis          ... NOT available

Checking pre-screening integrals            ... done (  0.0 sec) Dimension = 335
Check shell pair data                       ... done (  0.0 sec)
Shell pair information
Shell pair cut-off parameter TPreSel        ...   1.0e-12
Total number of shell pairs                 ...     56280
Shell pairs after pre-screening             ...     21689
Total number of primitive shell pairs       ...    145865
Primitive shell pairs kept                  ...     37336
          la=0 lb=0:  10935 shell pairs
          la=1 lb=0:   8903 shell pairs
          la=1 lb=1:   1851 shell pairs

Calculating one electron integrals          ... done (  0.0 sec)
Calculating RI/J V-Matrix + Cholesky decomp.... done (  0.2 sec)
Calculating Nuclear repulsion               ... done (  0.0 sec) ENN=   2762.965631719105 Eh

Diagonalization of the overlap matrix:
Smallest eigenvalue                        ... 7.553e-03
Time for diagonalization                   ...    0.025 sec
Threshold for overlap eigenvalues          ... 1.000e-07
Number of eigenvalues below threshold      ... 0
Time for construction of square roots      ...    0.012 sec
Total time needed                          ...    0.040 sec

-------------------
DFT GRID GENERATION
-------------------

General Integration Accuracy     IntAcc      ... 4.388
Radial Grid Type                 RadialGrid  ... OptM3 with GC (2021)
Angular Grid (max. ang.)         AngularGrid ... 4 (Lebedev-302)
Angular grid pruning method      GridPruning ... 4 (adaptive)
Weight generation scheme         WeightScheme... mBecke (2022)
Basis function cutoff            BFCut       ... 1.0000e-11
Integration weight cutoff        WCut        ... 1.0000e-14
Partially contracted basis set               ... off
Rotationally invariant grid construction     ... off
Angular grids for H and He will be reduced by one unit

Total number of grid points                  ...   309882
Total number of batches                      ...     4874
Average number of points per batch           ...       63
Average number of grid points per atom       ...     4245

--------------------
COSX GRID GENERATION
--------------------

GRIDX 1
-------
General Integration Accuracy     IntAcc      ... 3.816
Radial Grid Type                 RadialGrid  ... OptM3 with GC (2021)
Angular Grid (max. ang.)         AngularGrid ... 1 (Lebedev-50)
Angular grid pruning method      GridPruning ... 4 (adaptive)
Weight generation scheme         WeightScheme... mBecke (2022)
Basis function cutoff            BFCut       ... 1.0000e-11
Integration weight cutoff        WCut        ... 1.0000e-14
Partially contracted basis set               ... on
Rotationally invariant grid construction     ... off
Angular grids for H and He will be reduced by one unit

Total number of grid points                  ...    39439
Total number of batches                      ...      354
Average number of points per batch           ...      111
Average number of grid points per atom       ...      540
UseSFitting                                  ... on

GRIDX 2
-------
General Integration Accuracy     IntAcc      ... 4.020
Radial Grid Type                 RadialGrid  ... OptM3 with GC (2021)
Angular Grid (max. ang.)         AngularGrid ... 2 (Lebedev-110)
Angular grid pruning method      GridPruning ... 4 (adaptive)
Weight generation scheme         WeightScheme... mBecke (2022)
Basis function cutoff            BFCut       ... 1.0000e-11
Integration weight cutoff        WCut        ... 1.0000e-14
Partially contracted basis set               ... on
Rotationally invariant grid construction     ... off
Angular grids for H and He will be reduced by one unit

Total number of grid points                  ...    81484
Total number of batches                      ...      678
Average number of points per batch           ...      120
Average number of grid points per atom       ...     1116
UseSFitting                                  ... on

GRIDX 3
-------
General Integration Accuracy     IntAcc      ... 4.338
Radial Grid Type                 RadialGrid  ... OptM3 with GC (2021)
Angular Grid (max. ang.)         AngularGrid ... 3 (Lebedev-194)
Angular grid pruning method      GridPruning ... 4 (adaptive)
Weight generation scheme         WeightScheme... mBecke (2022)
Basis function cutoff            BFCut       ... 1.0000e-11
Integration weight cutoff        WCut        ... 1.0000e-14
Partially contracted basis set               ... on
Rotationally invariant grid construction     ... off
Angular grids for H and He will be reduced by one unit

Total number of grid points                  ...   176429
Total number of batches                      ...     1418
Average number of points per batch           ...      124
Average number of grid points per atom       ...     2417
UseSFitting                                  ... on
Initializing property integral containers    ... done (  0.0 sec)

SHARK setup successfully completed in   3.7 seconds

Maximum memory used throughout the entire STARTUP-calculation: 85.2 MB


           ************************************************************
           *        Program running with 4 parallel MPI-processes     *
           *              working on a common directory               *
           ************************************************************
-------------------------------------------------------------------------------
                                 ORCA GUESS
                   Start orbitals & Density for SCF / CASSCF
-------------------------------------------------------------------------------

------------
SCF SETTINGS
------------
Hamiltonian:
 Density Functional     Method          .... DFT(GTOs)
 Exchange Functional    Exchange        .... PBE
   PBE kappa parameter   XKappa         ....  0.804000
   PBE mue parameter    XMuePBE         ....  0.219520
 Correlation Functional Correlation     .... PBE
   PBE beta parameter  CBetaPBE         ....  0.066725
 LDA part of GGA corr.  LDAOpt          .... PW91-LDA
 Gradients option       PostSCFGGA      .... off
 Hybrid DFT is turned on
   Fraction HF Exchange ScalHFX         ....  0.250000
   Scaling of DF-GGA-X  ScalDFX         ....  0.750000
   Scaling of DF-GGA-C  ScalDFC         ....  1.000000
   Scaling of DF-LDA-C  ScalLDAC        ....  1.000000
   Perturbative correction              ....  0.000000
   NL short-range parameter             ....  6.900000
 RI-approximation to the Coulomb term is turned on
   Number of AuxJ basis functions       .... 1905
   RIJ-COSX (HFX calculated with COS-X)).... on


General Settings:
 Integral files         IntName         .... inpJ
 Hartree-Fock type      HFTyp           .... RHF
 Total Charge           Charge          ....    0
 Multiplicity           Mult            ....    1
 Number of Electrons    NEL             ....  220
 Basis Dimension        Dim             ....  509
 Nuclear Repulsion      ENuc            ....   2762.9656317191 Eh

Convergence Acceleration:
 AO-DIIS                CNVDIIS         .... on
   Start iteration      DIISMaxIt       ....    12
   Startup error        DIISStart       ....  0.200000
   # of expansion vecs  DIISMaxEq       ....     5
   Bias factor          DIISBfac        ....   1.050
   Max. coefficient     DIISMaxC        ....  10.000
 MO-DIIS                CNVKDIIS        .... off
 Trust-Rad. Augm. Hess. CNVTRAH         .... auto
   Auto Start mean grad. ratio tolernc. ....  1.125000
   Auto Start start iteration           ....     1
   Auto Start num. interpolation iter.  ....    10
   Max. Number of Micro iterations      ....    24
   Max. Number of Macro iterations      .... Maxiter - #DIIS iter
   Number of Davidson start vectors     ....     2
   Converg. threshold    (grad. norm)   ....   1.000e-04
   Grad. Scal. Fac. for Micro threshold ....   0.100
   Minimum threshold for Micro iter.    ....   1.000e-02
   NR start threshold (gradient norm)   ....   1.000e-04
   Initial trust radius                 ....   0.400
   Minimum AH scaling param. (alpha)    ....   1.000
   Maximum AH scaling param. (alpha)    .... 1000.000
   Quad. conv. algorithm                .... NR
   White noise on init. David. guess    .... on
   Maximum white noise                  ....   0.010
   Pseudo random numbers                .... off
   Inactive MOs                         .... canonical
   Orbital update algorithm             .... Taylor
   Preconditioner                       .... Diag
   Full preconditioner red. dimension   ....   250
 SOSCF                  CNVSOSCF        .... off
 Level Shifting         CNVShift        .... on
   Level shift para.    LevelShift      ....    0.2500
   Turn off err/grad.   ShiftErr        ....    0.0010
 Zerner damping         CNVZerner       .... off
 Static damping         CNVDamp         .... on
   Fraction old density DampFac         ....    0.7000
   Max. Damping (<1)    DampMax         ....    0.9800
   Min. Damping (>=0)   DampMin         ....    0.0000
   Turn off err/grad.   DampErr         ....    0.1000

SCF Procedure:
 Maximum # iterations   MaxIter         ....   125
 SCF integral mode      SCFMode         .... Direct
   Integral package                     .... SHARK and LIBINT hybrid scheme
 Reset frequency        DirectResetFreq ....    20
 Integral Threshold     Thresh          ....  3.000e-11 Eh
 Primitive CutOff       TCut            ....  1.000e-12 Eh

Convergence Tolerance:
 Convergence Check Mode ConvCheckMode   .... Total+1el-Energy
 Convergence forced     ConvForced      .... 0
 Energy Change          TolE            ....  1.000e-07 Eh
 1-El. energy change                    ....  1.000e-04 Eh
 DIIS Error             TolErr          ....  1.000e-07

---------------------
INITIAL GUESS: MOREAD
---------------------
Guess MOs are being read from file: inpJ.ges
Input Geometry matches current geometry (good)
Input basis set matches current basis set (good)
Occupation numbers will be reassigned to an Aufbau configuration
MOs were renormalized
MOs were reorthogonalized (Cholesky)
                      ------------------
                      INITIAL GUESS DONE (   0.1 sec)
                      ------------------
             **** ENERGY FILE WAS UPDATED (inpJ.en.tmp) ****
Finished Guess after   0.2 sec
Maximum memory used throughout the entire GUESS-calculation: 36.5 MB


           ************************************************************
           *        Program running with 4 parallel MPI-processes     *
           *              working on a common directory               *
           ************************************************************

-------------------------------------------------------------------------------------------
                                      ORCA LEAN-SCF
                              memory conserving SCF solver
-------------------------------------------------------------------------------------------

--------------------
CPCM SOLVATION MODEL
--------------------
CPCM parameters:
  Epsilon                                         ...       4.8030
  Refrac                                          ...       1.4459
  Rsolv                                           ...       1.3000
  Surface type                                    ... GAUSSIAN VDW
  Discretization scheme                           ... Constant charge density
    Threshold for H atoms                         ...       5.0000 (charges/Ang^2)
    Threshold for non-H atoms                     ...       5.0000 (charges/Ang^2)
  Epsilon function type                           ...         CPCM
Solvent:                                          ... CHLOROFORM
Radii:
  Scheme                                          ... Element-dependent radii
  Radius for C  used is    3.8550 Bohr (=   2.0400 Ang.)
  Radius for H  used is    2.4944 Bohr (=   1.3200 Ang.)
  Radius for O  used is    3.4469 Bohr (=   1.8240 Ang.)
Calculating surface                               ...        done! (  0.0s)
Cavity surface points                             ...         5406
Cavity Volume                                     ...    3615.1081
Cavity Surface-area                               ...    1812.4340
Calculating surface distance matrix               ...        done! (  0.4s)
Performing Cholesky decomposition & store         ...        done! (  0.9s)
Overall time for CPCM initialization              ...                 1.4s

----------------------------------------D-I-I-S--------------------------------------------
Iteration    Energy (Eh)           Delta-E    RMSDP     MaxDP     DIISErr   Damp  Time(sec)
-------------------------------------------------------------------------------------------
               ***  Starting incremental Fock matrix formation  ***
    1    -1165.5091958785715178     0.00e+00  4.64e-08  5.45e-06  8.34e-06  0.700   6.1

  HOMO= 109 E= -5.926 eV LUMO=  5.974 eV gap=  11.900 eV
    2    -1165.5091959011897416    -2.26e-08  3.10e-08  3.23e-06  3.89e-06  0.700   2.0
                 **** Energy Check signals convergence ****

  HOMO= 109 E= -5.926 eV LUMO=  5.974 eV gap=  11.900 eV

               *****************************************************
               *                     SUCCESS                       *
               *           SCF CONVERGED AFTER   2 CYCLES          *
               *****************************************************

Recomputing exchange energy using gridx3       ... done (    8.103 sec)
Old exchange energy                            :    -42.067437778 Eh
New exchange energy                            :    -42.067496408 Eh
Exchange energy change after final integration :     -0.000058630 Eh
Total energy after final integration           :  -1165.509254531 Eh
             **** ENERGY FILE WAS UPDATED (inpJ.en.tmp) ****

----------------
TOTAL SCF ENERGY
----------------

Total Energy       :      -1165.50925453075251 Eh          -31715.11918 eV

Components:
Nuclear Repulsion  :       2762.96563171910520 Eh           75184.11713 eV
Electronic Energy  :      -3928.45956079809775 Eh         -106898.81928 eV
One Electron Energy:      -7067.90789386839697 Eh         -192327.55154 eV
Two Electron Energy:       3139.44833307029921 Eh           85428.73226 eV
CPCM Dielectric    :         -0.01526682219720 Eh              -0.41543 eV

Virial components:
Potential Energy   :      -2322.41138833711784 Eh          -63196.02670 eV
Kinetic Energy     :       1156.90213380636533 Eh           31480.90752 eV
Virial Ratio       :          2.00743980019820

DFT components:
N(Alpha)           :      110.000199156350 electrons
N(Beta)            :      110.000199156350 electrons
N(Total)           :      220.000398312699 electrons
E(X)               :     -125.745463636910 Eh       
E(C)               :       -7.326583324768 Eh       
E(XC)              :     -133.072046961677 Eh       

CPCM Solvation Model Properties:
Surface-charge          :         -0.03337276765422
Corrected charge        :         -0.00000000000000
Outlying charge corr.   :          0.00003877629393 Eh               0.00106 eV
Free-energy (cav+disp)  :  This term is not implemented in the current solvation scheme

---------------
SCF CONVERGENCE
---------------

  Last Energy change         ...    2.2618e-08  Tolerance :   1.0000e-07
  Last MAX-Density change    ...    3.2343e-06  Tolerance :   1.0000e-05
  Last RMS-Density change    ...    3.0992e-08  Tolerance :   1.0000e-06
  Last DIIS Error            ...    3.8934e-06  Tolerance :   1.0000e-07


----------------
ORBITAL ENERGIES
----------------

  NO   OCC          E(Eh)            E(eV) 
   0   2.0000     -19.215194      -522.8720 
   1   2.0000     -10.301470      -280.3172 
   2   2.0000     -10.269686      -279.4524 
   3   2.0000     -10.267004      -279.3794 
   4   2.0000     -10.262192      -279.2484 
   5   2.0000     -10.256791      -279.1015 
   6   2.0000     -10.253640      -279.0157 
   7   2.0000     -10.252090      -278.9736 
   8   2.0000     -10.249516      -278.9035 
   9   2.0000     -10.249359      -278.8992 
  10   2.0000     -10.248736      -278.8823 
  11   2.0000     -10.246820      -278.8301 
  12   2.0000     -10.246208      -278.8135 
  13   2.0000     -10.245888      -278.8048 
  14   2.0000     -10.243987      -278.7530 
  15   2.0000     -10.243467      -278.7389 
  16   2.0000     -10.243399      -278.7371 
  17   2.0000     -10.242122      -278.7023 
  18   2.0000     -10.242033      -278.6999 
  19   2.0000     -10.241270      -278.6791 
  20   2.0000     -10.239327      -278.6263 
  21   2.0000     -10.235425      -278.5201 
  22   2.0000     -10.234914      -278.5062 
  23   2.0000     -10.233779      -278.4753 
  24   2.0000     -10.226109      -278.2666 
  25   2.0000     -10.224538      -278.2238 
  26   2.0000     -10.224334      -278.2183 
  27   2.0000     -10.221876      -278.1514 
  28   2.0000     -10.220885      -278.1244 
  29   2.0000      -1.045907       -28.4606 
  30   2.0000      -0.901367       -24.5274 
  31   2.0000      -0.883846       -24.0507 
  32   2.0000      -0.860185       -23.4068 
  33   2.0000      -0.846140       -23.0246 
  34   2.0000      -0.822428       -22.3794 
  35   2.0000      -0.814434       -22.1619 
  36   2.0000      -0.795263       -21.6402 
  37   2.0000      -0.794929       -21.6311 
  38   2.0000      -0.776403       -21.1270 
  39   2.0000      -0.758245       -20.6329 
  40   2.0000      -0.741334       -20.1727 
  41   2.0000      -0.733910       -19.9707 
  42   2.0000      -0.714481       -19.4420 
  43   2.0000      -0.700506       -19.0617 
  44   2.0000      -0.699448       -19.0330 
  45   2.0000      -0.694178       -18.8895 
  46   2.0000      -0.669375       -18.2146 
  47   2.0000      -0.659482       -17.9454 
  48   2.0000      -0.633202       -17.2303 
  49   2.0000      -0.622230       -16.9317 
  50   2.0000      -0.619602       -16.8602 
  51   2.0000      -0.608721       -16.5641 
  52   2.0000      -0.597830       -16.2678 
  53   2.0000      -0.576145       -15.6777 
  54   2.0000      -0.566702       -15.4207 
  55   2.0000      -0.547423       -14.8961 
  56   2.0000      -0.541181       -14.7263 
  57   2.0000      -0.530049       -14.4234 
  58   2.0000      -0.515169       -14.0185 
  59   2.0000      -0.509365       -13.8605 
  60   2.0000      -0.498366       -13.5612 
  61   2.0000      -0.491359       -13.3706 
  62   2.0000      -0.480551       -13.0764 
  63   2.0000      -0.478441       -13.0191 
  64   2.0000      -0.475903       -12.9500 
  65   2.0000      -0.469582       -12.7780 
  66   2.0000      -0.461944       -12.5701 
  67   2.0000      -0.459806       -12.5120 
  68   2.0000      -0.457113       -12.4387 
  69   2.0000      -0.450866       -12.2687 
  70   2.0000      -0.447353       -12.1731 
  71   2.0000      -0.443989       -12.0816 
  72   2.0000      -0.436142       -11.8680 
  73   2.0000      -0.432620       -11.7722 
  74   2.0000      -0.430502       -11.7146 
  75   2.0000      -0.424811       -11.5597 
  76   2.0000      -0.415871       -11.3164 
  77   2.0000      -0.413864       -11.2618 
  78   2.0000      -0.408758       -11.1229 
  79   2.0000      -0.402543       -10.9538 
  80   2.0000      -0.400208       -10.8902 
  81   2.0000      -0.397227       -10.8091 
  82   2.0000      -0.395606       -10.7650 
  83   2.0000      -0.390961       -10.6386 
  84   2.0000      -0.385798       -10.4981 
  85   2.0000      -0.380675       -10.3587 
  86   2.0000      -0.379159       -10.3174 
  87   2.0000      -0.370940       -10.0938 
  88   2.0000      -0.367506       -10.0003 
  89   2.0000      -0.364944        -9.9306 
  90   2.0000      -0.362401        -9.8614 
  91   2.0000      -0.358749        -9.7620 
  92   2.0000      -0.350867        -9.5476 
  93   2.0000      -0.344995        -9.3878 
  94   2.0000      -0.342815        -9.3285 
  95   2.0000      -0.340373        -9.2620 
  96   2.0000      -0.339145        -9.2286 
  97   2.0000      -0.334311        -9.0971 
  98   2.0000      -0.329386        -8.9631 
  99   2.0000      -0.328163        -8.9298 
 100   2.0000      -0.326830        -8.8935 
 101   2.0000      -0.323416        -8.8006 
 102   2.0000      -0.320458        -8.7201 
 103   2.0000      -0.316384        -8.6092 
 104   2.0000      -0.312027        -8.4907 
 105   2.0000      -0.300693        -8.1823 
 106   2.0000      -0.280229        -7.6254 
 107   2.0000      -0.274933        -7.4813 
 108   2.0000      -0.255751        -6.9593 
 109   2.0000      -0.217792        -5.9264 
 110   0.0000      -0.030459        -0.8288 
 111   0.0000       0.021105         0.5743 
 112   0.0000       0.029797         0.8108 
 113   0.0000       0.080500         2.1905 
 114   0.0000       0.090961         2.4752 
 115   0.0000       0.094401         2.5688 
 116   0.0000       0.101648         2.7660 
 117   0.0000       0.104973         2.8565 
 118   0.0000       0.108094         2.9414 
 119   0.0000       0.117711         3.2031 
 120   0.0000       0.118657         3.2288 
*Only the first 10 virtual orbitals were printed.

                    ********************************
                    * MULLIKEN POPULATION ANALYSIS *
                    ********************************

-----------------------
MULLIKEN ATOMIC CHARGES
-----------------------
   0 C :    0.108141
   1 C :   -0.499881
   2 C :   -0.054922
   3 H :    0.207304
   4 H :    0.222190
   5 C :    0.135601
   6 C :   -0.475765
   7 C :   -0.451759
   8 H :    0.214213
   9 H :    0.224111
  10 H :    0.229130
  11 H :    0.204707
  12 O :   -0.487373
  13 H :    0.233919
  14 C :   -0.283358
  15 C :   -0.516773
  16 H :    0.201309
  17 H :    0.196775
  18 C :   -0.260286
  19 H :    0.217910
  20 C :    0.151062
  21 H :    0.218856
  22 C :   -0.480065
  23 C :   -0.427243
  24 H :    0.211739
  25 H :    0.206746
  26 C :   -0.396762
  27 H :    0.208068
  28 H :    0.216964
  29 C :    0.000897
  30 H :    0.222140
  31 H :    0.194202
  32 C :   -0.228680
  33 H :    0.227471
  34 C :   -0.430916
  35 H :    0.343200
  36 C :   -0.426410
  37 H :    0.207980
  38 H :    0.198822
  39 C :   -0.186611
  40 H :    0.210993
  41 H :    0.205217
  42 H :    0.215487
  43 C :   -0.240853
  44 C :   -0.627053
  45 H :    0.209018
  46 H :    0.200906
  47 H :    0.205642
  48 H :    0.218366
  49 C :   -0.637159
  50 C :   -0.183329
  51 C :   -0.172030
  52 H :    0.215815
  53 H :    0.212863
  54 C :   -0.239067
  55 C :   -0.616019
  56 C :   -0.201771
  57 H :    0.212351
  58 H :    0.209610
  59 C :   -0.607801
  60 C :   -0.611138
  61 H :    0.205924
  62 H :    0.193199
  63 H :    0.210273
  64 H :    0.200589
  65 H :    0.210439
  66 H :    0.189627
  67 H :    0.191888
  68 H :    0.209101
  69 H :    0.205660
  70 H :    0.200858
  71 H :    0.214022
  72 H :    0.191723
Sum of atomic charges:    0.0000000

--------------------------------
MULLIKEN REDUCED ORBITAL CHARGES
--------------------------------
  0 C s       :     3.355924  s :     3.355924
      pz      :     1.010427  p :     2.535935
      px      :     0.792861
      py      :     0.732648

  1 C s       :     3.383649  s :     3.383649
      pz      :     1.033770  p :     3.116232
      px      :     0.939403
      py      :     1.143059

  2 C s       :     3.306273  s :     3.306273
      pz      :     1.073621  p :     2.748649
      px      :     0.783933
      py      :     0.891095

  3 H s       :     0.792696  s :     0.792696

  4 H s       :     0.777810  s :     0.777810

  5 C s       :     3.345379  s :     3.345379
      pz      :     0.828678  p :     2.519020
      px      :     0.933898
      py      :     0.756444

  6 C s       :     3.368322  s :     3.368322
      pz      :     1.044319  p :     3.107443
      px      :     0.939680
      py      :     1.123444

  7 C s       :     3.340466  s :     3.340466
      pz      :     1.189122  p :     3.111293
      px      :     0.984709
      py      :     0.937462

  8 H s       :     0.785787  s :     0.785787

  9 H s       :     0.775889  s :     0.775889

 10 H s       :     0.770870  s :     0.770870

 11 H s       :     0.795293  s :     0.795293

 12 O s       :     3.685467  s :     3.685467
      pz      :     1.635244  p :     4.801906
      px      :     1.290530
      py      :     1.876133

 13 H s       :     0.766081  s :     0.766081

 14 C s       :     3.392394  s :     3.392394
      pz      :     1.010900  p :     2.890964
      px      :     0.806979
      py      :     1.073085

 15 C s       :     3.386920  s :     3.386920
      pz      :     0.994718  p :     3.129854
      px      :     1.010075
      py      :     1.125061

 16 H s       :     0.798691  s :     0.798691

 17 H s       :     0.803225  s :     0.803225

 18 C s       :     3.396873  s :     3.396873
      pz      :     1.033893  p :     2.863413
      px      :     0.755860
      py      :     1.073660

 19 H s       :     0.782090  s :     0.782090

 20 C s       :     3.350374  s :     3.350374
      pz      :     0.959529  p :     2.498564
      px      :     0.750863
      py      :     0.788172

 21 H s       :     0.781144  s :     0.781144

 22 C s       :     3.372436  s :     3.372436
      pz      :     1.090276  p :     3.107630
      px      :     1.131109
      py      :     0.886244

 23 C s       :     3.327104  s :     3.327104
      pz      :     1.081061  p :     3.100139
      px      :     0.902475
      py      :     1.116603

 24 H s       :     0.788261  s :     0.788261

 25 H s       :     0.793254  s :     0.793254

 26 C s       :     3.349812  s :     3.349812
      pz      :     1.180315  p :     3.046950
      px      :     0.953235
      py      :     0.913400

 27 H s       :     0.791932  s :     0.791932

 28 H s       :     0.783036  s :     0.783036

 29 C s       :     3.318128  s :     3.318128
      pz      :     0.867309  p :     2.680974
      px      :     0.906384
      py      :     0.907281

 30 H s       :     0.777860  s :     0.777860

 31 H s       :     0.805798  s :     0.805798

 32 C s       :     3.362476  s :     3.362476
      pz      :     1.063275  p :     2.866204
      px      :     0.872856
      py      :     0.930074

 33 H s       :     0.772529  s :     0.772529

 34 C s       :     3.344574  s :     3.344574
      pz      :     1.186741  p :     3.086342
      px      :     0.930844
      py      :     0.968758

 35 H s       :     0.656800  s :     0.656800

 36 C s       :     3.336122  s :     3.336122
      pz      :     1.158519  p :     3.090288
      px      :     0.957213
      py      :     0.974556

 37 H s       :     0.792020  s :     0.792020

 38 H s       :     0.801178  s :     0.801178

 39 C s       :     3.338612  s :     3.338612
      pz      :     1.050123  p :     2.847999
      px      :     0.865387
      py      :     0.932489

 40 H s       :     0.789007  s :     0.789007

 41 H s       :     0.794783  s :     0.794783

 42 H s       :     0.784513  s :     0.784513

 43 C s       :     3.349466  s :     3.349466
      pz      :     1.043138  p :     2.891387
      px      :     0.879168
      py      :     0.969081

 44 C s       :     3.365908  s :     3.365908
      pz      :     0.966019  p :     3.261145
      px      :     1.155160
      py      :     1.139965

 45 H s       :     0.790982  s :     0.790982

 46 H s       :     0.799094  s :     0.799094

 47 H s       :     0.794358  s :     0.794358

 48 H s       :     0.781634  s :     0.781634

 49 C s       :     3.351737  s :     3.351737
      pz      :     1.144566  p :     3.285423
      px      :     1.166304
      py      :     0.974552

 50 C s       :     3.343413  s :     3.343413
      pz      :     0.960801  p :     2.839916
      px      :     0.800087
      py      :     1.079028

 51 C s       :     3.340603  s :     3.340603
      pz      :     0.961058  p :     2.831427
      px      :     0.805378
      py      :     1.064991

 52 H s       :     0.784185  s :     0.784185

 53 H s       :     0.787137  s :     0.787137

 54 C s       :     3.337122  s :     3.337122
      pz      :     0.881810  p :     2.901945
      px      :     0.880971
      py      :     1.139163

 55 C s       :     3.343735  s :     3.343735
      pz      :     1.106175  p :     3.272285
      px      :     1.010130
      py      :     1.155980

 56 C s       :     3.310061  s :     3.310061
      pz      :     0.875827  p :     2.891710
      px      :     0.892437
      py      :     1.123446

 57 H s       :     0.787649  s :     0.787649

 58 H s       :     0.790390  s :     0.790390

 59 C s       :     3.340924  s :     3.340924
      pz      :     1.100633  p :     3.266877
      px      :     1.017483
      py      :     1.148761

 60 C s       :     3.341736  s :     3.341736
      pz      :     1.124242  p :     3.269402
      px      :     1.029064
      py      :     1.116096

 61 H s       :     0.794076  s :     0.794076

 62 H s       :     0.806801  s :     0.806801

 63 H s       :     0.789727  s :     0.789727

 64 H s       :     0.799411  s :     0.799411

 65 H s       :     0.789561  s :     0.789561

 66 H s       :     0.810373  s :     0.810373

 67 H s       :     0.808112  s :     0.808112

 68 H s       :     0.790899  s :     0.790899

 69 H s       :     0.794340  s :     0.794340

 70 H s       :     0.799142  s :     0.799142

 71 H s       :     0.785978  s :     0.785978

 72 H s       :     0.808277  s :     0.808277


------------------------
MULLIKEN OVERLAP CHARGES
------------------------
B(  0-C ,  1-C ) :   0.4959 B(  0-C ,  2-C ) :  -0.1306 B(  0-C ,  3-H ) :  -0.0876 
B(  0-C ,  4-H ) :  -0.0673 B(  0-C ,  5-C ) :   0.4214 B(  0-C ,  6-C ) :  -0.1562 
B(  0-C , 14-C ) :   0.9461 B(  0-C , 15-C ) :  -0.2027 B(  0-C , 18-C ) :  -0.1835 
B(  0-C , 19-H ) :  -0.0751 B(  1-C ,  2-C ) :   0.5269 B(  1-C ,  3-H ) :   0.7958 
B(  1-C ,  4-H ) :   0.8136 B(  1-C ,  5-C ) :  -0.1483 B(  1-C ,  7-C ) :  -0.1691 
B(  1-C , 12-O ) :  -0.0832 B(  1-C , 13-H ) :  -0.0844 B(  1-C , 14-C ) :  -0.1079 
B(  2-C ,  3-H ) :  -0.0819 B(  2-C ,  4-H ) :  -0.0581 B(  2-C ,  6-C ) :  -0.1289 
B(  2-C ,  7-C ) :   0.5342 B(  2-C , 10-H ) :  -0.0697 B(  2-C , 11-H ) :  -0.0825 
B(  2-C , 12-O ) :   0.6905 B(  2-C , 13-H ) :   0.7985 B(  2-C , 35-H ) :  -0.1131 
B(  5-C ,  6-C ) :   0.5389 B(  5-C ,  7-C ) :  -0.1713 B(  5-C ,  8-H ) :  -0.0881 
B(  5-C ,  9-H ) :  -0.0736 B(  5-C , 14-C ) :  -0.1964 B(  5-C , 15-C ) :   1.0581 
B(  5-C , 16-H ) :  -0.0995 B(  5-C , 17-H ) :  -0.0943 B(  6-C ,  7-C ) :   0.5412 
B(  6-C ,  8-H ) :   0.8037 B(  6-C ,  9-H ) :   0.8190 B(  6-C , 11-H ) :  -0.0739 
B(  6-C , 15-C ) :  -0.1290 B(  7-C ,  8-H ) :  -0.0769 B(  7-C , 10-H ) :   0.8058 
B(  7-C , 11-H ) :   0.7945 B(  7-C , 12-O ) :  -0.0901 B(  7-C , 13-H ) :  -0.0842 
B( 12-O , 35-H ) :   0.6599 B( 14-C , 18-C ) :   0.6128 B( 14-C , 19-H ) :   0.8250 
B( 14-C , 20-C ) :  -0.1951 B( 14-C , 21-H ) :  -0.0733 B( 15-C , 16-H ) :   0.8143 
B( 15-C , 17-H ) :   0.8069 B( 18-C , 19-H ) :  -0.0610 B( 18-C , 20-C ) :   0.9217 
B( 18-C , 21-H ) :   0.8318 B( 18-C , 22-C ) :  -0.1497 B( 18-C , 32-C ) :  -0.1485 
B( 20-C , 21-H ) :  -0.0845 B( 20-C , 22-C ) :   0.5328 B( 20-C , 23-C ) :  -0.1713 
B( 20-C , 24-H ) :  -0.0666 B( 20-C , 25-H ) :  -0.0928 B( 20-C , 29-C ) :  -0.1241 
B( 20-C , 32-C ) :   0.5183 B( 20-C , 33-H ) :  -0.0916 B( 20-C , 34-C ) :  -0.0984 
[...]
        0.0000         1.3878        0.0000
        0.0000         0.0000        1.3878

 Diagonalized JT*J matrix:
 
 J[55,60](FC)             1.388            1.388            1.388  iso=      1.388
                ---------------  ---------------  ---------------  ---------------
 J[55,60](Total)          1.388            1.388            1.388  iso=      1.388



-----------------------------------------------------------
 NUCLEUS A = C   56 NUCLEUS B = C   59 
 ( 13C  gnA =  1.405  13C  gnB =  1.405) r(AB) =     1.5313
-----------------------------------------------------------

Fermi-contact contribution to J (Hz):
       27.7507         0.0000        0.0000
        0.0000        27.7507        0.0000
        0.0000         0.0000       27.7507

Total spin-spin coupling tensor J (Hz):
       27.7507         0.0000        0.0000
        0.0000        27.7507        0.0000
        0.0000         0.0000       27.7507

 Diagonalized JT*J matrix:
 
 J[56,59](FC)            27.751           27.751           27.751  iso=     27.751
                ---------------  ---------------  ---------------  ---------------
 J[56,59](Total)         27.751           27.751           27.751  iso=     27.751



-----------------------------------------------------------
 NUCLEUS A = C   56 NUCLEUS B = C   60 
 ( 13C  gnA =  1.405  13C  gnB =  1.405) r(AB) =     1.5315
-----------------------------------------------------------

Fermi-contact contribution to J (Hz):
       26.7899         0.0000        0.0000
        0.0000        26.7899        0.0000
        0.0000         0.0000       26.7899

Total spin-spin coupling tensor J (Hz):
       26.7899         0.0000        0.0000
        0.0000        26.7899        0.0000
        0.0000         0.0000       26.7899

 Diagonalized JT*J matrix:
 
 J[56,60](FC)            26.790           26.790           26.790  iso=     26.790
                ---------------  ---------------  ---------------  ---------------
 J[56,60](Total)         26.790           26.790           26.790  iso=     26.790



-----------------------------------------------------------
 NUCLEUS A = C   59 NUCLEUS B = C   60 
 ( 13C  gnA =  1.405  13C  gnB =  1.405) r(AB) =     2.5054
-----------------------------------------------------------

Fermi-contact contribution to J (Hz):
       -0.9606         0.0000        0.0000
        0.0000        -0.9606        0.0000
        0.0000         0.0000       -0.9606

Total spin-spin coupling tensor J (Hz):
       -0.9606         0.0000        0.0000
        0.0000        -0.9606        0.0000
        0.0000         0.0000       -0.9606

 Diagonalized JT*J matrix:
 
 J[59,60](FC)            -0.961           -0.961           -0.961  iso=     -0.961
                ---------------  ---------------  ---------------  ---------------
 J[59,60](Total)         -0.961           -0.961           -0.961  iso=     -0.961



-----------------------------------------------------------------------------
                SUMMARY OF ISOTROPIC COUPLING CONSTANTS J (Hz)                
-----------------------------------------------------------------------------
                  0 C        1 C        2 C        5 C        6 C        7 C  
      0 C        0.000     32.422     -2.383     42.212     -0.172      0.891
      1 C       32.422      0.000     25.323     -1.181      0.380     -0.379
      2 C       -2.383     25.323      0.000      2.018     -1.350     25.791
      5 C       42.212     -1.181      2.018      0.000     30.976     -2.894
      6 C       -0.172      0.380     -1.350     30.976      0.000     23.058
      7 C        0.891     -0.379     25.791     -2.894     23.058      0.000
     14 C       70.190     -0.373      3.567     -3.188      2.747     -0.708
     15 C       -3.288      2.730     -0.839     64.281     -0.893      2.836
     18 C       -2.647      4.234     -1.068      3.284     -1.015      0.207
     20 C        6.960     -1.156      1.254     -1.511      0.784     -0.147
     22 C       -0.940      0.334     -0.380      0.448     -0.237      0.047
     23 C        0.796     -0.270      0.292     -0.333      0.189      0.000
     26 C       -0.077      0.030      0.000      0.041      0.000      0.000
     29 C        1.125     -0.360      0.000     -0.487      0.257      0.000
     32 C       -1.153      0.558     -0.414      0.516     -0.278      0.058
     34 C        0.021     -0.015      0.015     -0.017      0.009     -0.002
     36 C       -0.013      0.000      0.000      0.015     -0.009      0.000
     39 C       -0.080      0.000      0.000      0.034      0.000      0.000
     43 C        0.000      0.000      0.000      0.000      0.000      0.000
     44 C        0.006     -0.002      0.004     -0.005      0.003     -0.000
     49 C        0.000      0.000      0.000      0.000      0.000      0.000
     50 C        0.000      0.000      0.000      0.000      0.000      0.000
     51 C        0.000      0.000      0.000      0.000      0.000      0.000
     54 C        0.000      0.000      0.000      0.000      0.000      0.000
     55 C        0.000      0.000      0.000      0.000      0.000      0.000
     56 C        0.000      0.000      0.000      0.000      0.000      0.000
     59 C        0.000      0.000      0.000      0.000      0.000      0.000
     60 C        0.000      0.000      0.000      0.000      0.000      0.000
                 14 C       15 C       18 C       20 C       22 C       23 C  
      0 C       70.190     -3.288     -2.647      6.960     -0.940      0.796
      1 C       -0.373      2.730      4.234     -1.156      0.334     -0.270
      2 C        3.567     -0.839     -1.068      1.254     -0.380      0.292
      5 C       -3.188     64.281      3.284     -1.511      0.448     -0.333
      6 C        2.747     -0.893     -1.015      0.784     -0.237      0.189
      7 C       -0.708      2.836      0.207     -0.147      0.047      0.000
     14 C        0.000      3.069     54.488     -2.774      3.893     -0.893
     15 C        3.069      0.000     -1.133      1.075     -0.277      0.238
     18 C       54.488     -1.133      0.000     70.026     -2.156      2.471
     20 C       -2.774      1.075     70.026      0.000     32.258     -2.864
     22 C        3.893     -0.277     -2.156     32.258      0.000     24.454
     23 C       -0.893      0.238      2.471     -2.864     24.454      0.000
     26 C        0.117     -0.021     -0.365      1.027     -1.920     25.403
     29 C       -1.154      0.342      2.391     -2.353      1.089     -2.189
     32 C        4.418     -0.339     -1.330     37.057     -0.198      1.533
     34 C        0.062      0.005      2.456     -1.320      1.621     -0.253
     36 C        0.012     -0.014     -0.156      3.476      0.073      0.170
     39 C        0.269     -0.024     -0.053      2.956     -0.338      2.535
     43 C        0.014      0.000      0.297      0.225     -0.005     -0.108
     44 C        0.005      0.002     -0.078      0.698     -0.134      0.614
     49 C        0.000      0.000     -0.009     -0.032      0.142      0.055
     50 C        0.000      0.000      0.004      0.212     -0.007      0.113
     51 C        0.000      0.000      0.000      0.070     -0.004      0.002
     54 C        0.000      0.000      0.000      0.000      0.000      0.000
     55 C        0.000      0.000      0.000      0.000      0.000      0.000
     56 C        0.000      0.000      0.000      0.000      0.000      0.000
     59 C        0.000      0.000      0.000     -0.001      0.000      0.000
     60 C        0.000      0.000      0.000      0.000      0.000      0.000
                 26 C       29 C       32 C       34 C       36 C       39 C  
      0 C       -0.077      1.125     -1.153      0.021     -0.013     -0.080
      1 C        0.030     -0.360      0.558     -0.015      0.000      0.000
      2 C        0.000      0.000     -0.414      0.015      0.000      0.000
      5 C        0.041     -0.487      0.516     -0.017      0.015      0.034
      6 C        0.000      0.257     -0.278      0.009     -0.009      0.000
      7 C        0.000      0.000      0.058     -0.002      0.000      0.000
     14 C        0.117     -1.154      4.418      0.062      0.012      0.269
     15 C       -0.021      0.342     -0.339      0.005     -0.014     -0.024
     18 C       -0.365      2.391     -1.330      2.456     -0.156     -0.053
     20 C        1.027     -2.353     37.057     -1.320      3.476      2.956
     22 C       -1.920      1.089     -0.198      1.621      0.073     -0.338
     23 C       25.403     -2.189      1.533     -0.253      0.170      2.535
     26 C        0.000     27.831     -0.927      2.306      3.024     -0.549
     29 C       27.831      0.000     23.346      0.859      0.722     27.949
     32 C       -0.927     23.346      0.000     28.009      1.233      3.443
     34 C        2.306      0.859     28.009      0.000     26.095      0.028
     36 C        3.024      0.722      1.233     26.095      0.000     26.416
     39 C       -0.549     27.949      3.443      0.028     26.416      0.000
     43 C       -0.023     -0.657      2.841      1.570     -0.009     27.673
     44 C       -0.574     27.179     -0.997      0.799      0.302     -1.243
     49 C        0.431      0.105     -0.008      0.063      3.264     -0.994
     50 C       -0.073      3.003      0.004      0.099      1.402     -2.869
     51 C       -0.017      0.169      0.155     -0.036      0.088      2.903
     54 C       -0.002      0.097     -0.034      0.015      0.001     -0.819
     55 C       -0.004      0.040      0.000     -0.006      0.008      0.993
     56 C       -0.008      0.118      0.059     -0.009      0.031      1.173
     59 C        0.001     -0.010      0.000      0.002     -0.011     -0.035
     60 C        0.000      0.000      0.000      0.000      0.003      0.094
                 43 C       44 C       49 C       50 C       51 C       54 C  
      0 C        0.000      0.006      0.000      0.000      0.000      0.000
      1 C        0.000     -0.002      0.000      0.000      0.000      0.000
      2 C        0.000      0.004      0.000      0.000      0.000      0.000
      5 C        0.000     -0.005      0.000      0.000      0.000      0.000
      6 C        0.000      0.003      0.000      0.000      0.000      0.000
      7 C        0.000     -0.000      0.000      0.000      0.000      0.000
     14 C        0.014      0.005      0.000      0.000      0.000      0.000
     15 C        0.000      0.002      0.000      0.000      0.000      0.000
     18 C        0.297     -0.078     -0.009      0.004      0.000      0.000
     20 C        0.225      0.698     -0.032      0.212      0.070      0.000
     22 C       -0.005     -0.134      0.142     -0.007     -0.004      0.000
     23 C       -0.108      0.614      0.055      0.113      0.002      0.000
     26 C       -0.023     -0.574      0.431     -0.073     -0.017     -0.002
     29 C       -0.657     27.179      0.105      3.003      0.169      0.097
     32 C        2.841     -0.997     -0.008      0.004      0.155     -0.034
     34 C        1.570      0.799      0.063      0.099     -0.036      0.015
     36 C       -0.009      0.302      3.264      1.402      0.088      0.001
     39 C       27.673     -1.243     -0.994     -2.869      2.903     -0.819
     43 C        0.000      1.417     27.145     35.665     -1.524      3.767
     44 C        1.417      0.000     -0.043     -0.100      0.078      0.009
     49 C       27.145     -0.043      0.000     -1.975      3.191     -0.082
     50 C       35.665     -0.100     -1.975      0.000     69.328     -0.444
     51 C       -1.524      0.078      3.191     69.328      0.000     36.804
     54 C        3.767      0.009     -0.082     -0.444     36.804      0.000
     55 C       -0.680      0.002      0.059      3.462     -2.533     26.851
     56 C       -0.557     -0.008      0.051      3.339     -1.859     26.074
     59 C       -0.041      0.005      0.004     -0.030      0.747     -0.543
     60 C        0.094      0.000      0.019      0.121      3.379     -0.588
                 55 C       56 C       59 C       60 C  
      0 C        0.000      0.000      0.000      0.000
      1 C        0.000      0.000      0.000      0.000
      2 C        0.000      0.000      0.000      0.000
      5 C        0.000      0.000      0.000      0.000
      6 C        0.000      0.000      0.000      0.000
      7 C        0.000      0.000      0.000      0.000
     14 C        0.000      0.000      0.000      0.000
     15 C        0.000      0.000      0.000      0.000
     18 C        0.000      0.000      0.000      0.000
     20 C        0.000      0.000     -0.001      0.000
     22 C        0.000      0.000      0.000      0.000
     23 C        0.000      0.000      0.000      0.000
     26 C       -0.004     -0.008      0.001      0.000
     29 C        0.040      0.118     -0.010      0.000
     32 C        0.000      0.059      0.000      0.000
     34 C       -0.006     -0.009      0.002      0.000
     36 C        0.008      0.031     -0.011      0.003
     39 C        0.993      1.173     -0.035      0.094
     43 C       -0.680     -0.557     -0.041      0.094
     44 C        0.002     -0.008      0.005      0.000
     49 C        0.059      0.051      0.004      0.019
     50 C        3.462      3.339     -0.030      0.121
     51 C       -2.533     -1.859      0.747      3.379
     54 C       26.851     26.074     -0.543     -0.588
     55 C        0.000     -1.169      2.604      1.388
     56 C       -1.169      0.000     27.751     26.790
     59 C        2.604     27.751      0.000     -0.961
     60 C        1.388     26.790     -0.961      0.000

NMR spin-spin coupling calculation done in   0.3 sec 

Maximum memory used throughout the entire PROP-calculation: 34.0 MB

--------------------------------
SUGGESTED CITATIONS FOR THIS RUN
--------------------------------

Below you find a list of papers that are relevant to this ORCA run
We neither can nor want to force you to cite these papers, but we appreciate if you do
You receive ORCA, which is the product of decades of hard work by many enthusiastic individuals, for free
The only thing we kindly ask in return is that you cite our papers,
We deeply appreciate it, if you show your appreciation for ORCA by not just citing the generic ORCA reference.

Please note that relegating all ORCA citations to the supporting information does *not* help us.
SI sections are not indexed - citations you put there will not count into any citation statistics
But we need these citations in order to attract the funding resources that allow us to do what we are doing

Therefore, if you are a happy ORCA user, please consider citing a few of the papers listed below in the main body of your paper

In addition to the list printed below, the program has created the file inpJ.bibtex that contains the list in bibtex format
You can import this file easily into all common literature databanks and citation aid programs


List of essential papers. We consider these as the minimum necessary citations

  1. Neese,F.
     Software update: the ORCA program system, version 5.0
     WIRES Comput. Molec. Sci., 2022 12(1)e1606
     doi.org/10.1002/wcms.1606

List of papers to cite with high priority. The work reported in these papers was absolutely
necessary for this run to complete.
Our perspective: the developers of density functionals and basis sets usually get cited in chemistry papers
Good! But without the algorithms to do something with them, the functionals or basis sets would not do anything.
Hence, in our opinion, the algorithm design and method developments papers are equally worthy of getting cited

  1. Neese,F.
     An improvement of the resolution of the identity approximation for the formation of the Coulomb matrix
     J. Comp. Chem., 2003 24(14)1740-1747
     doi.org/10.1002/jcc.10318
  2. Neese,F.; Wennmohs,F.; Hansen,A.; Becker,U.
     Efficient, approximate and parallel Hartree-Fock and hybrid DFT calculations. A 'chain-of-spheres' algorithm for the Hartree-Fock exchange
     Chem. Phys., 2009 356(1-3)98-109
     doi.org/10.1016/j.chemphys.2008.10.036
  3. Stoychev,G.L.; Auer,A.A.; Izsak,R.; Neese,F.
     Self-Consistent Field Calculation of Nuclear Magnetic Resonance Chemical Shielding Constants Using Gauge-Including Atomic Orbitals and Approximate Two-Electron Integrals
     J. Chem. Theory Comput., 2018 14(2)619-637
     doi.org/10.1021/acs.jctc.7b01006
  4. Garcia-Rates,M.; Neese,F.
     Effect of the Solute Cavity on the Solvation Energy and its Derivatives within the Framework of the Gaussian Charge Scheme
     J. Comput. Chem., 2020 41 922-939
     doi.org/10.1002/jcc.26139
  5. Helmich-Paris,B.; de Souza,B.; Neese,F.; Izsák,R.
     An improved chain of spheres for exchange algorithm
     J. Chem. Phys., 2021 155 104109
     doi.org/doi: 10.1063/5.0058766.
  6. Neese,F.
     The SHARK Integral Generation and Digestion System
     J. Comp. Chem., 2022  1-16
     doi.org/10.1002/jcc.26942
  7. Grimme,S.; Bannwarth,C.; Dohm,S.; Hansen,A.; Pisarek,J.; Pracht,P.; Seibert,J.; Neese,F.
     Fully Automated Quantum-Chemistry-Based Computation of Spin-Spin-Coupled Nuclear Magnetic Resonance Spectra
     Angew. Chem., Int. Ed., 2017 56 14763-14769
     doi.org/10.1002/anie.201708266
  8. Caldeweyher,E.; Bannwarth,C.; Grimme,S.
     Extension of the D3 dispersion coefficient model
     J. Chem. Phys., 2017 147 034112-XXXX
     doi.org/10.1063/1.4993215
  9. Caldeweyher,E.; Ehlert,S.; Hansen,A.; Neugebauer,H.; Spicher,S.; Bannwarth,C.; Grimme,S.
     A generally applicable atomic-charge dependent London dispersion correction
     J. Chem. Phys., 2019 150 154122-XXXX
     doi.org/10.1063/1.5090222
 10. Caldeweyher,E.; Mewes,J.; Ehlert,S.; Grimme,S.
     Extension and evaluation of the D4 London-dispersion model for periodic systems
     Phys. Chem. Chem. Phys., 2020 22(16)8499-8512
     doi.org/10.1039/D0CP00502A

List of suggested additional citations. These are papers that are important in the 'surrounding' of 
of this run, or papers that preceded the highly important papers. If you like your results we are grateful for a citation.

  1. Izsak,R.; Neese,F.
     An overlap fitted chain of spheres exchange method
     J. Chem. Phys., 2011 135 144105
     doi.org/10.1063/1.3646921
  2. Izsak,R.; Hansen,A.; Neese,F.
     The resolution of identity and chain of spheres approximations for the LPNO-CCSD singles Fock term
     Molec. Phys., 2012 110 2413-2417
     doi.org/10.1080/00268976.2012.687466
  3. Neese,F.
     The ORCA program system
     WIRES Comput. Molec. Sci., 2012 2(1)73-78
     doi.org/10.1002/wcms.81
  4. Izsak,R.; Neese,F.; Klopper,W.
     Robust fitting techniques in the chain of spheres approximation to the Fock exchange: The role of the complementary space
     J. Chem. Phys., 2013 139 
     doi.org/10.1063/1.4819264
  5. Neese,F.
     Software update: the ORCA program system, version 4.0
     WIRES Comput. Molec. Sci., 2018 8(1)1-6
     doi.org/10.1002/wcms.1327
  6. Neese,F.; Wennmohs,F.; Becker,U.; Riplinger,C.
     The ORCA quantum chemistry program package
     J. Chem. Phys., 2020 152 Art. No. L224108
     doi.org/10.1063/5.0004608

Timings for individual modules:

Sum of individual times          ...      134.458 sec (=   2.241 min)
Startup calculation              ...        3.854 sec (=   0.064 min)   2.9 %
SCF iterations                   ...       18.824 sec (=   0.314 min)  14.0 %
Property integrals               ...        0.726 sec (=   0.012 min)   0.5 %
SCF Response                     ...      110.487 sec (=   1.841 min)  82.2 %
Property calculations            ...        0.566 sec (=   0.009 min)   0.4 %
                             ****ORCA TERMINATED NORMALLY****
TOTAL RUN TIME: 0 days 0 hours 2 minutes 14 seconds 732 msec
