
                                 *****************
                                 * O   R   C   A *
                                 *****************

                                            #,                                       
                                            ###                                      
                                            ####                                     
                                            #####                                    
                                            ######                                   
                                           ########,                                 
                                     ,,################,,,,,                         
                               ,,#################################,,                 
                          ,,##########################################,,             
                       ,#########################################, ''#####,          
                    ,#############################################,,   '####,        
                  ,##################################################,,,,####,       
                ,###########''''           ''''###############################       
              ,#####''   ,,,,##########,,,,          '''####'''          '####       
            ,##' ,,,,###########################,,,                        '##       
           ' ,,###''''                  '''############,,,                           
         ,,##''                                '''############,,,,        ,,,,,,###''
      ,#''                                            '''#######################'''  
     '                                                          ''''####''''         
             ,#######,   #######,   ,#######,      ##                                
            ,#'     '#,  ##    ##  ,#'     '#,    #''#        ######   ,####,        
            ##       ##  ##   ,#'  ##            #'  '#       #        #'  '#        
            ##       ##  #######   ##           ,######,      #####,   #    #        
            '#,     ,#'  ##    ##  '#,     ,#' ,#      #,         ##   #,  ,#        
             '#######'   ##     ##  '#######'  #'      '#     #####' # '####'        



                  #######################################################
                  #                        -***-                        #
                  #          Department of theory and spectroscopy      #
                  #    Directorship and core code : Frank Neese         #
                  #        Max Planck Institute fuer Kohlenforschung    #
                  #                Kaiser Wilhelm Platz 1               #
                  #                 D-45470 Muelheim/Ruhr               #
                  #                      Germany                        #
                  #                                                     #
                  #                  All rights reserved                #
                  #                        -***-                        #
                  #######################################################


                         Program Version 5.0.2 -  RELEASE  -


 With contributions from (in alphabetic order):
   Daniel Aravena         : Magnetic Suceptibility
   Michael Atanasov       : Ab Initio Ligand Field Theory (pilot matlab implementation)
   Alexander A. Auer      : GIAO ZORA, VPT2 properties, NMR spectrum
   Ute Becker             : Parallelization
   Giovanni Bistoni       : ED, misc. LED, open-shell LED, HFLD
   Martin Brehm           : Molecular dynamics
   Dmytro Bykov           : SCF Hessian
   Vijay G. Chilkuri      : MRCI spin determinant printing, contributions to CSF-ICE
   Dipayan Datta          : RHF DLPNO-CCSD density
   Achintya Kumar Dutta   : EOM-CC, STEOM-CC
   Dmitry Ganyushin       : Spin-Orbit,Spin-Spin,Magnetic field MRCI
   Miquel Garcia          : C-PCM and meta-GGA Hessian, CC/C-PCM, Gaussian charge scheme
   Yang Guo               : DLPNO-NEVPT2, F12-NEVPT2, CIM, IAO-localization
   Andreas Hansen         : Spin unrestricted coupled pair/coupled cluster methods
   Benjamin Helmich-Paris : MC-RPA, TRAH-SCF, COSX integrals
   Lee Huntington         : MR-EOM, pCC
   Robert Izsak           : Overlap fitted RIJCOSX, COSX-SCS-MP3, EOM
   Marcus Kettner         : VPT2
   Christian Kollmar      : KDIIS, OOCD, Brueckner-CCSD(T), CCSD density, CASPT2, CASPT2-K
   Simone Kossmann        : Meta GGA functionals, TD-DFT gradient, OOMP2, MP2 Hessian
   Martin Krupicka        : Initial AUTO-CI
   Lucas Lang             : DCDCAS
   Marvin Lechner         : AUTO-CI (C++ implementation), FIC-MRCC
   Dagmar Lenk            : GEPOL surface, SMD
   Dimitrios Liakos       : Extrapolation schemes; Compound Job, initial MDCI parallelization
   Dimitrios Manganas     : Further ROCIS development; embedding schemes
   Dimitrios Pantazis     : SARC Basis sets
   Anastasios Papadopoulos: AUTO-CI, single reference methods and gradients
   Taras Petrenko         : DFT Hessian,TD-DFT gradient, ASA, ECA, R-Raman, ABS, FL, XAS/XES, NRVS
   Peter Pinski           : DLPNO-MP2, DLPNO-MP2 Gradient
   Christoph Reimann      : Effective Core Potentials
   Marius Retegan         : Local ZFS, SOC
   Christoph Riplinger    : Optimizer, TS searches, QM/MM, DLPNO-CCSD(T), (RO)-DLPNO pert. Triples
   Tobias Risthaus        : Range-separated hybrids, TD-DFT gradient, RPA, STAB
   Michael Roemelt        : Original ROCIS implementation
   Masaaki Saitow         : Open-shell DLPNO-CCSD energy and density
   Barbara Sandhoefer     : DKH picture change effects
   Avijit Sen             : IP-ROCIS
   Kantharuban Sivalingam : CASSCF convergence, NEVPT2, FIC-MRCI
   Bernardo de Souza      : ESD, SOC TD-DFT
   Georgi Stoychev        : AutoAux, RI-MP2 NMR, DLPNO-MP2 response
   Willem Van den Heuvel  : Paramagnetic NMR
   Boris Wezisla          : Elementary symmetry handling
   Frank Wennmohs         : Technical directorship


 We gratefully acknowledge several colleagues who have allowed us to
 interface, adapt or use parts of their codes:
   Stefan Grimme, W. Hujo, H. Kruse, P. Pracht,  : VdW corrections, initial TS optimization,
                  C. Bannwarth, S. Ehlert          DFT functionals, gCP, sTDA/sTD-DF
   Ed Valeev, F. Pavosevic, A. Kumar             : LibInt (2-el integral package), F12 methods
   Garnet Chan, S. Sharma, J. Yang, R. Olivares  : DMRG
   Ulf Ekstrom                                   : XCFun DFT Library
   Mihaly Kallay                                 : mrcc  (arbitrary order and MRCC methods)
   Jiri Pittner, Ondrej Demel                    : Mk-CCSD
   Frank Weinhold                                : gennbo (NPA and NBO analysis)
   Christopher J. Cramer and Donald G. Truhlar   : smd solvation model
   Lars Goerigk                                  : TD-DFT with DH, B97 family of functionals
   V. Asgeirsson, H. Jonsson                     : NEB implementation
   FAccTs GmbH                                   : IRC, NEB, NEB-TS, DLPNO-Multilevel, CI-OPT
                                                   MM, QMMM, 2- and 3-layer-ONIOM, Crystal-QMMM,
                                                   LR-CPCM, SF, NACMEs, symmetry and pop. for TD-DFT,
                                                   nearIR, NL-DFT gradient (VV10), updates on ESD,
                                                   ML-optimized integration grids
   S Lehtola, MJT Oliveira, MAL Marques          : LibXC Library
   Liviu Ungur et al                             : ANISO software


 Your calculation uses the libint2 library for the computation of 2-el integrals
 For citations please refer to: http://libint.valeyev.net

 Your ORCA version has been built with support for libXC version: 5.1.0
 For citations please refer to: https://tddft.org/programs/libxc/

 This ORCA versions uses:
   CBLAS   interface :  Fast vector & matrix operations
   LAPACKE interface :  Fast linear algebra routines
   SCALAPACK package :  Parallel linear algebra routines
   Shared memory     :  Shared parallel matrices
   BLAS/LAPACK       :  OpenBLAS 0.3.15  USE64BITINT DYNAMIC_ARCH NO_AFFINITY Zen SINGLE_THREADED
        Core in use  :  Zen
   Copyright (c) 2011-2014, The OpenBLAS Project


Your calculation utilizes the atom-pairwise dispersion correction
based on tight binding partial charges (D4)
Cite in your paper:
E.Caldeweyher, C.Bannwarth, S.Grimme, J.Chem.Phys., (2017), 147, 034112.
E.Caldeweyher, S.Ehlert, A.Hansen, H.Neugebauer, S.Grimme, J.Chem.Phys., (2018), in progress.
   

================================================================================

----- Orbital basis set information -----
Your calculation utilizes the basis: pcJ-0
   F. Jensen, Theor. Chem. Acc. 126, 371 (2010).

----- AuxJ basis set information -----
Your calculation utilizes the auxiliary basis: def2/J
   F. Weigend, Phys. Chem. Chem. Phys. 8, 1057 (2006).

================================================================================
                                        WARNINGS
                       Please study these warnings very carefully!
================================================================================


INFO   : the flag for use of the SHARK integral package has been found!

================================================================================
                                       INPUT FILE
================================================================================
NAME = inpJ
|  1> ! pbe0
|  2> ! D4
|  3> ! pcJ-0
|  4> ! def2/J RIJCOSX
|  5> ! DEFGRID2
|  6> ! scfconv7
|  7> ! smallprint printgap noloewdin
|  8> ! NOSOSCF
|  9> %MaxCore 4000
| 10> %output
| 11>        print[P_BondOrder_M] 1
| 12>        print[P_Mayer] 1
| 13>        print[P_basis] 2
| 14> end
| 15> %pal
| 16>     nprocs 4
| 17> end
| 18> ! CPCM(chloroform)
| 19> *xyz 0 1
| 20> C   -5.2150124400   0.2368501800   0.1400686800
| 21> C   -6.5766060500  -0.2543786500  -0.2914254100
| 22> C   -7.0533553900   0.4451443600  -1.5703708200
| 23> H   -7.3137277800  -0.0283669500   0.4977203700
| 24> H   -6.5677818500  -1.3397033900  -0.4402413300
| 25> C   -5.1001297200   1.7090312300   0.2176511200
| 26> C   -5.6247585600   2.4407463700  -0.9971418600
| 27> C   -7.0286101400   1.9586584900  -1.3878202700
| 28> H   -4.9444661200   2.2462091100  -1.8402049100
| 29> H   -5.6232832000   3.5211530400  -0.8184008000
| 30> H   -7.3539435600   2.4476523800  -2.3135994500
| 31> H   -7.7454531600   2.2294020500  -0.5979124100
| 32> O   -8.3498194000  -0.0226901400  -1.9647742600
| 33> H   -6.3875442100   0.1672980300  -2.3993235700
| 34> C   -4.2037163500  -0.6321899400   0.3756592900
| 35> C   -4.6188668900   2.3546187400   1.2860179300
| 36> H   -4.2707829500   1.8163240100   2.1631902800
| 37> H   -4.5723595800   3.4408364800   1.3089126200
| 38> C   -2.8373848300  -0.2914750000   0.6973637700
| 39> H   -4.4434179400  -1.6891484900   0.2682121100
| 40> C   -1.8420867200  -1.1571968600   0.9869698300
| 41> H   -2.5958942600   0.7688772800   0.6873184700
| 42> C   -1.9779498600  -2.6551396700   1.0867116100
| 43> C   -0.9535332500  -3.3807074800   0.1935369700
| 44> H   -2.9885060200  -2.9983461400   0.8489103000
| 45> H   -1.7834645200  -2.9416934600   2.1326880600
| 46> C    0.4811209500  -2.8820273200   0.4141959900
| 47> H   -1.2365432500  -3.2453412600  -0.8580443700
| 48> H   -1.0021108900  -4.4583282100   0.3927334300
| 49> C    0.5875209000  -1.3585087400   0.2604703000
| 50> H    1.1493871300  -3.4010086500  -0.2807404600
| 51> H    0.8044383100  -3.1511398300   1.4311900800
| 52> C   -0.4349117200  -0.7154272000   1.2499735400
| 53> H   -0.1579699500  -1.1258244200   2.2388181600
| 54> C   -0.0613031000   0.7626396000   1.2564470600
| 55> H   -8.9693624100   0.2094281600  -1.2600951400
| 56> C    1.4838406500   0.7416001700   1.1615711700
| 57> H   -0.4236371500   1.2773004400   2.1527368200
| 58> H   -0.4956175800   1.2759732800   0.3913167700
| 59> C    1.9043551900  -0.7133151600   0.7815494000
| 60> H    1.9430808500   1.0439978400   2.1063386400
| 61> H    1.8439925700   1.4467981000   0.4030771700
| 62> H    2.1625246700  -1.2601150800   1.7024260500
| 63> C    3.1308477800  -0.7338469000  -0.1405542400
| 64> C    0.2924948600  -0.9256641900  -1.1825648700
| 65> H   -0.7536048800  -1.1063087200  -1.4487191000
| 66> H    0.9192226100  -1.4774788600  -1.8911791600
| 67> H    0.4861079800   0.1414192800  -1.3302019500
| 68> H    2.8745513400  -0.1568666200  -1.0433110400
| 69> C    3.5497577700  -2.1432451100  -0.5995326300
| 70> C    4.3560504700  -0.0771229800   0.4588822600
| 71> C    4.6213033700   0.1087397300   1.7516272300
| 72> H    5.1125612800   0.1969008200  -0.2779988400
| 73> H    3.8772851000  -0.1839281700   2.4946464700
| 74> C    5.8818116700   0.6854582000   2.3429906000
| 75> C    6.8996843100   1.1448171500   1.3008511700
| 76> C    6.4689401200  -0.3039877800   3.3891579400
| 77> H    5.5755795800   1.5734207200   2.9227297000
| 78> H    5.6307335200  -0.5793620000   4.0479232100
| 79> C    7.5410566600   0.3509227700   4.2635076000
| 80> C    7.0014457600  -1.5892086100   2.7522598600
| 81> H    6.4613568800   1.9008100600   0.6409751200
| 82> H    7.2409553900   0.3138400900   0.6743306200
| 83> H    7.7769235400   1.5902228800   1.7787861200
| 84> H    7.8360687000  -0.3214738800   5.0768050100
| 85> H    7.1769176500   1.2836571000   4.7096262100
| 86> H    8.4433617500   0.5804459000   3.6855316900
| 87> H    7.8984463800  -1.3919485200   2.1538513800
| 88> H    6.2534182500  -2.0523191300   2.0991754200
| 89> H    7.2754986700  -2.3150363400   3.5258076000
| 90> H    4.5091687900  -2.1013865600  -1.1273658200
| 91> H    2.8181333000  -2.5920197300  -1.2764132000
| 92> H    3.6734464700  -2.8021449100   0.2680515600
| 93> *
| 94> %eprnmr
| 95>  Nuclei = all H { ssfc }
| 96>  SpinSpinRThresh 8.0
| 97> end
| 98> 
| 99>                          ****END OF INPUT****
================================================================================

                       ****************************
                       * Single Point Calculation *
                       ****************************

---------------------------------
CARTESIAN COORDINATES (ANGSTROEM)
---------------------------------
  C     -5.215012    0.236850    0.140069
  C     -6.576606   -0.254379   -0.291425
  C     -7.053355    0.445144   -1.570371
  H     -7.313728   -0.028367    0.497720
  H     -6.567782   -1.339703   -0.440241
  C     -5.100130    1.709031    0.217651
  C     -5.624759    2.440746   -0.997142
  C     -7.028610    1.958658   -1.387820
  H     -4.944466    2.246209   -1.840205
  H     -5.623283    3.521153   -0.818401
  H     -7.353944    2.447652   -2.313599
  H     -7.745453    2.229402   -0.597912
  O     -8.349819   -0.022690   -1.964774
  H     -6.387544    0.167298   -2.399324
  C     -4.203716   -0.632190    0.375659
  C     -4.618867    2.354619    1.286018
  H     -4.270783    1.816324    2.163190
  H     -4.572360    3.440836    1.308913
  C     -2.837385   -0.291475    0.697364
  H     -4.443418   -1.689148    0.268212
  C     -1.842087   -1.157197    0.986970
  H     -2.595894    0.768877    0.687318
  C     -1.977950   -2.655140    1.086712
  C     -0.953533   -3.380707    0.193537
  H     -2.988506   -2.998346    0.848910
  H     -1.783465   -2.941693    2.132688
  C      0.481121   -2.882027    0.414196
  H     -1.236543   -3.245341   -0.858044
  H     -1.002111   -4.458328    0.392733
  C      0.587521   -1.358509    0.260470
  H      1.149387   -3.401009   -0.280740
  H      0.804438   -3.151140    1.431190
  C     -0.434912   -0.715427    1.249974
  H     -0.157970   -1.125824    2.238818
  C     -0.061303    0.762640    1.256447
  H     -8.969362    0.209428   -1.260095
  C      1.483841    0.741600    1.161571
  H     -0.423637    1.277300    2.152737
  H     -0.495618    1.275973    0.391317
  C      1.904355   -0.713315    0.781549
  H      1.943081    1.043998    2.106339
  H      1.843993    1.446798    0.403077
  H      2.162525   -1.260115    1.702426
  C      3.130848   -0.733847   -0.140554
  C      0.292495   -0.925664   -1.182565
  H     -0.753605   -1.106309   -1.448719
  H      0.919223   -1.477479   -1.891179
  H      0.486108    0.141419   -1.330202
  H      2.874551   -0.156867   -1.043311
  C      3.549758   -2.143245   -0.599533
  C      4.356050   -0.077123    0.458882
  C      4.621303    0.108740    1.751627
  H      5.112561    0.196901   -0.277999
  H      3.877285   -0.183928    2.494646
  C      5.881812    0.685458    2.342991
  C      6.899684    1.144817    1.300851
  C      6.468940   -0.303988    3.389158
  H      5.575580    1.573421    2.922730
  H      5.630734   -0.579362    4.047923
  C      7.541057    0.350923    4.263508
  C      7.001446   -1.589209    2.752260
  H      6.461357    1.900810    0.640975
  H      7.240955    0.313840    0.674331
  H      7.776924    1.590223    1.778786
  H      7.836069   -0.321474    5.076805
  H      7.176918    1.283657    4.709626
  H      8.443362    0.580446    3.685532
  H      7.898446   -1.391949    2.153851
  H      6.253418   -2.052319    2.099175
  H      7.275499   -2.315036    3.525808
  H      4.509169   -2.101387   -1.127366
  H      2.818133   -2.592020   -1.276413
  H      3.673446   -2.802145    0.268052

----------------------------
CARTESIAN COORDINATES (A.U.)
----------------------------
  NO LB      ZA    FRAG     MASS         X           Y           Z
   0 C     6.0000    0    12.011   -9.854945    0.447582    0.264691
   1 C     6.0000    0    12.011  -12.427984   -0.480706   -0.550714
   2 C     6.0000    0    12.011  -13.328910    0.841201   -2.967571
   3 H     1.0000    0     1.008  -13.820943   -0.053606    0.940555
   4 H     1.0000    0     1.008  -12.411309   -2.531673   -0.831936
   5 C     6.0000    0    12.011   -9.637848    3.229601    0.411301
   6 C     6.0000    0    12.011  -10.629253    4.612342   -1.884325
   7 C     6.0000    0    12.011  -13.282148    3.701328   -2.622600
   8 H     1.0000    0     1.008   -9.343687    4.244720   -3.477483
   9 H     1.0000    0     1.008  -10.626465    6.654015   -1.546553
  10 H     1.0000    0     1.008  -13.896939    4.625393   -4.372069
  11 H     1.0000    0     1.008  -14.636785    4.212959   -1.129891
  12 O     8.0000    0    15.999  -15.778872   -0.042878   -3.712885
  13 H     1.0000    0     1.008  -12.070709    0.316147   -4.534064
  14 C     6.0000    0    12.011   -7.943873   -1.194666    0.709893
  15 C     6.0000    0    12.011   -8.728393    4.449585    2.430222
  16 H     1.0000    0     1.008   -8.070610    3.432355    4.087837
  17 H     1.0000    0     1.008   -8.640507    6.502239    2.473486
  18 C     6.0000    0    12.011   -5.361880   -0.550808    1.317827
  19 H     1.0000    0     1.008   -8.396843   -3.192028    0.506847
  20 C     6.0000    0    12.011   -3.481039   -2.186785    1.865103
  21 H     1.0000    0     1.008   -4.905529    1.452967    1.298844
  22 C     6.0000    0    12.011   -3.737784   -5.017487    2.053587
  23 C     6.0000    0    12.011   -1.801917   -6.388611    0.365732
  24 H     1.0000    0     1.008   -5.647458   -5.666053    1.604208
  25 H     1.0000    0     1.008   -3.370260   -5.558995    4.030196
  26 C     6.0000    0    12.011    0.909187   -5.446242    0.782717
  27 H     1.0000    0     1.008   -2.336728   -6.132806   -1.621469
  28 H     1.0000    0     1.008   -1.893715   -8.425019    0.742159
  29 C     6.0000    0    12.011    1.110254   -2.567209    0.492218
  30 H     1.0000    0     1.008    2.172027   -6.426975   -0.530523
  31 H     1.0000    0     1.008    1.520168   -5.954791    2.704557
  32 C     6.0000    0    12.011   -0.821864   -1.351961    2.362108
  33 H     1.0000    0     1.008   -0.298520   -2.127500    4.230753
  34 C     6.0000    0    12.011   -0.115846    1.441180    2.374341
  35 H     1.0000    0     1.008  -16.949639    0.395762   -2.381235
  36 C     6.0000    0    12.011    2.804052    1.401421    2.195051
  37 H     1.0000    0     1.008   -0.800558    2.413748    4.068083
  38 H     1.0000    0     1.008   -0.936581    2.411240    0.739482
  39 C     6.0000    0    12.011    3.598710   -1.347970    1.476914
  40 H     1.0000    0     1.008    3.671891    1.972870    3.980403
  41 H     1.0000    0     1.008    3.484641    2.734052    0.761705
  42 H     1.0000    0     1.008    4.086579   -2.381272    3.217119
  43 C     6.0000    0    12.011    5.916445   -1.386770   -0.265609
  44 C     6.0000    0    12.011    0.552735   -1.749252   -2.234724
  45 H     1.0000    0     1.008   -1.424107   -2.090621   -2.737682
  46 H     1.0000    0     1.008    1.737079   -2.792030   -3.573811
  47 H     1.0000    0     1.008    0.918611    0.267244   -2.513717
  48 H     1.0000    0     1.008    5.432115   -0.296435   -1.971572
  49 C     6.0000    0    12.011    6.708070   -4.050146   -1.132952
  50 C     6.0000    0    12.011    8.231742   -0.145741    0.867162
  51 C     6.0000    0    12.011    8.732998    0.205488    3.310096
  52 H     1.0000    0     1.008    9.661341    0.372089   -0.525342
  53 H     1.0000    0     1.008    7.327007   -0.347574    4.714199
  54 C     6.0000    0    12.011   11.115013    1.295328    4.427611
  55 C     6.0000    0    12.011   13.038514    2.163391    2.458252
  56 C     6.0000    0    12.011   12.224525   -0.574454    6.404580
  57 H     1.0000    0     1.008   10.536318    2.973334    5.523159
  58 H     1.0000    0     1.008   10.640544   -1.094836    7.649466
  59 C     6.0000    0    12.011   14.250532    0.663148    8.056862
  60 C     6.0000    0    12.011   13.230815   -3.003169    5.201017
  61 H     1.0000    0     1.008   12.210195    3.592010    1.211267
  62 H     1.0000    0     1.008   13.683423    0.593072    1.274300
  63 H     1.0000    0     1.008   14.696256    3.005086    3.361419
  64 H     1.0000    0     1.008   14.808024   -0.607498    9.593771
  65 H     1.0000    0     1.008   13.562409    2.425760    8.899904
  66 H     1.0000    0     1.008   15.955641    1.096884    6.964646
  67 H     1.0000    0     1.008   14.925901   -2.630401    4.070189
  68 H     1.0000    0     1.008   11.817248   -3.878321    3.966867
  69 H     1.0000    0     1.008   13.748700   -4.374785    6.662811
  70 H     1.0000    0     1.008    8.521094   -3.971045   -2.130413
  71 H     1.0000    0     1.008    5.325500   -4.898207   -2.412071
  72 H     1.0000    0     1.008    6.941808   -5.295286    0.506544

--------------------------------
INTERNAL COORDINATES (ANGSTROEM)
--------------------------------
 C      0   0   0     0.000000000000     0.00000000     0.00000000
 C      1   0   0     1.510440356956     0.00000000     0.00000000
 C      2   1   0     1.533728703673   111.72164064     0.00000000
 H      2   1   3     1.103259169673   109.34931490   241.52021844
 H      2   1   3     1.095515328878   110.71637872   122.90152516
 C      1   2   3     1.478693382122   114.13037008    50.65680278
 C      6   1   2     1.512072898415   114.37306861   311.75647930
 C      3   2   1     1.524684246791   110.35685992   305.06823991
 H      7   6   1     1.100635205563   108.38491511   290.18773208
 H      7   6   1     1.095093199594   110.23232992   172.94137056
 H      8   3   2     1.096368527799   109.68374308   178.99172326
 H      8   3   2     1.100509163021   108.63757430   296.40113385
 O      3   2   1     1.433611565976   111.20330200   180.38570971
 H      3   2   1     1.098938475184   108.98791611    65.17135685
 C      1   2   3     1.354050755082   120.94674757   232.98600037
 C      6   1   2     1.337835858884   123.38643614   129.46981831
 H     16   6   1     1.086441428350   121.39390846     0.73265085
 H     16   6   1     1.087453941739   120.94467086   181.35635728
 C     15   1   2     1.444452237125   126.42970749   175.23389562
 H     15   1   2     1.089111162901   116.18799196   358.01827017
 C     19  15   1     1.350542238007   126.41724396   177.03398182
 H     19  15   1     1.087550256840   115.97398617   356.05172945
 C     21  19  15     1.507395063518   125.78633232   357.31433555
 C     23  21  19     1.540661862737   111.69726705   126.79031885
 H     23  21  19     1.093418445336   112.38484478     2.71027070
 H     23  21  19     1.101818658398   107.77910840   245.37987583
 C     24  23  21     1.534798025364   112.65417513    50.96610486
 H     24  23  21     1.097379600801   109.02412865   288.81204780
 H     24  23  21     1.096952804140   109.14294285   172.87249084
 C     27  24  23     1.534946709411   111.89417234   306.29848676
 H     27  24  23     1.094923731480   108.98082524   182.67390227
 H     27  24  23     1.100560147112   109.14812312    66.21766795
 C     21  19  15     1.498156488687   122.74023662   177.18606083
 H     33  21  19     1.105864505560   106.42533771   124.86998335
 C     33  21  19     1.524567733051   121.11807783     2.40753316
 H     13   3   2     0.966584248061   107.50019332    62.69152465
 C     35  33  21     1.548196789908   103.36420465   195.35226863
 H     35  33  21     1.095215539471   112.20896650    73.59454230
 H     35  33  21     1.095714813825   110.71469245   313.93158268
 C     30  27  24     1.556229652542   115.88855929   166.29484071
 H     37  35  33     1.093129216739   111.25768724   251.27930730
 H     37  35  33     1.096506577268   111.18970373   132.90105031
 H     40  30  27     1.101660309456   105.80753780   321.67185605
 C     40  30  27     1.534594652856   118.00457098    82.57020590
 C     30  27  24     1.535169459897   111.14144135   294.41110244
 H     45  30  27     1.094438297207   111.45342954    67.11034354
 H     45  30  27     1.095180950638   110.86443470   306.96643529
 H     45  30  27     1.094508967334   111.57293979   187.02776322
 H     44  40  30     1.101618785521   107.42498194    62.05848329
 C     44  40  30     1.540308429036   114.12024344   303.16919651
 C     44  40  30     1.513846774352   113.77259110   179.78856864
 C     51  44  40     1.332701619038   127.27795108    23.09959283
 H     51  44  40     1.091050596513   113.74672570   198.51714063
 H     52  51  44     1.091464739144   119.16148159   356.55367196
 C     52  51  44     1.507048772730   126.90407251   175.86179107
 C     55  52  51     1.527458656647   113.87433096     2.91835766
 C     55  52  51     1.555052818209   109.65111399   234.52349174
 H     55  52  51     1.103790267188   106.37369871   121.17742475
 H     57  55  52     1.101087165615   105.91480054   310.64095580
 C     57  55  52     1.530630272726   112.11804387   193.83988710
 C     57  55  52     1.530030719563   112.69545403    68.14412170
 H     56  55  52     1.095030875010   110.61090785    58.31652057
 H     56  55  52     1.095224554081   111.70082507   298.38063338
 H     56  55  52     1.093780941231   111.02633629   177.76429118
 H     60  57  55     1.095719871039   110.48856383   172.14958527
 H     60  57  55     1.096180807692   111.33818074    52.10270435
 H     60  57  55     1.095851949483   111.41160650   291.39793388
 H     61  57  55     1.096181720484   111.15408049    68.73592280
 H     61  57  55     1.095689643659   111.44130371   308.18498268
 H     61  57  55     1.095585230448   110.46596723   187.92709163
 H     50  44  40     1.095823671934   110.28482157   188.36365949
 H     50  44  40     1.093087521977   112.21923931    68.33735892
 H     50  44  40     1.096426088565   110.16793050   307.21490005

---------------------------
INTERNAL COORDINATES (A.U.)
---------------------------
 C      0   0   0     0.000000000000     0.00000000     0.00000000
 C      1   0   0     2.854318616269     0.00000000     0.00000000
 C      2   1   0     2.898327213676   111.72164064     0.00000000
 H      2   1   3     2.084857685419   109.34931490   241.52021844
 H      2   1   3     2.070223947093   110.71637872   122.90152516
 C      1   2   3     2.794325528251   114.13037008    50.65680278
 C      6   1   2     2.857403672530   114.37306861   311.75647930
 C      3   2   1     2.881235667139   110.35685992   305.06823991
 H      7   6   1     2.079899111866   108.38491511   290.18773208
 H      7   6   1     2.069426238353   110.23232992   172.94137056
 H      8   3   2     2.071836259390   109.68374308   178.99172326
 H      8   3   2     2.079660925981   108.63757430   296.40113385
 O      3   2   1     2.709133242116   111.20330200   180.38570971
 H      3   2   1     2.076692756127   108.98791611    65.17135685
 C      1   2   3     2.558785098535   120.94674757   232.98600037
 C      6   1   2     2.528143385431   123.38643614   129.46981831
 H     16   6   1     2.053076760129   121.39390846     0.73265085
 H     16   6   1     2.054990133140   120.94467086   181.35635728
 C     15   1   2     2.729619141697   126.42970749   175.23389562
 H     15   1   2     2.058121827280   116.18799196   358.01827017
 C     19  15   1     2.552154962126   126.41724396   177.03398182
 H     19  15   1     2.055172142303   115.97398617   356.05172945
 C     21  19  15     2.848563845674   125.78633232   357.31433555
 C     23  21  19     2.911428985549   111.69726705   126.79031885
 H     23  21  19     2.066261411463   112.38484478     2.71027070
 H     23  21  19     2.082135513616   107.77910840   245.37987583
 C     24  23  21     2.900347938822   112.65417513    50.96610486
 H     24  23  21     2.073746910465   109.02412865   288.81204780
 H     24  23  21     2.072940381661   109.14294285   172.87249084
 C     27  24  23     2.900628910950   111.89417234   306.29848676
 H     27  24  23     2.069105990029   108.98082524   182.67390227
 H     27  24  23     2.079757271949   109.14812312    66.21766795
 C     21  19  15     2.831105469376   122.74023662   177.18606083
 H     33  21  19     2.089781056733   106.42533771   124.86998335
 C     33  21  19     2.881015488080   121.11807783     2.40753316
 H     13   3   2     1.826579514197   107.50019332    62.69152465
 C     35  33  21     2.925667934343   103.36420465   195.35226863
 H     35  33  21     2.069657427216   112.20896650    73.59454230
 H     35  33  21     2.070600919010   110.71469245   313.93158268
 C     30  27  24     2.940847844791   115.88855929   166.29484071
 H     37  35  33     2.065714848624   111.25768724   251.27930730
 H     37  35  33     2.072097135080   111.18970373   132.90105031
 H     40  30  27     2.081836277483   105.80753780   321.67185605
 C     40  30  27     2.899963620477   118.00457098    82.57020590
 C     30  27  24     2.901049848365   111.14144135   294.41110244
 H     45  30  27     2.068188652197   111.45342954    67.11034354
 H     45  30  27     2.069592063793   110.86443470   306.96643529
 H     45  30  27     2.068322199382   111.57293979   187.02776322
 H     44  40  30     2.081757808617   107.42498194    62.05848329
 C     44  40  30     2.910761092649   114.12024344   303.16919651
 C     44  40  30     2.860755812245   113.77259110   179.78856864
 C     51  44  40     2.518441078216   127.27795108    23.09959283
 H     51  44  40     2.061786825660   113.74672570   198.51714063
 H     52  51  44     2.062569441814   119.16148159   356.55367196
 C     52  51  44     2.847909450921   126.90407251   175.86179107
 C     55  52  51     2.886478541950   113.87433096     2.91835766
 C     55  52  51     2.938623950198   109.65111399   234.52349174
 H     55  52  51     2.085861314273   106.37369871   121.17742475
 H     57  55  52     2.080753192588   105.91480054   310.64095580
 C     57  55  52     2.892472027741   112.11804387   193.83988710
 C     57  55  52     2.891339036460   112.69545403    68.14412170
 H     56  55  52     2.069308461956   110.61090785    58.31652057
 H     56  55  52     2.069674462360   111.70082507   298.38063338
 H     56  55  52     2.066946429428   111.02633629   177.76429118
 H     60  57  55     2.070610475759   110.48856383   172.14958527
 H     60  57  55     2.071481519799   111.33818074    52.10270435
 H     60  57  55     2.070860067846   111.41160650   291.39793388
 H     61  57  55     2.071483244725   111.15408049    68.73592280
 H     61  57  55     2.070553354289   111.44130371   308.18498268
 H     61  57  55     2.070356041915   110.46596723   187.92709163
 H     50  44  40     2.070806631023   110.28482157   188.36365949
 H     50  44  40     2.065636056944   112.21923931    68.33735892
 H     50  44  40     2.071945033474   110.16793050   307.21490005

---------------------
BASIS SET INFORMATION
---------------------
There are 3 groups of distinct atoms

 Group   1 Type C   : 7s4p contracted to 4s3p pattern {4111/211}
 Group   2 Type H   : 5s contracted to 3s pattern {311}
 Group   3 Type O   : 7s4p contracted to 4s3p pattern {4111/211}

Atom   0C    basis set group =>   1
Atom   1C    basis set group =>   1
Atom   2C    basis set group =>   1
Atom   3H    basis set group =>   2
Atom   4H    basis set group =>   2
Atom   5C    basis set group =>   1
Atom   6C    basis set group =>   1
Atom   7C    basis set group =>   1
Atom   8H    basis set group =>   2
Atom   9H    basis set group =>   2
Atom  10H    basis set group =>   2
Atom  11H    basis set group =>   2
Atom  12O    basis set group =>   3
Atom  13H    basis set group =>   2
Atom  14C    basis set group =>   1
Atom  15C    basis set group =>   1
Atom  16H    basis set group =>   2
Atom  17H    basis set group =>   2
Atom  18C    basis set group =>   1
Atom  19H    basis set group =>   2
Atom  20C    basis set group =>   1
Atom  21H    basis set group =>   2
Atom  22C    basis set group =>   1
Atom  23C    basis set group =>   1
Atom  24H    basis set group =>   2
Atom  25H    basis set group =>   2
Atom  26C    basis set group =>   1
Atom  27H    basis set group =>   2
Atom  28H    basis set group =>   2
Atom  29C    basis set group =>   1
Atom  30H    basis set group =>   2
Atom  31H    basis set group =>   2
Atom  32C    basis set group =>   1
Atom  33H    basis set group =>   2
Atom  34C    basis set group =>   1
Atom  35H    basis set group =>   2
Atom  36C    basis set group =>   1
Atom  37H    basis set group =>   2
Atom  38H    basis set group =>   2
Atom  39C    basis set group =>   1
Atom  40H    basis set group =>   2
Atom  41H    basis set group =>   2
Atom  42H    basis set group =>   2
Atom  43C    basis set group =>   1
Atom  44C    basis set group =>   1
Atom  45H    basis set group =>   2
Atom  46H    basis set group =>   2
Atom  47H    basis set group =>   2
Atom  48H    basis set group =>   2
Atom  49C    basis set group =>   1
Atom  50C    basis set group =>   1
Atom  51C    basis set group =>   1
Atom  52H    basis set group =>   2
Atom  53H    basis set group =>   2
Atom  54C    basis set group =>   1
Atom  55C    basis set group =>   1
Atom  56C    basis set group =>   1
Atom  57H    basis set group =>   2
Atom  58H    basis set group =>   2
Atom  59C    basis set group =>   1
Atom  60C    basis set group =>   1
Atom  61H    basis set group =>   2
Atom  62H    basis set group =>   2
Atom  63H    basis set group =>   2
Atom  64H    basis set group =>   2
Atom  65H    basis set group =>   2
Atom  66H    basis set group =>   2
Atom  67H    basis set group =>   2
Atom  68H    basis set group =>   2
Atom  69H    basis set group =>   2
Atom  70H    basis set group =>   2
Atom  71H    basis set group =>   2
Atom  72H    basis set group =>   2

-------------------------
BASIS SET IN INPUT FORMAT
-------------------------

 # Basis set for element : H 
 NewGTO H 
 S 3 
   1    1357.7500000000      0.0012928364
   2      54.3100000000      0.0588280685
   3       4.3448000000      0.9761499708
 S 1 
   1       0.6604910000      1.0000000000
 S 1 
   1       0.1366870000      1.0000000000
  end;

 # Basis set for element : C 
 NewGTO C 
 S 4 
   1  139534.0000000000      0.0001655246
   2    5581.3600000000      0.0074486101
   3     446.5090000000      0.1285821065
   4      67.4620000000      0.9218029311
 S 1 
   1      15.0674000000      1.0000000000
 S 1 
   1       3.9387600000      1.0000000000
 S 1 
   1       0.2999150000      1.0000000000
 P 2 
   1      28.3900000000      0.0816325586
   2       4.3676900000      0.9660360576
 P 1 
   1       0.8698170000      1.0000000000
 P 1 
   1       0.1889340000      1.0000000000
  end;

 # Basis set for element : O 
 NewGTO O 
 S 4 
   1  253789.0000000000      0.0001641076
   2   10151.6000000000      0.0074010921
   3     812.1250000000      0.1277711901
   4     122.6930000000      0.9223372164
 S 1 
   1      27.5608000000      1.0000000000
 S 1 
   1       7.3172600000      1.0000000000
 S 1 
   1       0.5792400000      1.0000000000
 P 2 
   1      53.4157000000      0.0793786106
   2       8.2177900000      0.9670506337
 P 1 
   1       1.6754400000      1.0000000000
 P 1 
   1       0.3506720000      1.0000000000
  end;

---------------------------------
AUXILIARY/J BASIS SET INFORMATION
---------------------------------
There are 3 groups of distinct atoms

 Group   1 Type C   : 12s5p4d2f1g contracted to 6s4p3d1f1g pattern {711111/2111/211/2/1}
 Group   2 Type H   : 5s2p1d contracted to 3s1p1d pattern {311/2/1}
 Group   3 Type O   : 12s5p4d2f1g contracted to 6s4p3d1f1g pattern {711111/2111/211/2/1}

Atom   0C    basis set group =>   1
Atom   1C    basis set group =>   1
Atom   2C    basis set group =>   1
Atom   3H    basis set group =>   2
Atom   4H    basis set group =>   2
Atom   5C    basis set group =>   1
Atom   6C    basis set group =>   1
Atom   7C    basis set group =>   1
Atom   8H    basis set group =>   2
Atom   9H    basis set group =>   2
Atom  10H    basis set group =>   2
Atom  11H    basis set group =>   2
Atom  12O    basis set group =>   3
Atom  13H    basis set group =>   2
Atom  14C    basis set group =>   1
Atom  15C    basis set group =>   1
Atom  16H    basis set group =>   2
Atom  17H    basis set group =>   2
Atom  18C    basis set group =>   1
Atom  19H    basis set group =>   2
Atom  20C    basis set group =>   1
Atom  21H    basis set group =>   2
Atom  22C    basis set group =>   1
Atom  23C    basis set group =>   1
Atom  24H    basis set group =>   2
Atom  25H    basis set group =>   2
Atom  26C    basis set group =>   1
Atom  27H    basis set group =>   2
Atom  28H    basis set group =>   2
Atom  29C    basis set group =>   1
Atom  30H    basis set group =>   2
Atom  31H    basis set group =>   2
Atom  32C    basis set group =>   1
Atom  33H    basis set group =>   2
Atom  34C    basis set group =>   1
Atom  35H    basis set group =>   2
Atom  36C    basis set group =>   1
Atom  37H    basis set group =>   2
Atom  38H    basis set group =>   2
Atom  39C    basis set group =>   1
Atom  40H    basis set group =>   2
Atom  41H    basis set group =>   2
Atom  42H    basis set group =>   2
Atom  43C    basis set group =>   1
Atom  44C    basis set group =>   1
Atom  45H    basis set group =>   2
Atom  46H    basis set group =>   2
Atom  47H    basis set group =>   2
Atom  48H    basis set group =>   2
Atom  49C    basis set group =>   1
Atom  50C    basis set group =>   1
Atom  51C    basis set group =>   1
Atom  52H    basis set group =>   2
Atom  53H    basis set group =>   2
Atom  54C    basis set group =>   1
Atom  55C    basis set group =>   1
Atom  56C    basis set group =>   1
Atom  57H    basis set group =>   2
Atom  58H    basis set group =>   2
Atom  59C    basis set group =>   1
Atom  60C    basis set group =>   1
Atom  61H    basis set group =>   2
Atom  62H    basis set group =>   2
Atom  63H    basis set group =>   2
Atom  64H    basis set group =>   2
Atom  65H    basis set group =>   2
Atom  66H    basis set group =>   2
Atom  67H    basis set group =>   2
Atom  68H    basis set group =>   2
Atom  69H    basis set group =>   2
Atom  70H    basis set group =>   2
Atom  71H    basis set group =>   2
Atom  72H    basis set group =>   2

-------------------------------------
AUXILIARY/J BASIS SET IN INPUT FORMAT
-------------------------------------

 # Auxiliary/J basis set for element : H 
 NewAuxJGTO H 
 S 3 
   1      15.6752927000      0.1007184237
   2       3.6063578000      0.3404257499
   3       1.2080016000      0.6491996172
 S 1 
   1       0.4726794000      1.0000000000
 S 1 
   1       0.2018100000      1.0000000000
 P 2 
   1       2.0281365000      0.5596620919
   2       0.5358730000      0.5596620919
 D 1 
   1       2.2165124000      1.0000000000
  end;

 # Auxiliary/J basis set for element : C 
 NewAuxJGTO C 
 S 7 
   1    1861.0916331000      0.0134602335
   2     642.9939764000      0.0299160374
   3     235.1105725000      0.1008649584
   4      90.7028894000      0.2370970548
   5      36.7794552000      0.3924037254
   6      15.6046273000      0.3195862154
   7       6.8907294000      0.0530104441
 S 1 
   1       3.1478850000     -1.0000000000
 S 1 
   1       1.4777287000      1.0000000000
 S 1 
   1       0.7076466000      1.0000000000
 S 1 
   1       0.3430122000      1.0000000000
 S 1 
   1       0.1669453000      1.0000000000
 P 2 
   1      13.5472892000     -0.6769313712
   2       5.4669419000     -0.3779500978
 P 1 
   1       2.1751721000      1.0000000000
 P 1 
   1       0.8582194000      1.0000000000
 P 1 
   1       0.3376720000      1.0000000000
 D 2 
   1       5.9287253000     -0.3533329857
   2       1.9809209000     -0.7456525731
 D 1 
   1       0.8055417000     -1.0000000000
 D 1 
   1       0.3531244000     -1.0000000000
 F 2 
   1       1.6755626000      0.6311076882
   2       0.5997536000      0.4968166032
 G 1 
   1       1.0024600000     -1.0000000000
  end;

 # Auxiliary/J basis set for element : O 
 NewAuxJGTO O 
 S 7 
   1    2876.8216605000      0.0168151159
   2    1004.7443032000      0.0340137548
   3     369.7579954000      0.1194951309
   4     142.9442404000      0.2664627624
   5      57.8366425000      0.4202764046
   6      24.3864983000      0.2765077335
   7      10.6622662000      0.0057008815
 S 1 
   1       4.8070437000     -1.0000000000
 S 1 
   1       2.2210770000      1.0000000000
 S 1 
   1       1.0447795000      1.0000000000
 S 1 
   1       0.4968425000      1.0000000000
 S 1 
   1       0.2371384000      1.0000000000
 P 2 
   1      64.2613382000     -0.2731534179
   2      16.3006076000     -0.8168011598
 P 1 
   1       4.3550542000      1.0000000000
 P 1 
   1       1.2019554000      1.0000000000
 P 1 
   1       0.3354196000      1.0000000000
 D 2 
   1       9.2146611000     -0.4661230638
   2       2.8435251000     -0.6600908911
 D 1 
   1       0.9955759000     -1.0000000000
 D 1 
   1       0.3649441000     -1.0000000000
 F 2 
   1       2.6420115000      0.5931563945
   2       0.7345613000      0.5931563945
 G 1 
   1       1.3931000000     -1.0000000000
  end;



           ************************************************************
           *        Program running with 4 parallel MPI-processes     *
           *              working on a common directory               *
           ************************************************************
------------------------------------------------------------------------------
                           ORCA GTO INTEGRAL CALCULATION
                           -- RI-GTO INTEGRALS CHOSEN --
------------------------------------------------------------------------------
------------------------------------------------------------------------------
                   ___                                                        
                  /   \      - P O W E R E D   B Y -                         
                 /     \                                                     
                 |  |  |   _    _      __       _____    __    __             
                 |  |  |  | |  | |    /  \     |  _  \  |  |  /  |          
                  \  \/   | |  | |   /    \    | | | |  |  | /  /          
                 / \  \   | |__| |  /  /\  \   | |_| |  |  |/  /          
                |  |  |   |  __  | /  /__\  \  |    /   |      \           
                |  |  |   | |  | | |   __   |  |    \   |  |\   \          
                \     /   | |  | | |  |  |  |  | |\  \  |  | \   \       
                 \___/    |_|  |_| |__|  |__|  |_| \__\ |__|  \__/        
                                                                              
                      - O R C A' S   B I G   F R I E N D -                    
                                      &                                       
                       - I N T E G R A L  F E E D E R -                       
                                                                              
 v1 FN, 2020, v2 2021                                                         
------------------------------------------------------------------------------


Reading SHARK input file inpJ.SHARKINP.tmp ... ok
----------------------
SHARK INTEGRAL PACKAGE
----------------------

Number of atoms                             ...     73
Number of basis functions                   ...    509
Number of shells                            ...    335
Maximum angular momentum                    ...      1
Integral batch strategy                     ... SHARK/LIBINT Hybrid
RI-J (if used) integral strategy            ... SPLIT-RIJ (Revised 2003 algorithm where possible)
Printlevel                                  ...      1
Contraction scheme used                     ... SEGMENTED contraction
Coulomb Range Separation                    ... NOT USED
Exchange Range Separation                   ... NOT USED
Finite Nucleus Model                        ... NOT USED
Auxiliary Coulomb fitting basis             ... AVAILABLE
   # of basis functions in Aux-J            ...   1905
   # of shells in Aux-J                     ...    655
   Maximum angular momentum in Aux-J        ...      4
Auxiliary J/K fitting basis                 ... NOT available
Auxiliary Correlation fitting basis         ... NOT available
Auxiliary 'external' fitting basis          ... NOT available
Integral threshold                          ...     3.000000e-11
Primitive cut-off                           ...     1.000000e-12
Primitive pair pre-selection threshold      ...     1.000000e-12

Calculating pre-screening integrals         ... done (  0.0 sec) Dimension = 335
Organizing shell pair data                  ... done (  0.1 sec)
Shell pair information
Total number of shell pairs                 ...     56280
Shell pairs after pre-screening             ...     21727
Total number of primitive shell pairs       ...    145865
Primitive shell pairs kept                  ...     37308
          la=0 lb=0:  10940 shell pairs
          la=1 lb=0:   8926 shell pairs
          la=1 lb=1:   1861 shell pairs

Calculating one electron integrals          ... done (  0.0 sec)
Calculating RI/J V-Matrix + Cholesky decomp.... done (  0.2 sec)
Calculating Nuclear repulsion               ... done (  0.0 sec) ENN=   2768.648229364842 Eh

SHARK setup successfully completed in   0.6 seconds

Maximum memory used throughout the entire GTOINT-calculation: 46.2 MB


           ************************************************************
           *        Program running with 4 parallel MPI-processes     *
           *              working on a common directory               *
           ************************************************************
-------------------------------------------------------------------------------
                                 ORCA SCF
-------------------------------------------------------------------------------

------------
SCF SETTINGS
------------
Hamiltonian:
 Density Functional     Method          .... DFT(GTOs)
 Exchange Functional    Exchange        .... PBE
   PBE kappa parameter   XKappa         ....  0.804000
   PBE mue parameter    XMuePBE         ....  0.219520
 Correlation Functional Correlation     .... PBE
   PBE beta parameter  CBetaPBE         ....  0.066725
 LDA part of GGA corr.  LDAOpt          .... PW91-LDA
 Gradients option       PostSCFGGA      .... off
 Hybrid DFT is turned on
   Fraction HF Exchange ScalHFX         ....  0.250000
   Scaling of DF-GGA-X  ScalDFX         ....  0.750000
   Scaling of DF-GGA-C  ScalDFC         ....  1.000000
   Scaling of DF-LDA-C  ScalLDAC        ....  1.000000
   Perturbative correction              ....  0.000000
   Density functional embedding theory  .... OFF
   NL short-range parameter             ....  6.900000
 RI-approximation to the Coulomb term is turned on
   Number of AuxJ basis functions       .... 1905
   RIJ-COSX (HFX calculated with COS-X)).... on


General Settings:
 Integral files         IntName         .... inpJ
 Hartree-Fock type      HFTyp           .... RHF
 Total Charge           Charge          ....    0
 Multiplicity           Mult            ....    1
 Number of Electrons    NEL             ....  220
 Basis Dimension        Dim             ....  509
 Nuclear Repulsion      ENuc            ....   2768.6482293648 Eh

Convergence Acceleration:
 DIIS                   CNVDIIS         .... on
   Start iteration      DIISMaxIt       ....    12
   Startup error        DIISStart       ....  0.200000
   # of expansion vecs  DIISMaxEq       ....     5
   Bias factor          DIISBfac        ....   1.050
   Max. coefficient     DIISMaxC        ....  10.000
 Trust-Rad. Augm. Hess. CNVTRAH         .... auto
   Auto Start mean grad. ratio tolernc. ....  1.125000
   Auto Start start iteration           ....    20
   Auto Start num. interpolation iter.  ....    10
   Max. Number of Micro iterations      ....    16
   Max. Number of Macro iterations      .... Maxiter - #DIIS iter
   Number of Davidson start vectors     ....     2
   Converg. threshold I  (grad. norm)   ....   1.000e-04
   Converg. threshold II (energy diff.) ....   1.000e-07
   Grad. Scal. Fac. for Micro threshold ....   0.100
   Minimum threshold for Micro iter.    ....   0.010
   NR start threshold (gradient norm)   ....   0.001
   Initial trust radius                 ....   0.400
   Minimum AH scaling param. (alpha)    ....   1.000
   Maximum AH scaling param. (alpha)    .... 1000.000
   Orbital update algorithm             .... Taylor
   White noise on init. David. guess    .... on
   Maximum white noise                  ....   0.010
   Quad. conv. algorithm                .... NR
 SOSCF                  CNVSOSCF        .... off
 Level Shifting         CNVShift        .... on
   Level shift para.    LevelShift      ....    0.2500
   Turn off err/grad.   ShiftErr        ....    0.0010
 Zerner damping         CNVZerner       .... off
 Static damping         CNVDamp         .... on
   Fraction old density DampFac         ....    0.7000
   Max. Damping (<1)    DampMax         ....    0.9800
   Min. Damping (>=0)   DampMin         ....    0.0000
   Turn off err/grad.   DampErr         ....    0.1000
 Fernandez-Rico         CNVRico         .... off

SCF Procedure:
 Maximum # iterations   MaxIter         ....   125
 SCF integral mode      SCFMode         .... Direct
   Integral package                     .... SHARK and LIBINT hybrid scheme
 Reset frequency        DirectResetFreq ....    20
 Integral Threshold     Thresh          ....  3.000e-11 Eh
 Primitive CutOff       TCut            ....  1.000e-12 Eh

Convergence Tolerance:
 Convergence Check Mode ConvCheckMode   .... Total+1el-Energy
 Convergence forced     ConvForced      .... 0
 Energy Change          TolE            ....  1.000e-07 Eh
 1-El. energy change                    ....  1.000e-04 Eh
 DIIS Error             TolErr          ....  1.000e-07


Diagonalization of the overlap matrix:
Smallest eigenvalue                        ... 7.551e-03
Time for diagonalization                   ...    0.034 sec
Threshold for overlap eigenvalues          ... 1.000e-08
Number of eigenvalues below threshold      ... 0
Time for construction of square roots      ...    0.029 sec
Total time needed                          ...    0.065 sec

Time for model grid setup =    0.783 sec

------------------------------
INITIAL GUESS: MODEL POTENTIAL
------------------------------
Loading Hartree-Fock densities                     ... done
Calculating cut-offs                               ... done
Initializing the effective Hamiltonian             ... done
Setting up the integral package (SHARK)            ... done
Starting the Coulomb interaction                   ... done (   0.4 sec)
Reading the grid                                   ... done
Mapping shells                                     ... done
Starting the XC term evaluation                    ... done (   0.1 sec)
  promolecular density results
     # of electrons  =    219.981540828
     EX              =   -164.434238177
     EC              =     -7.326797658
     EX+EC           =   -171.761035835
Transforming the Hamiltonian                       ... done (   0.0 sec)
Diagonalizing the Hamiltonian                      ... done (   0.0 sec)
Back transforming the eigenvectors                 ... done (   0.0 sec)
Now organizing SCF variables                       ... done
                      ------------------
                      INITIAL GUESS DONE (   1.4 sec)
                      ------------------
-------------------
DFT GRID GENERATION
-------------------

General Integration Accuracy     IntAcc      ... 4.388
Radial Grid Type                 RadialGrid  ... OptM3 with GC (2021)
Angular Grid (max. ang.)         AngularGrid ... 4 (Lebedev-302)
Angular grid pruning method      GridPruning ... 4 (adaptive)
Weight generation scheme         WeightScheme... Becke
Basis function cutoff            BFCut       ... 1.0000e-11
Integration weight cutoff        WCut        ... 1.0000e-14
Angular grids for H and He will be reduced by one unit
Partially contracted basis set               ... off
Rotationally invariant grid construction     ... off

Total number of grid points                  ...   309977
Total number of batches                      ...     4880
Average number of points per batch           ...       63
Average number of grid points per atom       ...     4246
Time for grid setup =    2.815 sec

--------------------
COSX GRID GENERATION
--------------------

GRIDX 1
-------
General Integration Accuracy     IntAcc      ... 3.816
Radial Grid Type                 RadialGrid  ... OptM3 with GC (2021)
Angular Grid (max. ang.)         AngularGrid ... 1 (Lebedev-50)
Angular grid pruning method      GridPruning ... 4 (adaptive)
Weight generation scheme         WeightScheme... Becke
Basis function cutoff            BFCut       ... 1.0000e-11
Integration weight cutoff        WCut        ... 1.0000e-14
Angular grids for H and He will be reduced by one unit
Partially contracted basis set               ... on
Rotationally invariant grid construction     ... off

Total number of grid points                  ...    39416
Total number of batches                      ...      655
Average number of points per batch           ...       60
Average number of grid points per atom       ...      540
UseSFitting                                  ... on

GRIDX 2
-------
General Integration Accuracy     IntAcc      ... 4.020
Radial Grid Type                 RadialGrid  ... OptM3 with GC (2021)
Angular Grid (max. ang.)         AngularGrid ... 2 (Lebedev-110)
Angular grid pruning method      GridPruning ... 4 (adaptive)
Weight generation scheme         WeightScheme... Becke
Basis function cutoff            BFCut       ... 1.0000e-11
Integration weight cutoff        WCut        ... 1.0000e-14
Angular grids for H and He will be reduced by one unit
Partially contracted basis set               ... on
Rotationally invariant grid construction     ... off

Total number of grid points                  ...    81412
Total number of batches                      ...     1312
Average number of points per batch           ...       62
Average number of grid points per atom       ...     1115
UseSFitting                                  ... on

GRIDX 3
-------
General Integration Accuracy     IntAcc      ... 4.338
Radial Grid Type                 RadialGrid  ... OptM3 with GC (2021)
Angular Grid (max. ang.)         AngularGrid ... 3 (Lebedev-194)
Angular grid pruning method      GridPruning ... 4 (adaptive)
Weight generation scheme         WeightScheme... Becke
Basis function cutoff            BFCut       ... 1.0000e-11
Integration weight cutoff        WCut        ... 1.0000e-14
Angular grids for H and He will be reduced by one unit
Partially contracted basis set               ... on
Rotationally invariant grid construction     ... off

Total number of grid points                  ...   176268
Total number of batches                      ...     2792
Average number of points per batch           ...       63
Average number of grid points per atom       ...     2415
UseSFitting                                  ... on

Time for X-Grid setup             =    2.734 sec


--------------------
CPCM SOLVATION MODEL
--------------------
CPCM parameters:
  Epsilon                                         ...       4.9000
  Refrac                                          ...       1.4500
  Rsolv                                           ...       1.3000
  Surface type                                    ... GAUSSIAN VDW
  Epsilon function type                           ...         CPCM
Radii:
 Radius for C  used is    3.8550 Bohr (=   2.0400 Ang.)
 Radius for H  used is    2.4944 Bohr (=   1.3200 Ang.)
 Radius for O  used is    3.4469 Bohr (=   1.8240 Ang.)
Calculating surface                               ...        done! (  0.0s)
GEPOL surface points                              ...         3640
GEPOL Volume                                      ...    3596.3646
GEPOL Surface-area                                ...    1785.9708
Calculating surface distance matrix               ...        done! (  0.1s)
Performing Cholesky decomposition & store         ...        done! (  0.5s)
Overall time for CPCM initialization              ...                 0.6s
--------------
SCF ITERATIONS
--------------
ITER       Energy         Delta-E        Max-DP      RMS-DP      [F,P]     Damp
               ***  Starting incremental Fock matrix formation  ***

  HOMO= 109 E= -3.890 eV LUMO=  7.795 eV gap=  11.686 eV
  0  -1165.0059442398   0.000000000000 0.09759418  0.00106624  0.1924356 0.7000

  HOMO= 109 E= -4.737 eV LUMO=  7.100 eV gap=  11.836 eV
  1  -1165.2254287044  -0.219484464571 0.06546036  0.00078433  0.0933837 0.7000
                               ***Turning on DIIS***

  HOMO= 109 E= -5.335 eV LUMO=  6.542 eV gap=  11.878 eV
  2  -1165.3265528549  -0.101124150563 0.10372094  0.00138795  0.0376778 0.0000

  HOMO= 109 E= -5.901 eV LUMO=  6.001 eV gap=  11.901 eV
  3  -1165.4711356231  -0.144582768150 0.05149010  0.00057242  0.0451477 0.0000

  HOMO= 109 E= -5.983 eV LUMO=  5.919 eV gap=  11.902 eV
  4  -1165.5068589953  -0.035723372258 0.01179246  0.00013421  0.0063046 0.0000

  HOMO= 109 E= -5.928 eV LUMO=  5.981 eV gap=  11.909 eV
  5  -1165.5077191279  -0.000860132549 0.00285041  0.00003808  0.0043140 0.0000

  HOMO= 109 E= -5.915 eV LUMO=  5.994 eV gap=  11.909 eV
  6  -1165.5077937941  -0.000074666255 0.00116633  0.00001157  0.0010801 0.0000

  HOMO= 109 E= -5.917 eV LUMO= -0.810 eV gap=   5.106 eV
  7  -1165.5077986467  -0.000004852588 0.00049384  0.00000590  0.0002237 0.0000
               *** Restarting incremental Fock matrix formation ***
                                   *** Resetting DIIS ***

  HOMO= 109 E= -5.916 eV LUMO= -0.809 eV gap=   5.107 eV
  8  -1165.5078322720  -0.000033625234 0.00040596  0.00000279  0.0001071 0.0000

  HOMO= 109 E= -5.916 eV LUMO= -0.809 eV gap=   5.107 eV
  9  -1165.5078323159  -0.000000043909 0.00012831  0.00000122  0.0001477 0.0000

  HOMO= 109 E= -5.916 eV LUMO= -0.809 eV gap=   5.107 eV
 10  -1165.5078324271  -0.000000111221 0.00006185  0.00000039  0.0000365 0.0000

  HOMO= 109 E= -5.916 eV LUMO= -0.809 eV gap=   5.107 eV
 11  -1165.5078324703  -0.000000043243 0.00002459  0.00000017  0.0000207 0.0000

  HOMO= 109 E= -5.916 eV LUMO= -0.809 eV gap=   5.107 eV
 12  -1165.5078324566   0.000000013752 0.00000695  0.00000005  0.0000034 0.0000
                 **** Energy Check signals convergence ****

               *****************************************************
               *                     SUCCESS                       *
               *           SCF CONVERGED AFTER  13 CYCLES          *
               *****************************************************

Old exchange energy                            =    -42.067697168 Eh
New exchange energy                            =    -42.067721035 Eh
Exchange energy change after final integration =     -0.000023866 Eh
Total energy after final integration           =  -1165.507856336 Eh
Final COS-X integration done in                =    13.161 sec

----------------
TOTAL SCF ENERGY
----------------

Total Energy       :        -1165.50785634 Eh          -31715.08113 eV

Components:
Nuclear Repulsion  :         2768.64822936 Eh           75338.74847 eV
Electronic Energy  :        -3934.15608570 Eh         -107053.82960 eV
One Electron Energy:        -7079.36836117 Eh         -192639.40671 eV
Two Electron Energy:         3145.21227547 Eh           85585.57710 eV
Max COSX asymmetry :            0.00000181 Eh               0.00005 eV
CPCM Dielectric    :           -0.01545937 Eh              -0.42067 eV

Virial components:
Potential Energy   :        -2322.40774060 Eh          -63195.92744 eV
Kinetic Energy     :         1156.89988427 Eh           31480.84631 eV
Virial Ratio       :            2.00744055


DFT components:
N(Alpha)           :      110.000195439083 electrons
N(Beta)            :      110.000195439083 electrons
N(Total)           :      220.000390878165 electrons
E(X)               :     -125.746123306057 Eh       
E(C)               :       -7.327748789733 Eh       
E(XC)              :     -133.073872095791 Eh       
DFET-embed. en.    :        0.000000000000 Eh       
CPCM Solvation Model Properties:
Surface-charge          :           -0.03437722
Charge-correction       :           -0.00005618 Eh              -0.00153 eV
Free-energy (cav+disp)  :  This term is not implemented in the current solvation scheme

---------------
SCF CONVERGENCE
---------------

  Last Energy change         ...   -1.3163e-08  Tolerance :   1.0000e-07
  Last MAX-Density change    ...    0.0000e+00  Tolerance :   1.0000e-05
  Last RMS-Density change    ...    0.0000e+00  Tolerance :   1.0000e-06
  Last DIIS Error            ...    2.3874e-06  Tolerance :   1.0000e-07

             **** THE GBW FILE WAS UPDATED (inpJ.gbw) ****
             **** DENSITY inpJ.scfp WAS UPDATED ****
             **** ENERGY FILE WAS UPDATED (inpJ.en.tmp) ****
             **** THE GBW FILE WAS UPDATED (inpJ.gbw) ****
             **** DENSITY inpJ.scfp WAS UPDATED ****
----------------
ORBITAL ENERGIES
----------------

  NO   OCC          E(Eh)            E(eV) 
   0   2.0000     -19.214922      -522.8646 
   1   2.0000     -10.301226      -280.3106 
   2   2.0000     -10.269333      -279.4428 
   3   2.0000     -10.266544      -279.3669 
   4   2.0000     -10.261477      -279.2290 
   5   2.0000     -10.256072      -279.0819 
   6   2.0000     -10.253214      -279.0041 
   7   2.0000     -10.251266      -278.9511 
   8   2.0000     -10.250817      -278.9389 
   9   2.0000     -10.249115      -278.8926 
  10   2.0000     -10.249109      -278.8924 
  11   2.0000     -10.245912      -278.8054 
  12   2.0000     -10.244851      -278.7766 
  13   2.0000     -10.243778      -278.7474 
  14   2.0000     -10.243734      -278.7462 
  15   2.0000     -10.243036      -278.7272 
  16   2.0000     -10.242824      -278.7214 
  17   2.0000     -10.242179      -278.7038 
  18   2.0000     -10.241728      -278.6916 
  19   2.0000     -10.240905      -278.6692 
  20   2.0000     -10.238964      -278.6164 
  21   2.0000     -10.233328      -278.4630 
  22   2.0000     -10.233195      -278.4594 
  23   2.0000     -10.232266      -278.4341 
  24   2.0000     -10.226683      -278.2822 
  25   2.0000     -10.224817      -278.2314 
  26   2.0000     -10.224074      -278.2112 
  27   2.0000     -10.221907      -278.1522 
  28   2.0000     -10.219800      -278.0949 
  29   2.0000      -1.045695       -28.4548 
  30   2.0000      -0.900423       -24.5018 
  31   2.0000      -0.883457       -24.0401 
  32   2.0000      -0.859699       -23.3936 
  33   2.0000      -0.845147       -22.9976 
  34   2.0000      -0.821671       -22.3588 
  35   2.0000      -0.813447       -22.1350 
  36   2.0000      -0.794638       -21.6232 
  37   2.0000      -0.794504       -21.6196 
  38   2.0000      -0.776606       -21.1325 
  39   2.0000      -0.757126       -20.6024 
  40   2.0000      -0.738594       -20.0982 
  41   2.0000      -0.730288       -19.8722 
  42   2.0000      -0.713584       -19.4176 
  43   2.0000      -0.702021       -19.1030 
  44   2.0000      -0.699152       -19.0249 
  45   2.0000      -0.693354       -18.8671 
  46   2.0000      -0.671962       -18.2850 
  47   2.0000      -0.668622       -18.1941 
  48   2.0000      -0.632871       -17.2213 
  49   2.0000      -0.621555       -16.9134 
  50   2.0000      -0.619204       -16.8494 
  51   2.0000      -0.607663       -16.5354 
  52   2.0000      -0.596438       -16.2299 
  53   2.0000      -0.578136       -15.7319 
  54   2.0000      -0.561694       -15.2845 
  55   2.0000      -0.541651       -14.7391 
  56   2.0000      -0.531931       -14.4746 
  57   2.0000      -0.528991       -14.3946 
  58   2.0000      -0.514808       -14.0086 
  59   2.0000      -0.509101       -13.8533 
  60   2.0000      -0.497381       -13.5344 
  61   2.0000      -0.491695       -13.3797 
  62   2.0000      -0.486085       -13.2270 
  63   2.0000      -0.480107       -13.0644 
  64   2.0000      -0.475714       -12.9448 
  65   2.0000      -0.474143       -12.9021 
  66   2.0000      -0.464381       -12.6364 
  67   2.0000      -0.457022       -12.4362 
  68   2.0000      -0.455564       -12.3965 
  69   2.0000      -0.452452       -12.3118 
  70   2.0000      -0.449102       -12.2207 
  71   2.0000      -0.440219       -11.9790 
  72   2.0000      -0.437704       -11.9105 
  73   2.0000      -0.431279       -11.7357 
  74   2.0000      -0.428385       -11.6570 
  75   2.0000      -0.417831       -11.3698 
  76   2.0000      -0.415418       -11.3041 
  77   2.0000      -0.412212       -11.2169 
  78   2.0000      -0.407917       -11.1000 
  79   2.0000      -0.406525       -11.0621 
  80   2.0000      -0.401775       -10.9329 
  81   2.0000      -0.399433       -10.8691 
  82   2.0000      -0.395670       -10.7667 
  83   2.0000      -0.391509       -10.6535 
  84   2.0000      -0.386001       -10.5036 
  85   2.0000      -0.381150       -10.3716 
  86   2.0000      -0.377748       -10.2790 
  87   2.0000      -0.368522       -10.0280 
  88   2.0000      -0.367074        -9.9886 
  89   2.0000      -0.363934        -9.9032 
  90   2.0000      -0.362908        -9.8752 
  91   2.0000      -0.356439        -9.6992 
  92   2.0000      -0.354607        -9.6493 
  93   2.0000      -0.344176        -9.3655 
  94   2.0000      -0.340870        -9.2755 
  95   2.0000      -0.338422        -9.2089 
  96   2.0000      -0.336584        -9.1589 
  97   2.0000      -0.333300        -9.0696 
  98   2.0000      -0.329859        -8.9759 
  99   2.0000      -0.327185        -8.9031 
 100   2.0000      -0.326412        -8.8821 
 101   2.0000      -0.324920        -8.8415 
 102   2.0000      -0.316969        -8.6252 
 103   2.0000      -0.315179        -8.5765 
 104   2.0000      -0.310673        -8.4538 
 105   2.0000      -0.299564        -8.1515 
 106   2.0000      -0.279679        -7.6104 
 107   2.0000      -0.274537        -7.4705 
 108   2.0000      -0.255171        -6.9435 
 109   2.0000      -0.217424        -5.9164 
 110   0.0000      -0.029734        -0.8091 
 111   0.0000       0.021569         0.5869 
 112   0.0000       0.029845         0.8121 
 113   0.0000       0.081867         2.2277 
 114   0.0000       0.091763         2.4970 
 115   0.0000       0.101988         2.7752 
 116   0.0000       0.105921         2.8823 
 117   0.0000       0.108043         2.9400 
 118   0.0000       0.109565         2.9814 
 119   0.0000       0.114563         3.1174 
 120   0.0000       0.118724         3.2306 
 121   0.0000       0.121779         3.3138 
 122   0.0000       0.127363         3.4657 
 123   0.0000       0.130041         3.5386 
 124   0.0000       0.135372         3.6837 
 125   0.0000       0.136489         3.7140 
 126   0.0000       0.139716         3.8019 
 127   0.0000       0.141682         3.8554 
 128   0.0000       0.144381         3.9288 
 129   0.0000       0.153228         4.1695 
 130   0.0000       0.156376         4.2552 
 131   0.0000       0.159873         4.3504 
 132   0.0000       0.162029         4.4090 
 133   0.0000       0.163555         4.4506 
 134   0.0000       0.165766         4.5107 
 135   0.0000       0.166122         4.5204 
 136   0.0000       0.170682         4.6445 
 137   0.0000       0.173348         4.7170 
 138   0.0000       0.175995         4.7891 
 139   0.0000       0.176733         4.8091 
 140   0.0000       0.181632         4.9425 
 141   0.0000       0.185826         5.0566 
 142   0.0000       0.186525         5.0756 
 143   0.0000       0.190546         5.1850 
 144   0.0000       0.191397         5.2082 
 145   0.0000       0.194042         5.2802 
 146   0.0000       0.200414         5.4535 
 147   0.0000       0.202593         5.5128 
 148   0.0000       0.207019         5.6333 
 149   0.0000       0.212065         5.7706 
 150   0.0000       0.219957         5.9853 
 151   0.0000       0.221163         6.0182 
 152   0.0000       0.222503         6.0546 
 153   0.0000       0.227460         6.1895 
 154   0.0000       0.231464         6.2984 
 155   0.0000       0.235655         6.4125 
 156   0.0000       0.243054         6.6138 
 157   0.0000       0.247063         6.7229 
 158   0.0000       0.249092         6.7781 
 159   0.0000       0.253083         6.8867 
 160   0.0000       0.253285         6.8922 
 161   0.0000       0.258753         7.0410 
 162   0.0000       0.264030         7.1846 
 163   0.0000       0.265315         7.2196 
 164   0.0000       0.267524         7.2797 
 165   0.0000       0.274856         7.4792 
 166   0.0000       0.278157         7.5690 
 167   0.0000       0.283973         7.7273 
 168   0.0000       0.288171         7.8415 
 169   0.0000       0.293973         7.9994 
 170   0.0000       0.296698         8.0736 
 171   0.0000       0.300674         8.1817 
 172   0.0000       0.302580         8.2336 
 173   0.0000       0.308717         8.4006 
 174   0.0000       0.316673         8.6171 
 175   0.0000       0.323542         8.8040 
 176   0.0000       0.330916         9.0047 
 177   0.0000       0.331710         9.0263 
 178   0.0000       0.351425         9.5628 
 179   0.0000       0.356909         9.7120 
 180   0.0000       0.367192         9.9918 
 181   0.0000       0.378654        10.3037 
 182   0.0000       0.383642        10.4394 
 183   0.0000       0.411901        11.2084 
 184   0.0000       0.418831        11.3970 
 185   0.0000       0.464205        12.6317 
 186   0.0000       0.486683        13.2433 
 187   0.0000       0.498021        13.5518 
 188   0.0000       0.505640        13.7592 
 189   0.0000       0.513962        13.9856 
 190   0.0000       0.521770        14.1981 
 191   0.0000       0.525573        14.3016 
 192   0.0000       0.542715        14.7680 
 193   0.0000       0.544569        14.8185 
 194   0.0000       0.569847        15.5063 
 195   0.0000       0.578441        15.7402 
 196   0.0000       0.581911        15.8346 
 197   0.0000       0.598489        16.2857 
 198   0.0000       0.604514        16.4497 
 199   0.0000       0.609606        16.5882 
 200   0.0000       0.615113        16.7381 
 201   0.0000       0.623036        16.9537 
 202   0.0000       0.626375        17.0445 
 203   0.0000       0.630309        17.1516 
 204   0.0000       0.638825        17.3833 
 205   0.0000       0.644831        17.5467 
 206   0.0000       0.649512        17.6741 
 207   0.0000       0.660835        17.9822 
 208   0.0000       0.663149        18.0452 
 209   0.0000       0.665221        18.1016 
 210   0.0000       0.671157        18.2631 
 211   0.0000       0.679527        18.4909 
 212   0.0000       0.694226        18.8909 
 213   0.0000       0.698648        19.0112 
 214   0.0000       0.701470        19.0880 
 215   0.0000       0.709157        19.2971 
 216   0.0000       0.711788        19.3687 
 217   0.0000       0.716479        19.4964 
 218   0.0000       0.724223        19.7071 
 219   0.0000       0.726661        19.7735 
 220   0.0000       0.728745        19.8301 
 221   0.0000       0.735397        20.0112 
 222   0.0000       0.739699        20.1282 
 223   0.0000       0.745498        20.2860 
 224   0.0000       0.748304        20.3624 
 225   0.0000       0.749220        20.3873 
 226   0.0000       0.753934        20.5156 
 227   0.0000       0.755981        20.5713 
 228   0.0000       0.764453        20.8018 
 229   0.0000       0.765699        20.8357 
 230   0.0000       0.774880        21.0856 
 231   0.0000       0.777316        21.1518 
 232   0.0000       0.778973        21.1969 
 233   0.0000       0.786679        21.4066 
 234   0.0000       0.788173        21.4473 
 235   0.0000       0.796099        21.6630 
 236   0.0000       0.797054        21.6889 
 237   0.0000       0.801553        21.8114 
 238   0.0000       0.810551        22.0562 
 239   0.0000       0.818800        22.2807 
 240   0.0000       0.822309        22.3762 
 241   0.0000       0.830278        22.5930 
 242   0.0000       0.835561        22.7368 
 243   0.0000       0.840617        22.8744 
 244   0.0000       0.855759        23.2864 
 245   0.0000       0.856715        23.3124 
 246   0.0000       0.858682        23.3659 
 247   0.0000       0.864364        23.5205 
 248   0.0000       0.867391        23.6029 
 249   0.0000       0.871995        23.7282 
 250   0.0000       0.873702        23.7746 
 251   0.0000       0.876319        23.8459 
 252   0.0000       0.877162        23.8688 
 253   0.0000       0.878088        23.8940 
 254   0.0000       0.880461        23.9586 
 255   0.0000       0.884676        24.0733 
 256   0.0000       0.886497        24.1228 
 257   0.0000       0.887425        24.1481 
 258   0.0000       0.891932        24.2707 
 259   0.0000       0.897902        24.4331 
 260   0.0000       0.902804        24.5665 
 261   0.0000       0.903890        24.5961 
 262   0.0000       0.908479        24.7210 
 263   0.0000       0.913791        24.8655 
 264   0.0000       0.920907        25.0592 
 265   0.0000       0.923300        25.1243 
 266   0.0000       0.926997        25.2249 
 267   0.0000       0.930326        25.3155 
 268   0.0000       0.932026        25.3617 
 269   0.0000       0.940089        25.5811 
 270   0.0000       0.941840        25.6288 
 271   0.0000       0.943362        25.6702 
 272   0.0000       0.946594        25.7581 
 273   0.0000       0.948878        25.8203 
 274   0.0000       0.951876        25.9019 
 275   0.0000       0.964313        26.2403 
 276   0.0000       0.970029        26.3958 
 277   0.0000       0.973060        26.4783 
 278   0.0000       0.975554        26.5462 
 279   0.0000       0.979945        26.6657 
 280   0.0000       0.995097        27.0780 
 281   0.0000       0.998596        27.1732 
 282   0.0000       1.003979        27.3197 
 283   0.0000       1.012457        27.5504 
 284   0.0000       1.020102        27.7584 
 285   0.0000       1.021537        27.7974 
 286   0.0000       1.029505        28.0143 
 287   0.0000       1.036202        28.1965 
 288   0.0000       1.055668        28.7262 
 289   0.0000       1.065007        28.9803 
 290   0.0000       1.071870        29.1671 
 291   0.0000       1.077009        29.3069 
 292   0.0000       1.083195        29.4752 
 293   0.0000       1.091858        29.7110 
 294   0.0000       1.093073        29.7440 
 295   0.0000       1.103958        30.0402 
 296   0.0000       1.113484        30.2994 
 297   0.0000       1.138272        30.9739 
 298   0.0000       1.141613        31.0649 
 299   0.0000       1.157554        31.4986 
 300   0.0000       1.162893        31.6439 
 301   0.0000       1.181745        32.1569 
 302   0.0000       1.200411        32.6648 
 303   0.0000       1.217680        33.1348 
 304   0.0000       1.226668        33.3793 
 305   0.0000       1.243756        33.8443 
 306   0.0000       1.254369        34.1331 
 307   0.0000       1.287178        35.0259 
 308   0.0000       1.295041        35.2398 
 309   0.0000       1.308540        35.6072 
 310   0.0000       1.332313        36.2541 
 311   0.0000       1.337887        36.4058 
 312   0.0000       1.354031        36.8451 
 313   0.0000       1.372703        37.3531 
 314   0.0000       1.407008        38.2866 
 315   0.0000       1.492423        40.6109 
 316   0.0000       1.525891        41.5216 
 317   0.0000       1.562085        42.5065 
 318   0.0000       1.606041        43.7026 
 319   0.0000       1.657389        45.0998 
 320   0.0000       6.207924       168.9262 
 321   0.0000       6.239227       169.7780 
 322   0.0000       6.243221       169.8867 
 323   0.0000       6.269299       170.5963 
 324   0.0000       6.271902       170.6671 
 325   0.0000       6.290905       171.1842 
 326   0.0000       6.303192       171.5186 
 327   0.0000       6.307340       171.6315 
 328   0.0000       6.315753       171.8604 
 329   0.0000       6.338174       172.4705 
 330   0.0000       6.342225       172.5807 
 331   0.0000       6.350641       172.8097 
 332   0.0000       6.360239       173.0709 
 333   0.0000       6.376564       173.5151 
 334   0.0000       6.384388       173.7280 
 335   0.0000       6.392254       173.9421 
 336   0.0000       6.401019       174.1806 
 337   0.0000       6.416458       174.6007 
 338   0.0000       6.421719       174.7439 
 339   0.0000       6.428283       174.9225 
 340   0.0000       6.436163       175.1369 
 341   0.0000       6.444072       175.3521 
 342   0.0000       6.454853       175.6455 
 343   0.0000       6.462702       175.8591 
 344   0.0000       6.468172       176.0079 
 345   0.0000       6.476614       176.2376 
 346   0.0000       6.482619       176.4010 
 347   0.0000       6.491893       176.6534 
 348   0.0000       6.504559       176.9980 
 349   0.0000       6.518209       177.3695 
 350   0.0000       6.521144       177.4493 
 351   0.0000       6.526616       177.5982 
 352   0.0000       6.542837       178.0396 
 353   0.0000       6.545077       178.1006 
 354   0.0000       6.550392       178.2452 
 355   0.0000       6.555334       178.3797 
 356   0.0000       6.557726       178.4448 
 357   0.0000       6.562560       178.5763 
 358   0.0000       6.563491       178.6017 
 359   0.0000       6.583573       179.1481 
 360   0.0000       6.585412       179.1982 
 361   0.0000       6.587947       179.2671 
 362   0.0000       6.592674       179.3958 
 363   0.0000       6.598630       179.5579 
 364   0.0000       6.603929       179.7020 
 365   0.0000       6.607550       179.8006 
 366   0.0000       6.609434       179.8518 
 367   0.0000       6.613941       179.9745 
 368   0.0000       6.618171       180.0896 
 369   0.0000       6.619119       180.1154 
 370   0.0000       6.623801       180.2428 
 371   0.0000       6.624861       180.2716 
 372   0.0000       6.632468       180.4786 
 373   0.0000       6.637911       180.6267 
 374   0.0000       6.640355       180.6932 
[...]
     69 H        0.000      0.000      0.000      0.000      0.000      0.000
     70 H        0.000      0.000      0.000      0.000      0.003      0.037
     71 H        0.000      0.000      0.000     -0.000      0.001      0.020
     72 H        0.000      0.000      0.000      0.000      0.001      0.015
                 25 H       27 H       28 H       30 H       31 H       33 H  
      3 H        2.464     -0.107      0.072      0.000      0.000      2.385
      4 H        0.108     -0.004      0.004      0.008      0.000      0.097
      8 H       -0.330      0.012      0.000      0.000      0.000     -0.301
      9 H        0.000      0.000      0.000      0.000      0.000      0.138
     10 H        0.000      0.000      0.000      0.000      0.000      0.000
     11 H        0.000      0.000      0.000      0.000      0.000      0.000
     13 H       -0.099      0.004     -0.004      0.000      0.000     -0.102
     16 H       -0.363      0.012     -0.007     -0.022     -0.001     -0.334
     17 H       -0.350      0.011      0.000      0.000      0.000     -0.305
     19 H        0.905     -0.048      0.026      0.085      0.007      1.110
     21 H       -2.803      0.198      0.628     -0.220     -0.027     -2.559
     24 H      -13.964      4.323      2.302      0.717     -0.497     -0.131
     25 H        0.000     12.992      5.229     -0.631     -0.351     -2.308
     27 H       12.992      0.000    -13.576      3.996     13.007      0.068
     28 H        5.229    -13.576      0.000      2.642      4.130      0.280
     30 H       -0.631      3.996      2.642      0.000    -12.996      0.005
     31 H       -0.351     13.007      4.130    -12.996      0.000     -0.324
     33 H       -2.308      0.068      0.280      0.005     -0.324      0.000
     35 H        0.000      0.000      0.000      0.000      0.000      0.000
     37 H        0.267      0.006     -0.035      0.535     -0.039      6.277
     38 H        0.193      0.002     -0.029     -0.020      0.120     12.240
     40 H       -0.013      0.022      0.140     -0.002     -0.037     -0.238
     41 H        0.012      0.020     -0.028      0.012      0.088     -0.390
     42 H       -0.019      0.008     -0.007     -0.264     -0.389     -0.202
     45 H       -0.019     -0.207      0.018     -0.206     -0.481     -0.174
     46 H        0.013      0.043      0.065     -0.339      0.024      0.912
     47 H       -0.061     -0.120     -0.148     -0.159      1.807     -0.474
     48 H       -0.015      0.031      0.022      0.036      0.016     -0.003
     52 H       -0.002     -0.000      0.010     -0.009      0.002      0.017
     53 H       -0.000      0.000     -0.001      0.000     -0.001     -0.002
     57 H        0.000      0.000      0.000     -0.003     -0.000     -0.000
     58 H        0.000      0.000      0.000      0.000      0.000      0.000
     61 H        0.000      0.000      0.000      0.000      0.000      0.000
     62 H        0.000      0.000      0.000      0.000      0.000      0.000
     63 H        0.000      0.000      0.000      0.000      0.000      0.000
     64 H        0.000      0.000      0.000      0.000      0.000      0.000
     65 H        0.000      0.000      0.000      0.000      0.000      0.000
     66 H        0.000      0.000      0.000      0.000      0.000      0.000
     67 H        0.000      0.000      0.000     -0.000      0.000      0.000
     68 H        0.000      0.000     -0.000      0.000      0.000     -0.000
     69 H        0.000      0.000      0.000      0.000     -0.000     -0.000
     70 H        0.000     -0.008     -0.011      0.059     -0.060      0.006
     71 H        0.003     -0.004     -0.008     -0.458     -0.100      0.004
     72 H        0.000     -0.004     -0.005      0.047      0.001      0.002
                 35 H       37 H       38 H       40 H       41 H       42 H  
      3 H       -0.074     -0.045     -0.039      0.000      0.000      0.000
      4 H       -0.165     -0.002     -0.002      0.000      0.000      0.000
      8 H        0.020      0.006      0.004      0.000      0.001      0.000
      9 H       -0.091     -0.003     -0.001      0.000     -0.000      0.000
     10 H       -0.180      0.000     -0.001      0.000      0.000      0.000
     11 H       -0.103     -0.000     -0.000      0.000      0.000      0.000
     13 H       13.758      0.002      0.001      0.000      0.000      0.000
     16 H        0.005      0.007      0.002     -0.001      0.001     -0.001
     17 H        0.007      0.005      0.004      0.000      0.002      0.000
     19 H       -0.004     -0.010      0.114      0.005     -0.009      0.006
     21 H       -0.003      0.039     -0.520     -0.010      0.059     -0.026
     24 H       -0.001     -0.052     -0.079     -0.021      0.072     -0.025
     25 H        0.000      0.267      0.193     -0.013      0.012     -0.019
     27 H        0.000      0.006      0.002      0.022      0.020      0.008
     28 H        0.000     -0.035     -0.029      0.140     -0.028     -0.007
     30 H        0.000      0.535     -0.020     -0.002      0.012     -0.264
     31 H        0.000     -0.039      0.120     -0.037      0.088     -0.389
     33 H        0.000      6.277     12.240     -0.238     -0.390     -0.202
     35 H        0.000      0.000      0.000      0.000      0.000      0.000
     37 H        0.000      0.000    -12.069      9.452      2.286     -0.250
     38 H        0.000    -12.069      0.000      7.152     11.281     -0.457
     40 H        0.000      9.452      7.152      0.000    -13.964      9.640
     41 H        0.000      2.286     11.281    -13.964      0.000      8.154
     42 H        0.000     -0.250     -0.457      9.640      8.154      0.000
     45 H        0.000      0.059      0.037     -0.075      0.017      0.986
     46 H        0.000     -0.165      0.004      0.044      0.033     -0.399
     47 H        0.000      0.082     -0.084     -0.105     -0.038     -0.097
     48 H        0.000      0.131      0.004     -0.151     -0.432     10.702
     52 H        0.000     -0.007     -0.001     -0.023      0.070     -0.571
     53 H        0.000      0.009      0.016     -0.222     -0.031     -0.428
     57 H        0.000     -0.004     -0.008      0.008      0.021      0.026
     58 H        0.000      0.000      0.000     -0.000     -0.000     -0.000
     61 H        0.000     -0.000     -0.000     -0.001     -0.000      0.000
     62 H        0.000      0.000      0.000      0.003     -0.000     -0.005
     63 H        0.000      0.000      0.000      0.000     -0.001      0.002
     64 H        0.000      0.000      0.000      0.001      0.001     -0.000
     65 H        0.000      0.000      0.000     -0.000     -0.000      0.000
     66 H        0.000      0.000      0.000      0.000     -0.000      0.000
     67 H        0.000      0.000      0.000     -0.000      0.000      0.000
     68 H        0.000     -0.000      0.000     -0.001     -0.000      0.001
     69 H        0.000      0.000      0.000     -0.000     -0.000      0.000
     70 H        0.000      0.061      0.011     -0.043     -0.016     -0.425
     71 H        0.000     -0.017     -0.002      0.034     -0.003     -0.161
     72 H        0.000     -0.024      0.032     -0.003     -0.070     -0.346
                 45 H       46 H       47 H       48 H       52 H       53 H  
      3 H       -0.021      0.000      0.000      0.000      0.000      0.000
      4 H       -0.001     -0.001      0.001      0.000      0.000      0.000
      8 H        0.002      0.002     -0.004      0.000      0.000      0.000
      9 H       -0.001      0.000      0.001      0.000      0.000      0.000
     10 H       -0.001      0.000      0.000      0.000      0.000      0.000
     11 H       -0.000      0.000      0.000      0.000      0.000      0.000
     13 H        0.001      0.001     -0.001      0.000      0.000      0.000
     16 H        0.002      0.002     -0.004      0.000      0.000      0.000
     17 H        0.002      0.000     -0.004      0.000      0.000      0.000
     19 H       -0.010     -0.007      0.011      0.006      0.000      0.000
     21 H        0.034      0.012     -0.019     -0.016      0.003     -0.000
     24 H       -0.022     -0.016     -0.023      0.003      0.000     -0.000
     25 H       -0.019      0.013     -0.061     -0.015     -0.002     -0.000
     27 H       -0.207      0.043     -0.120      0.031     -0.000      0.000
     28 H        0.018      0.065     -0.148      0.022      0.010     -0.001
     30 H       -0.206     -0.339     -0.159      0.036     -0.009      0.000
     31 H       -0.481      0.024      1.807      0.016      0.002     -0.001
     33 H       -0.174      0.912     -0.474     -0.003      0.017     -0.002
     35 H        0.000      0.000      0.000      0.000      0.000      0.000
     37 H        0.059     -0.165      0.082      0.131     -0.007      0.009
     38 H        0.037      0.004     -0.084      0.004     -0.001      0.016
     40 H       -0.075      0.044     -0.105     -0.151     -0.023     -0.222
     41 H        0.017      0.033     -0.038     -0.432      0.070     -0.031
     42 H        0.986     -0.399     -0.097     10.702     -0.571     -0.428
     45 H        0.000    -12.955    -13.593     -0.154      0.014      0.003
     46 H      -12.955      0.000    -12.973     -0.068      0.011     -0.004
     47 H      -13.593    -12.973      0.000     -0.227      0.015     -0.000
     48 H       -0.154     -0.068     -0.227      0.000      6.033     -1.928
     52 H        0.014      0.011      0.015      6.033      0.000     17.321
     53 H        0.003     -0.004     -0.000     -1.928     17.321      0.000
     57 H        0.000      0.007      0.005      2.914     -2.922      4.211
     58 H        0.000     -0.000     -0.000     -0.053      0.036     -0.317
     61 H        0.000      0.000      0.000     -0.028     -0.226     -0.490
     62 H        0.000      0.000      0.000      0.047     -0.255     -0.562
     63 H        0.000      0.000      0.000      0.026     -0.239      0.749
     64 H        0.000      0.000      0.000      0.010      0.014     -0.016
     65 H        0.000      0.000      0.000     -0.005      0.004      0.016
     66 H        0.000      0.000      0.000     -0.000      0.041      0.074
     67 H        0.000      0.000      0.000      0.019     -0.011      0.015
     68 H        0.000      0.000     -0.000     -0.013      0.025      0.013
     69 H        0.000      0.000      0.000     -0.024      0.017     -0.018
     70 H       -0.029     -0.019     -0.011      1.850     -0.214     -0.055
     71 H       -0.074     -0.291     -0.021      5.576     -0.028     -0.418
     72 H       -0.035     -0.053      0.028     12.248     -0.243      0.132
                 57 H       58 H       61 H       62 H       63 H       64 H  
      3 H        0.000      0.000      0.000      0.000      0.000      0.000
      4 H        0.000      0.000      0.000      0.000      0.000      0.000
      8 H        0.000      0.000      0.000      0.000      0.000      0.000
      9 H        0.000      0.000      0.000      0.000      0.000      0.000
     10 H        0.000      0.000      0.000      0.000      0.000      0.000
     11 H        0.000      0.000      0.000      0.000      0.000      0.000
     13 H        0.000      0.000      0.000      0.000      0.000      0.000
     16 H        0.000      0.000      0.000      0.000      0.000      0.000
     17 H        0.000      0.000      0.000      0.000      0.000      0.000
     19 H        0.000      0.000      0.000      0.000      0.000      0.000
     21 H        0.000      0.000      0.000      0.000      0.000      0.000
     24 H        0.000      0.000      0.000      0.000      0.000      0.000
     25 H        0.000      0.000      0.000      0.000      0.000      0.000
     27 H        0.000      0.000      0.000      0.000      0.000      0.000
     28 H        0.000      0.000      0.000      0.000      0.000      0.000
     30 H       -0.003      0.000      0.000      0.000      0.000      0.000
     31 H       -0.000      0.000      0.000      0.000      0.000      0.000
     33 H       -0.000      0.000      0.000      0.000      0.000      0.000
     35 H        0.000      0.000      0.000      0.000      0.000      0.000
     37 H       -0.004      0.000     -0.000      0.000      0.000      0.000
     38 H       -0.008      0.000     -0.000      0.000      0.000      0.000
     40 H        0.008     -0.000     -0.001      0.003      0.000      0.001
     41 H        0.021     -0.000     -0.000     -0.000     -0.001      0.001
     42 H        0.026     -0.000      0.000     -0.005      0.002     -0.000
     45 H        0.000      0.000      0.000      0.000      0.000      0.000
     46 H        0.007     -0.000      0.000      0.000      0.000      0.000
     47 H        0.005     -0.000      0.000      0.000      0.000      0.000
     48 H        2.914     -0.053     -0.028      0.047      0.026      0.010
     52 H       -2.922      0.036     -0.226     -0.255     -0.239      0.014
     53 H        4.211     -0.317     -0.490     -0.562      0.749     -0.016
     57 H        0.000      2.738      3.650     13.034      3.514     -0.152
     58 H        2.738      0.000      0.552     -0.513     -0.400      4.433
     61 H        3.650      0.552      0.000    -12.682    -13.590     -0.087
     62 H       13.034     -0.513    -12.682      0.000    -12.627      0.054
     63 H        3.514     -0.400    -13.590    -12.627      0.000     -0.126
     64 H       -0.152      4.433     -0.087      0.054     -0.126      0.000
     65 H       -0.344      2.702      0.037      0.025      0.004    -12.691
     66 H       -0.298     13.011     -0.098      0.042     -0.304    -13.122
     67 H       -0.512     13.142     -0.071     -0.136     -0.014     -0.210
     68 H       -0.250      2.707      0.034     -0.010      0.082     -0.093
     69 H        0.572      4.397     -0.149     -0.099      0.041     -0.192
     70 H        0.018     -0.001     -0.003      0.001     -0.004      0.005
     71 H        0.504     -0.015     -0.015     -0.007     -0.024      0.000
     72 H       -0.155      0.003      0.001      0.000      0.001     -0.005
                 65 H       66 H       67 H       68 H       69 H       70 H  
      3 H        0.000      0.000      0.000      0.000      0.000      0.000
      4 H        0.000      0.000      0.000      0.000      0.000      0.000
      8 H        0.000      0.000      0.000      0.000      0.000      0.000
      9 H        0.000      0.000      0.000      0.000      0.000      0.000
     10 H        0.000      0.000      0.000      0.000      0.000      0.000
     11 H        0.000      0.000      0.000      0.000      0.000      0.000
     13 H        0.000      0.000      0.000      0.000      0.000      0.000
     16 H        0.000      0.000      0.000      0.000      0.000      0.000
     17 H        0.000      0.000      0.000      0.000      0.000      0.000
     19 H        0.000      0.000      0.000      0.000      0.000      0.000
     21 H        0.000      0.000      0.000      0.000      0.000      0.003
     24 H        0.000      0.000      0.000      0.000      0.000      0.037
     25 H        0.000      0.000      0.000      0.000      0.000      0.000
     27 H        0.000      0.000      0.000      0.000      0.000     -0.008
     28 H        0.000      0.000      0.000     -0.000      0.000     -0.011
     30 H        0.000      0.000     -0.000      0.000      0.000      0.059
     31 H        0.000      0.000      0.000      0.000     -0.000     -0.060
     33 H        0.000      0.000      0.000     -0.000     -0.000      0.006
     35 H        0.000      0.000      0.000      0.000      0.000      0.000
     37 H        0.000      0.000      0.000     -0.000      0.000      0.061
     38 H        0.000      0.000      0.000      0.000      0.000      0.011
     40 H       -0.000      0.000     -0.000     -0.001     -0.000     -0.043
     41 H       -0.000     -0.000      0.000     -0.000     -0.000     -0.016
     42 H        0.000      0.000      0.000      0.001      0.000     -0.425
     45 H        0.000      0.000      0.000      0.000      0.000     -0.029
     46 H        0.000      0.000      0.000      0.000      0.000     -0.019
     47 H        0.000      0.000      0.000     -0.000      0.000     -0.011
     48 H       -0.005     -0.000      0.019     -0.013     -0.024      1.850
     52 H        0.004      0.041     -0.011      0.025      0.017     -0.214
     53 H        0.016      0.074      0.015      0.013     -0.018     -0.055
     57 H       -0.344     -0.298     -0.512     -0.250      0.572      0.018
     58 H        2.702     13.011     13.142      2.707      4.397     -0.001
     61 H        0.037     -0.098     -0.071      0.034     -0.149     -0.003
     62 H        0.025      0.042     -0.136     -0.010     -0.099      0.001
     63 H        0.004     -0.304     -0.014      0.082      0.041     -0.004
     64 H      -12.691    -13.122     -0.210     -0.093     -0.192      0.005
     65 H        0.000    -11.982     -0.228      2.816     -0.109     -0.001
     66 H      -11.982      0.000     -0.359     -0.271     -0.215     -0.001
     67 H       -0.228     -0.359      0.000    -12.272    -12.933      0.001
     68 H        2.816     -0.271    -12.272      0.000    -12.764      0.000
     69 H       -0.109     -0.215    -12.933    -12.764      0.000      0.003
     70 H       -0.001     -0.001      0.001      0.000      0.003      0.000
     71 H        0.000      0.000      0.006      0.004      0.012    -13.413
     72 H        0.000      0.001     -0.008     -0.025     -0.003    -12.954
                 71 H       72 H  
      3 H        0.000      0.000
      4 H        0.000      0.000
      8 H        0.000      0.000
      9 H        0.000      0.000
     10 H        0.000      0.000
     11 H        0.000      0.000
     13 H        0.000      0.000
     16 H        0.000      0.000
     17 H        0.000      0.000
     19 H       -0.000      0.000
     21 H        0.001      0.001
     24 H        0.020      0.015
     25 H        0.003      0.000
     27 H       -0.004     -0.004
     28 H       -0.008     -0.005
     30 H       -0.458      0.047
     31 H       -0.100      0.001
     33 H        0.004      0.002
     35 H        0.000      0.000
     37 H       -0.017     -0.024
     38 H       -0.002      0.032
     40 H        0.034     -0.003
     41 H       -0.003     -0.070
     42 H       -0.161     -0.346
     45 H       -0.074     -0.035
     46 H       -0.291     -0.053
     47 H       -0.021      0.028
     48 H        5.576     12.248
     52 H       -0.028     -0.243
     53 H       -0.418      0.132
     57 H        0.504     -0.155
     58 H       -0.015      0.003
     61 H       -0.015      0.001
     62 H       -0.007      0.000
     63 H       -0.024      0.001
     64 H        0.000     -0.005
     65 H        0.000      0.000
     66 H        0.000      0.001
     67 H        0.006     -0.008
     68 H        0.004     -0.025
     69 H        0.012     -0.003
     70 H      -13.413    -12.954
     71 H        0.000    -11.595
     72 H      -11.595      0.000

Maximum memory used throughout the entire EPRNMR-calculation: 964.7 MB

Timings for individual modules:

Sum of individual times         ...      412.598 sec (=   6.877 min)
GTO integral calculation        ...        0.773 sec (=   0.013 min)   0.2 %
SCF iterations                  ...      101.480 sec (=   1.691 min)  24.6 %
EPR/NMR calculation             ...      310.344 sec (=   5.172 min)  75.2 %
                             ****ORCA TERMINATED NORMALLY****
TOTAL RUN TIME: 0 days 0 hours 6 minutes 52 seconds 966 msec
