
                                 *****************
                                 * O   R   C   A *
                                 *****************

                                            #,                                       
                                            ###                                      
                                            ####                                     
                                            #####                                    
                                            ######                                   
                                           ########,                                 
                                     ,,################,,,,,                         
                               ,,#################################,,                 
                          ,,##########################################,,             
                       ,#########################################, ''#####,          
                    ,#############################################,,   '####,        
                  ,##################################################,,,,####,       
                ,###########''''           ''''###############################       
              ,#####''   ,,,,##########,,,,          '''####'''          '####       
            ,##' ,,,,###########################,,,                        '##       
           ' ,,###''''                  '''############,,,                           
         ,,##''                                '''############,,,,        ,,,,,,###''
      ,#''                                            '''#######################'''  
     '                                                          ''''####''''         
             ,#######,   #######,   ,#######,      ##                                
            ,#'     '#,  ##    ##  ,#'     '#,    #''#        ######   ,####,        
            ##       ##  ##   ,#'  ##            #'  '#       #        #'  '#        
            ##       ##  #######   ##           ,######,      #####,   #    #        
            '#,     ,#'  ##    ##  '#,     ,#' ,#      #,         ##   #,  ,#        
             '#######'   ##     ##  '#######'  #'      '#     #####' # '####'        



                  #######################################################
                  #                        -***-                        #
                  #          Department of theory and spectroscopy      #
                  #    Directorship and core code : Frank Neese         #
                  #        Max Planck Institute fuer Kohlenforschung    #
                  #                Kaiser Wilhelm Platz 1               #
                  #                 D-45470 Muelheim/Ruhr               #
                  #                      Germany                        #
                  #                                                     #
                  #                  All rights reserved                #
                  #                        -***-                        #
                  #######################################################


                         Program Version 5.0.2 -  RELEASE  -


 With contributions from (in alphabetic order):
   Daniel Aravena         : Magnetic Suceptibility
   Michael Atanasov       : Ab Initio Ligand Field Theory (pilot matlab implementation)
   Alexander A. Auer      : GIAO ZORA, VPT2 properties, NMR spectrum
   Ute Becker             : Parallelization
   Giovanni Bistoni       : ED, misc. LED, open-shell LED, HFLD
   Martin Brehm           : Molecular dynamics
   Dmytro Bykov           : SCF Hessian
   Vijay G. Chilkuri      : MRCI spin determinant printing, contributions to CSF-ICE
   Dipayan Datta          : RHF DLPNO-CCSD density
   Achintya Kumar Dutta   : EOM-CC, STEOM-CC
   Dmitry Ganyushin       : Spin-Orbit,Spin-Spin,Magnetic field MRCI
   Miquel Garcia          : C-PCM and meta-GGA Hessian, CC/C-PCM, Gaussian charge scheme
   Yang Guo               : DLPNO-NEVPT2, F12-NEVPT2, CIM, IAO-localization
   Andreas Hansen         : Spin unrestricted coupled pair/coupled cluster methods
   Benjamin Helmich-Paris : MC-RPA, TRAH-SCF, COSX integrals
   Lee Huntington         : MR-EOM, pCC
   Robert Izsak           : Overlap fitted RIJCOSX, COSX-SCS-MP3, EOM
   Marcus Kettner         : VPT2
   Christian Kollmar      : KDIIS, OOCD, Brueckner-CCSD(T), CCSD density, CASPT2, CASPT2-K
   Simone Kossmann        : Meta GGA functionals, TD-DFT gradient, OOMP2, MP2 Hessian
   Martin Krupicka        : Initial AUTO-CI
   Lucas Lang             : DCDCAS
   Marvin Lechner         : AUTO-CI (C++ implementation), FIC-MRCC
   Dagmar Lenk            : GEPOL surface, SMD
   Dimitrios Liakos       : Extrapolation schemes; Compound Job, initial MDCI parallelization
   Dimitrios Manganas     : Further ROCIS development; embedding schemes
   Dimitrios Pantazis     : SARC Basis sets
   Anastasios Papadopoulos: AUTO-CI, single reference methods and gradients
   Taras Petrenko         : DFT Hessian,TD-DFT gradient, ASA, ECA, R-Raman, ABS, FL, XAS/XES, NRVS
   Peter Pinski           : DLPNO-MP2, DLPNO-MP2 Gradient
   Christoph Reimann      : Effective Core Potentials
   Marius Retegan         : Local ZFS, SOC
   Christoph Riplinger    : Optimizer, TS searches, QM/MM, DLPNO-CCSD(T), (RO)-DLPNO pert. Triples
   Tobias Risthaus        : Range-separated hybrids, TD-DFT gradient, RPA, STAB
   Michael Roemelt        : Original ROCIS implementation
   Masaaki Saitow         : Open-shell DLPNO-CCSD energy and density
   Barbara Sandhoefer     : DKH picture change effects
   Avijit Sen             : IP-ROCIS
   Kantharuban Sivalingam : CASSCF convergence, NEVPT2, FIC-MRCI
   Bernardo de Souza      : ESD, SOC TD-DFT
   Georgi Stoychev        : AutoAux, RI-MP2 NMR, DLPNO-MP2 response
   Willem Van den Heuvel  : Paramagnetic NMR
   Boris Wezisla          : Elementary symmetry handling
   Frank Wennmohs         : Technical directorship


 We gratefully acknowledge several colleagues who have allowed us to
 interface, adapt or use parts of their codes:
   Stefan Grimme, W. Hujo, H. Kruse, P. Pracht,  : VdW corrections, initial TS optimization,
                  C. Bannwarth, S. Ehlert          DFT functionals, gCP, sTDA/sTD-DF
   Ed Valeev, F. Pavosevic, A. Kumar             : LibInt (2-el integral package), F12 methods
   Garnet Chan, S. Sharma, J. Yang, R. Olivares  : DMRG
   Ulf Ekstrom                                   : XCFun DFT Library
   Mihaly Kallay                                 : mrcc  (arbitrary order and MRCC methods)
   Jiri Pittner, Ondrej Demel                    : Mk-CCSD
   Frank Weinhold                                : gennbo (NPA and NBO analysis)
   Christopher J. Cramer and Donald G. Truhlar   : smd solvation model
   Lars Goerigk                                  : TD-DFT with DH, B97 family of functionals
   V. Asgeirsson, H. Jonsson                     : NEB implementation
   FAccTs GmbH                                   : IRC, NEB, NEB-TS, DLPNO-Multilevel, CI-OPT
                                                   MM, QMMM, 2- and 3-layer-ONIOM, Crystal-QMMM,
                                                   LR-CPCM, SF, NACMEs, symmetry and pop. for TD-DFT,
                                                   nearIR, NL-DFT gradient (VV10), updates on ESD,
                                                   ML-optimized integration grids
   S Lehtola, MJT Oliveira, MAL Marques          : LibXC Library
   Liviu Ungur et al                             : ANISO software


 Your calculation uses the libint2 library for the computation of 2-el integrals
 For citations please refer to: http://libint.valeyev.net

 Your ORCA version has been built with support for libXC version: 5.1.0
 For citations please refer to: https://tddft.org/programs/libxc/

 This ORCA versions uses:
   CBLAS   interface :  Fast vector & matrix operations
   LAPACKE interface :  Fast linear algebra routines
   SCALAPACK package :  Parallel linear algebra routines
   Shared memory     :  Shared parallel matrices
   BLAS/LAPACK       :  OpenBLAS 0.3.15  USE64BITINT DYNAMIC_ARCH NO_AFFINITY Zen SINGLE_THREADED
        Core in use  :  Zen
   Copyright (c) 2011-2014, The OpenBLAS Project


Your calculation utilizes the atom-pairwise dispersion correction
based on tight binding partial charges (D4)
Cite in your paper:
E.Caldeweyher, C.Bannwarth, S.Grimme, J.Chem.Phys., (2017), 147, 034112.
E.Caldeweyher, S.Ehlert, A.Hansen, H.Neugebauer, S.Grimme, J.Chem.Phys., (2018), in progress.
   

================================================================================

----- Orbital basis set information -----
Your calculation utilizes the basis: pcJ-0
   F. Jensen, Theor. Chem. Acc. 126, 371 (2010).

----- AuxJ basis set information -----
Your calculation utilizes the auxiliary basis: def2/J
   F. Weigend, Phys. Chem. Chem. Phys. 8, 1057 (2006).

================================================================================
                                        WARNINGS
                       Please study these warnings very carefully!
================================================================================


INFO   : the flag for use of the SHARK integral package has been found!

================================================================================
                                       INPUT FILE
================================================================================
NAME = inpJ
|  1> ! pbe0
|  2> ! D4
|  3> ! pcJ-0
|  4> ! def2/J RIJCOSX
|  5> ! DEFGRID2
|  6> ! scfconv7
|  7> ! smallprint printgap noloewdin
|  8> ! NOSOSCF
|  9> %MaxCore 4000
| 10> %output
| 11>        print[P_BondOrder_M] 1
| 12>        print[P_Mayer] 1
| 13>        print[P_basis] 2
| 14> end
| 15> %pal
| 16>     nprocs 4
| 17> end
| 18> ! CPCM(chloroform)
| 19> *xyz 0 1
| 20> C   -5.1682158400  -0.0413341800   0.4119159700
| 21> C   -6.5177278800  -0.5814046400   0.0013448200
| 22> C   -7.1675803900   0.2816213800  -1.0871835700
| 23> H   -7.1958951300  -0.5747742100   0.8716511700
| 24> H   -6.4312066400  -1.6169455200  -0.3457287300
| 25> C   -5.1676993900   1.3986068900   0.7460774700
| 26> C   -5.8645774300   2.2773565400  -0.2679739800
| 27> C   -7.2528739000   1.7340850800  -0.6326460000
| 28> H   -5.2509078900   2.3068996100  -1.1813216400
| 29> H   -5.9383588200   3.3032960600   0.1079168800
| 30> H   -7.7028021200   2.3432352900  -1.4254599800
| 31> H   -7.9131787800   1.7906090900   0.2459483100
| 32> O   -8.4514143200  -0.2358735200  -1.4615098100
| 33> H   -6.5605158600   0.2214861200  -2.0012877200
| 34> C   -4.0717397900  -0.8358148300   0.4110175200
| 35> C   -4.6389066100   1.8917043300   1.8718132900
| 36> H   -4.1645529800   1.2453719700   2.6050780400
| 37> H   -4.6793746200   2.9565002200   2.0888809700
| 38> C   -2.7125971800  -0.4246500600   0.6765315100
| 39> H   -4.2339891100  -1.8774347400   0.1372061900
| 40> C   -1.6310186000  -1.2304382500   0.7439563800
| 41> H   -2.5579801100   0.6429888200   0.8160358900
| 42> C   -1.6466147000  -2.7332412900   0.6246958200
| 43> C   -0.6596131900  -3.2322252000  -0.4466698000
| 44> H   -2.6474595500  -3.1234348900   0.4204797700
| 45> H   -1.3369652100  -3.1501546200   1.5964779600
| 46> C    0.7482481000  -2.6491768700  -0.2675760500
| 47> H   -1.0451374400  -2.9710832100  -1.4403612600
| 48> H   -0.6107863400  -4.3274678500  -0.4096239900
| 49> C    0.7274324700  -1.1150931500  -0.2022146900
| 50> H    1.3870958800  -3.0066541100  -1.0817430100
| 51> H    1.1805631600  -3.0297182200   0.6702792300
| 52> C   -0.2422670100  -0.7093053000   0.9533376600
| 53> H    0.1577754100  -1.2285318900   1.8439969000
| 54> C    0.0186731600   0.7801457000   1.1447002100
| 55> H   -9.0183637000  -0.2031020100  -0.6791461600
| 56> C    1.5454517500   0.9082841800   0.9195706900
| 57> H   -0.2938408300   1.1328691700   2.1333921700
| 58> H   -0.5330380000   1.3681789000   0.4027207100
| 59> C    2.0360118400  -0.4376384200   0.2988905400
| 60> H    2.0666019100   1.1208676800   1.8569521000
| 61> H    1.7768232500   1.7388873900   0.2420882400
| 62> H    2.4187190900  -1.0839049800   1.1047330300
| 63> C    3.1680091700  -0.2215715100  -0.7147525100
| 64> C    0.2632547500  -0.5111472300  -1.5352551300
| 65> H   -0.7905554200  -0.7357131300  -1.7263700500
| 66> H    0.8494773700  -0.9090174500  -2.3705129900
| 67> H    0.3706667100   0.5781148500  -1.5440672700
| 68> H    2.7886333600   0.4645205200  -1.4886990200
| 69> C    3.6294502500  -1.5068318700  -1.4271512000
| 70> C    4.4000678200   0.4292699900  -0.1236391000
| 71> C    4.7656668200   0.4478906200   1.1583190100
| 72> H    5.0705347500   0.8583961700  -0.8701664100
| 73> H    4.0993094700   0.0107871000   1.8997741500
| 74> C    6.0522364800   1.0109877900   1.7113869500
| 75> C    6.7701263600   1.9412078600   0.7313463600
| 76> C    6.9824652600  -0.1315717800   2.2088081400
| 77> H    5.7853167900   1.5985917100   2.6071439900
| 78> H    7.2682868300  -0.7172088400   1.3204764000
| 79> C    6.2707553200  -1.0662292800   3.1927464600
| 80> C    8.2569008200   0.4175016500   2.8584910100
| 81> H    6.0757688300   2.6794045400   0.3169952200
| 82> H    7.2038771500   1.3782992200  -0.1039816800
| 83> H    7.5796380700   2.4855284200   1.2238663500
| 84> H    6.9705610800  -1.8123724200   3.5843904900
| 85> H    5.4385296800  -1.6023978600   2.7275865800
| 86> H    5.8761088800  -0.4986522300   4.0457833600
| 87> H    8.0054201700   1.0887935400   3.6901295800
| 88> H    8.8808035900   0.9715525900   2.1519220100
| 89> H    8.8619034000  -0.4017136200   3.2624247300
| 90> H    4.5272622600  -1.3094800000  -2.0236000400
| 91> H    2.8639493200  -1.9014425200  -2.0999881000
| 92> H    3.8799466200  -2.2792692000  -0.6905265000
| 93> *
| 94> %eprnmr
| 95>  Nuclei = all H { ssfc }
| 96>  SpinSpinRThresh 8.0
| 97> end
| 98> 
| 99>                          ****END OF INPUT****
================================================================================

                       ****************************
                       * Single Point Calculation *
                       ****************************

---------------------------------
CARTESIAN COORDINATES (ANGSTROEM)
---------------------------------
  C     -5.168216   -0.041334    0.411916
  C     -6.517728   -0.581405    0.001345
  C     -7.167580    0.281621   -1.087184
  H     -7.195895   -0.574774    0.871651
  H     -6.431207   -1.616946   -0.345729
  C     -5.167699    1.398607    0.746077
  C     -5.864577    2.277357   -0.267974
  C     -7.252874    1.734085   -0.632646
  H     -5.250908    2.306900   -1.181322
  H     -5.938359    3.303296    0.107917
  H     -7.702802    2.343235   -1.425460
  H     -7.913179    1.790609    0.245948
  O     -8.451414   -0.235874   -1.461510
  H     -6.560516    0.221486   -2.001288
  C     -4.071740   -0.835815    0.411018
  C     -4.638907    1.891704    1.871813
  H     -4.164553    1.245372    2.605078
  H     -4.679375    2.956500    2.088881
  C     -2.712597   -0.424650    0.676532
  H     -4.233989   -1.877435    0.137206
  C     -1.631019   -1.230438    0.743956
  H     -2.557980    0.642989    0.816036
  C     -1.646615   -2.733241    0.624696
  C     -0.659613   -3.232225   -0.446670
  H     -2.647460   -3.123435    0.420480
  H     -1.336965   -3.150155    1.596478
  C      0.748248   -2.649177   -0.267576
  H     -1.045137   -2.971083   -1.440361
  H     -0.610786   -4.327468   -0.409624
  C      0.727432   -1.115093   -0.202215
  H      1.387096   -3.006654   -1.081743
  H      1.180563   -3.029718    0.670279
  C     -0.242267   -0.709305    0.953338
  H      0.157775   -1.228532    1.843997
  C      0.018673    0.780146    1.144700
  H     -9.018364   -0.203102   -0.679146
  C      1.545452    0.908284    0.919571
  H     -0.293841    1.132869    2.133392
  H     -0.533038    1.368179    0.402721
  C      2.036012   -0.437638    0.298891
  H      2.066602    1.120868    1.856952
  H      1.776823    1.738887    0.242088
  H      2.418719   -1.083905    1.104733
  C      3.168009   -0.221572   -0.714753
  C      0.263255   -0.511147   -1.535255
  H     -0.790555   -0.735713   -1.726370
  H      0.849477   -0.909017   -2.370513
  H      0.370667    0.578115   -1.544067
  H      2.788633    0.464521   -1.488699
  C      3.629450   -1.506832   -1.427151
  C      4.400068    0.429270   -0.123639
  C      4.765667    0.447891    1.158319
  H      5.070535    0.858396   -0.870166
  H      4.099309    0.010787    1.899774
  C      6.052236    1.010988    1.711387
  C      6.770126    1.941208    0.731346
  C      6.982465   -0.131572    2.208808
  H      5.785317    1.598592    2.607144
  H      7.268287   -0.717209    1.320476
  C      6.270755   -1.066229    3.192746
  C      8.256901    0.417502    2.858491
  H      6.075769    2.679405    0.316995
  H      7.203877    1.378299   -0.103982
  H      7.579638    2.485528    1.223866
  H      6.970561   -1.812372    3.584390
  H      5.438530   -1.602398    2.727587
  H      5.876109   -0.498652    4.045783
  H      8.005420    1.088794    3.690130
  H      8.880804    0.971553    2.151922
  H      8.861903   -0.401714    3.262425
  H      4.527262   -1.309480   -2.023600
  H      2.863949   -1.901443   -2.099988
  H      3.879947   -2.279269   -0.690527

----------------------------
CARTESIAN COORDINATES (A.U.)
----------------------------
  NO LB      ZA    FRAG     MASS         X           Y           Z
   0 C     6.0000    0    12.011   -9.766513   -0.078110    0.778408
   1 C     6.0000    0    12.011  -12.316721   -1.098696    0.002541
   2 C     6.0000    0    12.011  -13.544764    0.532187   -2.054479
   3 H     1.0000    0     1.008  -13.598271   -1.086166    1.647182
   4 H     1.0000    0     1.008  -12.153219   -3.055584   -0.653333
   5 C     6.0000    0    12.011   -9.765537    2.642984    1.409882
   6 C     6.0000    0    12.011  -11.082445    4.303580   -0.506397
   7 C     6.0000    0    12.011  -13.705945    3.276946   -1.195528
   8 H     1.0000    0     1.008   -9.922778    4.359408   -2.232374
   9 H     1.0000    0     1.008  -11.221872    6.242325    0.203933
  10 H     1.0000    0     1.008  -14.556186    4.428073   -2.693729
  11 H     1.0000    0     1.008  -14.953741    3.383761    0.464775
  12 O     8.0000    0    15.999  -15.970859   -0.445736   -2.761853
  13 H     1.0000    0     1.008  -12.397578    0.418548   -3.781886
  14 C     6.0000    0    12.011   -7.694473   -1.579461    0.776711
  15 C     6.0000    0    12.011   -8.766263    3.574803    3.537214
  16 H     1.0000    0     1.008   -7.869865    2.353412    4.922884
  17 H     1.0000    0     1.008   -8.842737    5.586976    3.947413
  18 C     6.0000    0    12.011   -5.126066   -0.802472    1.278459
  19 H     1.0000    0     1.008   -8.001080   -3.547837    0.259282
  20 C     6.0000    0    12.011   -3.082178   -2.325191    1.405874
  21 H     1.0000    0     1.008   -4.833882    1.215073    1.542084
  22 C     6.0000    0    12.011   -3.111651   -5.165077    1.180504
  23 C     6.0000    0    12.011   -1.246488   -6.108020   -0.844084
  24 H     1.0000    0     1.008   -5.002974   -5.902437    0.794592
  25 H     1.0000    0     1.008   -2.526498   -5.952930    3.016906
  26 C     6.0000    0    12.011    1.413984   -5.006219   -0.505645
  27 H     1.0000    0     1.008   -1.975024   -5.614534   -2.721888
  28 H     1.0000    0     1.008   -1.154219   -8.177729   -0.774077
  29 C     6.0000    0    12.011    1.374648   -2.107221   -0.382130
  30 H     1.0000    0     1.008    2.621231   -5.681753   -2.044198
  31 H     1.0000    0     1.008    2.230941   -5.725338    1.266644
  32 C     6.0000    0    12.011   -0.457818   -1.340393    1.801547
  33 H     1.0000    0     1.008    0.298152   -2.321589    3.484649
  34 C     6.0000    0    12.011    0.035287    1.474262    2.163170
  35 H     1.0000    0     1.008  -17.042238   -0.383807   -1.283400
  36 C     6.0000    0    12.011    2.920481    1.716408    1.737737
  37 H     1.0000    0     1.008   -0.555279    2.140812    4.031527
  38 H     1.0000    0     1.008   -1.007296    2.585483    0.761032
  39 C     6.0000    0    12.011    3.847505   -0.827017    0.564821
  40 H     1.0000    0     1.008    3.905312    2.118133    3.509131
  41 H     1.0000    0     1.008    3.357709    3.286021    0.457480
  42 H     1.0000    0     1.008    4.570717   -2.048284    2.087643
  43 C     6.0000    0    12.011    5.986670   -0.418709   -1.350686
  44 C     6.0000    0    12.011    0.497479   -0.965928   -2.901212
  45 H     1.0000    0     1.008   -1.493933   -1.390296   -3.262367
  46 H     1.0000    0     1.008    1.605280   -1.717794   -4.479620
  47 H     1.0000    0     1.008    0.700459    1.092479   -2.917864
  48 H     1.0000    0     1.008    5.269753    0.877817   -2.813233
  49 C     6.0000    0    12.011    6.858667   -2.847500   -2.696925
  50 C     6.0000    0    12.011    8.314923    0.811203   -0.233644
  51 C     6.0000    0    12.011    9.005805    0.846391    2.188906
  52 H     1.0000    0     1.008    9.581922    1.622134   -1.644376
  53 H     1.0000    0     1.008    7.746572    0.020385    3.590053
  54 C     6.0000    0    12.011   11.437069    1.910490    3.234053
  55 C     6.0000    0    12.011   12.793685    3.668351    1.382044
  56 C     6.0000    0    12.011   13.194947   -0.248635    4.174042
  57 H     1.0000    0     1.008   10.932664    3.020901    4.926788
  58 H     1.0000    0     1.008   13.735072   -1.355328    2.495339
  59 C     6.0000    0    12.011   11.850010   -2.014881    6.033416
  60 C     6.0000    0    12.011   15.603281    0.788964    5.401765
  61 H     1.0000    0     1.008   11.481539    5.063341    0.599034
  62 H     1.0000    0     1.008   13.613355    2.604608   -0.196497
  63 H     1.0000    0     1.008   14.323440    4.696968    2.312772
  64 H     1.0000    0     1.008   13.172451   -3.424888    6.773516
  65 H     1.0000    0     1.008   10.277332   -3.028093    5.154392
  66 H     1.0000    0     1.008   11.104237   -0.942316    7.645423
  67 H     1.0000    0     1.008   15.128052    2.057522    6.973334
  68 H     1.0000    0     1.008   16.782287    1.835968    4.066543
  69 H     1.0000    0     1.008   16.746570   -0.759129    6.165089
  70 H     1.0000    0     1.008    8.555286   -2.474559   -3.824050
  71 H     1.0000    0     1.008    5.412080   -3.593206   -3.968402
  72 H     1.0000    0     1.008    7.332037   -4.307195   -1.304906

--------------------------------
INTERNAL COORDINATES (ANGSTROEM)
--------------------------------
 C      0   0   0     0.000000000000     0.00000000     0.00000000
 C      1   0   0     1.510439511229     0.00000000     0.00000000
 C      2   1   0     1.533628459499   111.73477863     0.00000000
 H      2   1   3     1.103353037076   109.42656699   241.41123165
 H      2   1   3     1.095577878670   110.70260371   122.85610614
 C      1   2   3     1.478206501094   114.20876381    50.45413806
 C      6   1   2     1.511998774225   114.47949854   312.07233744
 C      3   2   1     1.524313020743   110.38164033   305.10384085
 H      7   6   1     1.100757487068   108.36884113   289.74589813
 H      7   6   1     1.095120783676   110.20132167   172.62403913
 H      8   3   2     1.096381953691   109.67878301   179.02231303
 H      8   3   2     1.100511453744   108.69772651   296.42530575
 O      3   2   1     1.433928403128   111.19727359   180.40214037
 H      3   2   1     1.098967692940   108.99685052    65.19938439
 C      1   2   3     1.354053189007   120.89871781   232.73083587
 C      6   1   2     1.337926764044   123.32294564   129.85032835
 H     16   6   1     1.086477832020   121.41100351     0.70247186
 H     16   6   1     1.087449458547   120.93876065   181.36150599
 C     15   1   2     1.444583947472   126.49515631   174.75313679
 H     15   1   2     1.089160008073   116.14658635   357.75168905
 C     19  15   1     1.350426949136   126.36225979   176.27753441
 H     19  15   1     1.087759480980   115.89147601   355.11068935
 C     21  19  15     1.507608469245   125.63041039   356.60579051
 C     23  21  19     1.539799082640   111.80410127   127.13972985
 H     23  21  19     1.093455830992   112.33056706     2.97910326
 H     23  21  19     1.101843935869   107.72787039   245.78832688
 C     24  23  21     1.534305490535   112.56975100    50.95410148
 H     24  23  21     1.097381794981   109.13131397   288.86838095
 H     24  23  21     1.096956205005   109.18293768   172.84411467
 C     27  24  23     1.535616572521   111.84881928   306.09050669
 H     27  24  23     1.094890086668   108.93687656   182.43844768
 H     27  24  23     1.100581917163   109.17829831    65.96998970
 C     21  19  15     1.498015704430   122.81294782   176.66388656
 H     33  21  19     1.105849931663   106.53486819   124.46006031
 C     33  21  19     1.524196076384   121.07848972     1.83246856
 H     13   3   2     0.966746322564   107.55195184    62.10667353
 C     35  33  21     1.548597957416   103.37910004   195.47333083
 H     35  33  21     1.095258249000   112.28352312    73.72795160
 H     35  33  21     1.095765406823   110.68298205   314.04451888
 C     30  27  24     1.556416181592   115.92144043   166.51534049
 H     37  35  33     1.093376943947   111.18496058   250.98088768
 H     37  35  33     1.096547734270   111.13225731   132.69564334
 H     40  30  27     1.101593130183   105.79873934   321.64741413
 C     40  30  27     1.534788290787   117.95336190    82.59590869
 C     30  27  24     1.535320306876   111.10742799   294.80736713
 H     45  30  27     1.094290012056   111.22682168    67.71455931
 H     45  30  27     1.095268626801   110.94167638   307.57655395
 H     45  30  27     1.094580678565   111.64030540   187.53200794
 H     44  40  30     1.101653974342   107.31745501    62.89842202
 C     44  40  30     1.540238279232   114.13976065   304.10181680
 C     44  40  30     1.513597779677   113.76435900   180.64964596
 C     51  44  40     1.333201392310   127.21076679    22.26685754
 H     51  44  40     1.091319479878   113.70456602   197.71347512
 H     52  51  44     1.088506926817   118.78356897   355.80564243
 C     52  51  44     1.509378699714   126.24886705   174.93568106
 C     55  52  51     1.530083271095   113.08106183    16.71620939
 C     55  52  51     1.555054916844   110.67065540   250.43849835
 H     55  52  51     1.104040380792   106.84435726   135.43935404
 H     57  55  52     1.101725018421   106.72832817    65.31371389
 C     57  55  52     1.532400175726   112.06758592   306.91304319
 C     57  55  52     1.532238708458   111.70860011   183.70353417
 H     56  55  52     1.094876059219   110.77807110    48.77938593
 H     56  55  52     1.096712733227   111.18474364   288.70778696
 H     56  55  52     1.092780866055   111.20499046   168.55273881
 H     60  57  55     1.095373330574   110.38497555   184.38262574
 H     60  57  55     1.093823557990   112.28941656    64.17788287
 H     60  57  55     1.097980634189   110.51743019   303.41504281
 H     61  57  55     1.097951743027   110.47206531    57.05774321
 H     61  57  55     1.093374072443   112.46962420   296.20011430
 H     61  57  55     1.095583967828   110.34574113   176.06819831
 H     50  44  40     1.095794408012   110.29983956   188.13622229
 H     50  44  40     1.092894657744   112.09878152    68.14885612
 H     50  44  40     1.096368463980   110.21835508   307.03325810

---------------------------
INTERNAL COORDINATES (A.U.)
---------------------------
 C      0   0   0     0.000000000000     0.00000000     0.00000000
 C      1   0   0     2.854317018077     0.00000000     0.00000000
 C      2   1   0     2.898137779641   111.73477863     0.00000000
 H      2   1   3     2.085035069104   109.42656699   241.41123165
 H      2   1   3     2.070342149069   110.70260371   122.85610614
 C      1   2   3     2.793405456449   114.20876381    50.45413806
 C      6   1   2     2.857263598109   114.47949854   312.07233744
 C      3   2   1     2.880534151575   110.38164033   305.10384085
 H      7   6   1     2.080130190422   108.36884113   289.74589813
 H      7   6   1     2.069478364713   110.20132167   172.62403913
 H      8   3   2     2.071861630649   109.67878301   179.02231303
 H      8   3   2     2.079665254821   108.69772651   296.42530575
 O      3   2   1     2.709731977563   111.19727359   180.40214037
 H      3   2   1     2.076747969685   108.99685052    65.19938439
 C      1   2   3     2.558789697986   120.89871781   232.73083587
 C      6   1   2     2.528315171287   123.32294564   129.85032835
 H     16   6   1     2.053145553093   121.41100351     0.70247186
 H     16   6   1     2.054981661135   120.93876065   181.36150599
 C     15   1   2     2.729868038180   126.49515631   174.75313679
 H     15   1   2     2.058214131277   116.14658635   357.75168905
 C     19  15   1     2.551937097734   126.36225979   176.27753441
 H     19  15   1     2.055567518629   115.89147601   355.11068935
 C     21  19  15     2.848967124054   125.63041039   356.60579051
 C     23  21  19     2.909798567453   111.80410127   127.13972985
 H     23  21  19     2.066332060114   112.33056706     2.97910326
 H     23  21  19     2.082183281115   107.72787039   245.78832688
 C     24  23  21     2.899417182883   112.56975100    50.95410148
 H     24  23  21     2.073751056865   109.13131397   288.86838095
 H     24  23  21     2.072946808365   109.18293768   172.84411467
 C     27  24  23     2.901894768776   111.84881928   306.09050669
 H     27  24  23     2.069042410548   108.93687656   182.43844768
 H     27  24  23     2.079798411384   109.17829831    65.96998970
 C     21  19  15     2.830839425685   122.81294782   176.66388656
 H     33  21  19     2.089753516059   106.53486819   124.46006031
 C     33  21  19     2.880313158762   121.07848972     1.83246856
 H     13   3   2     1.826885790622   107.55195184    62.10667353
 C     35  33  21     2.926426031067   103.37910004   195.47333083
 H     35  33  21     2.069738136529   112.28352312    73.72795160
 H     35  33  21     2.070696525921   110.68298205   314.04451888
 C     30  27  24     2.941200333613   115.92144043   166.51534049
 H     37  35  33     2.066182985203   111.18496058   250.98088768
 H     37  35  33     2.072174910542   111.13225731   132.69564334
 H     40  30  27     2.081709327055   105.79873934   321.64741413
 C     40  30  27     2.900329543137   117.95336190    82.59590869
 C     30  27  24     2.901334907843   111.10742799   294.80736713
 H     45  30  27     2.067908433871   111.22682168    67.71455931
 H     45  30  27     2.069757747730   110.94167638   307.57655395
 H     45  30  27     2.068457713970   111.64030540   187.53200794
 H     44  40  30     2.081824305853   107.31745501    62.89842202
 C     44  40  30     2.910628528731   114.13976065   304.10181680
 C     44  40  30     2.860285280501   113.76435900   180.64964596
 C     51  44  40     2.519385512828   127.21076679    22.26685754
 H     51  44  40     2.062294941583   113.70456602   197.71347512
 H     52  51  44     2.056979986560   118.78356897   355.80564243
 C     52  51  44     2.852312374834   126.24886705   174.93568106
 C     55  52  51     2.891438344464   113.08106183    16.71620939
 C     55  52  51     2.938627916042   110.67065540   250.43849835
 H     55  52  51     2.086333960486   106.84435726   135.43935404
 H     57  55  52     2.081958559705   106.72832817    65.31371389
 C     57  55  52     2.895816659695   112.06758592   306.91304319
 C     57  55  52     2.895511530778   111.70860011   183.70353417
 H     56  55  52     2.069015902510   110.77807110    48.77938593
 H     56  55  52     2.072486713384   111.18474364   288.70778696
 H     56  55  52     2.065056561233   111.20499046   168.55273881
 H     60  57  55     2.069955609186   110.38497555   184.38262574
 H     60  57  55     2.067026963433   112.28941656    64.17788287
 H     60  57  55     2.074882698965   110.51743019   303.41504281
 H     61  57  55     2.074828102582   110.47206531    57.05774321
 H     61  57  55     2.066177558847   112.46962420   296.20011430
 H     61  57  55     2.070353655909   110.34574113   176.06819831
 H     50  44  40     2.070751330225   110.29983956   188.13622229
 H     50  44  40     2.065271596362   112.09878152    68.14885612
 H     50  44  40     2.071836138791   110.21835508   307.03325810

---------------------
BASIS SET INFORMATION
---------------------
There are 3 groups of distinct atoms

 Group   1 Type C   : 7s4p contracted to 4s3p pattern {4111/211}
 Group   2 Type H   : 5s contracted to 3s pattern {311}
 Group   3 Type O   : 7s4p contracted to 4s3p pattern {4111/211}

Atom   0C    basis set group =>   1
Atom   1C    basis set group =>   1
Atom   2C    basis set group =>   1
Atom   3H    basis set group =>   2
Atom   4H    basis set group =>   2
Atom   5C    basis set group =>   1
Atom   6C    basis set group =>   1
Atom   7C    basis set group =>   1
Atom   8H    basis set group =>   2
Atom   9H    basis set group =>   2
Atom  10H    basis set group =>   2
Atom  11H    basis set group =>   2
Atom  12O    basis set group =>   3
Atom  13H    basis set group =>   2
Atom  14C    basis set group =>   1
Atom  15C    basis set group =>   1
Atom  16H    basis set group =>   2
Atom  17H    basis set group =>   2
Atom  18C    basis set group =>   1
Atom  19H    basis set group =>   2
Atom  20C    basis set group =>   1
Atom  21H    basis set group =>   2
Atom  22C    basis set group =>   1
Atom  23C    basis set group =>   1
Atom  24H    basis set group =>   2
Atom  25H    basis set group =>   2
Atom  26C    basis set group =>   1
Atom  27H    basis set group =>   2
Atom  28H    basis set group =>   2
Atom  29C    basis set group =>   1
Atom  30H    basis set group =>   2
Atom  31H    basis set group =>   2
Atom  32C    basis set group =>   1
Atom  33H    basis set group =>   2
Atom  34C    basis set group =>   1
Atom  35H    basis set group =>   2
Atom  36C    basis set group =>   1
Atom  37H    basis set group =>   2
Atom  38H    basis set group =>   2
Atom  39C    basis set group =>   1
Atom  40H    basis set group =>   2
Atom  41H    basis set group =>   2
Atom  42H    basis set group =>   2
Atom  43C    basis set group =>   1
Atom  44C    basis set group =>   1
Atom  45H    basis set group =>   2
Atom  46H    basis set group =>   2
Atom  47H    basis set group =>   2
Atom  48H    basis set group =>   2
Atom  49C    basis set group =>   1
Atom  50C    basis set group =>   1
Atom  51C    basis set group =>   1
Atom  52H    basis set group =>   2
Atom  53H    basis set group =>   2
Atom  54C    basis set group =>   1
Atom  55C    basis set group =>   1
Atom  56C    basis set group =>   1
Atom  57H    basis set group =>   2
Atom  58H    basis set group =>   2
Atom  59C    basis set group =>   1
Atom  60C    basis set group =>   1
Atom  61H    basis set group =>   2
Atom  62H    basis set group =>   2
Atom  63H    basis set group =>   2
Atom  64H    basis set group =>   2
Atom  65H    basis set group =>   2
Atom  66H    basis set group =>   2
Atom  67H    basis set group =>   2
Atom  68H    basis set group =>   2
Atom  69H    basis set group =>   2
Atom  70H    basis set group =>   2
Atom  71H    basis set group =>   2
Atom  72H    basis set group =>   2

-------------------------
BASIS SET IN INPUT FORMAT
-------------------------

 # Basis set for element : H 
 NewGTO H 
 S 3 
   1    1357.7500000000      0.0012928364
   2      54.3100000000      0.0588280685
   3       4.3448000000      0.9761499708
 S 1 
   1       0.6604910000      1.0000000000
 S 1 
   1       0.1366870000      1.0000000000
  end;

 # Basis set for element : C 
 NewGTO C 
 S 4 
   1  139534.0000000000      0.0001655246
   2    5581.3600000000      0.0074486101
   3     446.5090000000      0.1285821065
   4      67.4620000000      0.9218029311
 S 1 
   1      15.0674000000      1.0000000000
 S 1 
   1       3.9387600000      1.0000000000
 S 1 
   1       0.2999150000      1.0000000000
 P 2 
   1      28.3900000000      0.0816325586
   2       4.3676900000      0.9660360576
 P 1 
   1       0.8698170000      1.0000000000
 P 1 
   1       0.1889340000      1.0000000000
  end;

 # Basis set for element : O 
 NewGTO O 
 S 4 
   1  253789.0000000000      0.0001641076
   2   10151.6000000000      0.0074010921
   3     812.1250000000      0.1277711901
   4     122.6930000000      0.9223372164
 S 1 
   1      27.5608000000      1.0000000000
 S 1 
   1       7.3172600000      1.0000000000
 S 1 
   1       0.5792400000      1.0000000000
 P 2 
   1      53.4157000000      0.0793786106
   2       8.2177900000      0.9670506337
 P 1 
   1       1.6754400000      1.0000000000
 P 1 
   1       0.3506720000      1.0000000000
  end;

---------------------------------
AUXILIARY/J BASIS SET INFORMATION
---------------------------------
There are 3 groups of distinct atoms

 Group   1 Type C   : 12s5p4d2f1g contracted to 6s4p3d1f1g pattern {711111/2111/211/2/1}
 Group   2 Type H   : 5s2p1d contracted to 3s1p1d pattern {311/2/1}
 Group   3 Type O   : 12s5p4d2f1g contracted to 6s4p3d1f1g pattern {711111/2111/211/2/1}

Atom   0C    basis set group =>   1
Atom   1C    basis set group =>   1
Atom   2C    basis set group =>   1
Atom   3H    basis set group =>   2
Atom   4H    basis set group =>   2
Atom   5C    basis set group =>   1
Atom   6C    basis set group =>   1
Atom   7C    basis set group =>   1
Atom   8H    basis set group =>   2
Atom   9H    basis set group =>   2
Atom  10H    basis set group =>   2
Atom  11H    basis set group =>   2
Atom  12O    basis set group =>   3
Atom  13H    basis set group =>   2
Atom  14C    basis set group =>   1
Atom  15C    basis set group =>   1
Atom  16H    basis set group =>   2
Atom  17H    basis set group =>   2
Atom  18C    basis set group =>   1
Atom  19H    basis set group =>   2
Atom  20C    basis set group =>   1
Atom  21H    basis set group =>   2
Atom  22C    basis set group =>   1
Atom  23C    basis set group =>   1
Atom  24H    basis set group =>   2
Atom  25H    basis set group =>   2
Atom  26C    basis set group =>   1
Atom  27H    basis set group =>   2
Atom  28H    basis set group =>   2
Atom  29C    basis set group =>   1
Atom  30H    basis set group =>   2
Atom  31H    basis set group =>   2
Atom  32C    basis set group =>   1
Atom  33H    basis set group =>   2
Atom  34C    basis set group =>   1
Atom  35H    basis set group =>   2
Atom  36C    basis set group =>   1
Atom  37H    basis set group =>   2
Atom  38H    basis set group =>   2
Atom  39C    basis set group =>   1
Atom  40H    basis set group =>   2
Atom  41H    basis set group =>   2
Atom  42H    basis set group =>   2
Atom  43C    basis set group =>   1
Atom  44C    basis set group =>   1
Atom  45H    basis set group =>   2
Atom  46H    basis set group =>   2
Atom  47H    basis set group =>   2
Atom  48H    basis set group =>   2
Atom  49C    basis set group =>   1
Atom  50C    basis set group =>   1
Atom  51C    basis set group =>   1
Atom  52H    basis set group =>   2
Atom  53H    basis set group =>   2
Atom  54C    basis set group =>   1
Atom  55C    basis set group =>   1
Atom  56C    basis set group =>   1
Atom  57H    basis set group =>   2
Atom  58H    basis set group =>   2
Atom  59C    basis set group =>   1
Atom  60C    basis set group =>   1
Atom  61H    basis set group =>   2
Atom  62H    basis set group =>   2
Atom  63H    basis set group =>   2
Atom  64H    basis set group =>   2
Atom  65H    basis set group =>   2
Atom  66H    basis set group =>   2
Atom  67H    basis set group =>   2
Atom  68H    basis set group =>   2
Atom  69H    basis set group =>   2
Atom  70H    basis set group =>   2
Atom  71H    basis set group =>   2
Atom  72H    basis set group =>   2

-------------------------------------
AUXILIARY/J BASIS SET IN INPUT FORMAT
-------------------------------------

 # Auxiliary/J basis set for element : H 
 NewAuxJGTO H 
 S 3 
   1      15.6752927000      0.1007184237
   2       3.6063578000      0.3404257499
   3       1.2080016000      0.6491996172
 S 1 
   1       0.4726794000      1.0000000000
 S 1 
   1       0.2018100000      1.0000000000
 P 2 
   1       2.0281365000      0.5596620919
   2       0.5358730000      0.5596620919
 D 1 
   1       2.2165124000      1.0000000000
  end;

 # Auxiliary/J basis set for element : C 
 NewAuxJGTO C 
 S 7 
   1    1861.0916331000      0.0134602335
   2     642.9939764000      0.0299160374
   3     235.1105725000      0.1008649584
   4      90.7028894000      0.2370970548
   5      36.7794552000      0.3924037254
   6      15.6046273000      0.3195862154
   7       6.8907294000      0.0530104441
 S 1 
   1       3.1478850000     -1.0000000000
 S 1 
   1       1.4777287000      1.0000000000
 S 1 
   1       0.7076466000      1.0000000000
 S 1 
   1       0.3430122000      1.0000000000
 S 1 
   1       0.1669453000      1.0000000000
 P 2 
   1      13.5472892000     -0.6769313712
   2       5.4669419000     -0.3779500978
 P 1 
   1       2.1751721000      1.0000000000
 P 1 
   1       0.8582194000      1.0000000000
 P 1 
   1       0.3376720000      1.0000000000
 D 2 
   1       5.9287253000     -0.3533329857
   2       1.9809209000     -0.7456525731
 D 1 
   1       0.8055417000     -1.0000000000
 D 1 
   1       0.3531244000     -1.0000000000
 F 2 
   1       1.6755626000      0.6311076882
   2       0.5997536000      0.4968166032
 G 1 
   1       1.0024600000     -1.0000000000
  end;

 # Auxiliary/J basis set for element : O 
 NewAuxJGTO O 
 S 7 
   1    2876.8216605000      0.0168151159
   2    1004.7443032000      0.0340137548
   3     369.7579954000      0.1194951309
   4     142.9442404000      0.2664627624
   5      57.8366425000      0.4202764046
   6      24.3864983000      0.2765077335
   7      10.6622662000      0.0057008815
 S 1 
   1       4.8070437000     -1.0000000000
 S 1 
   1       2.2210770000      1.0000000000
 S 1 
   1       1.0447795000      1.0000000000
 S 1 
   1       0.4968425000      1.0000000000
 S 1 
   1       0.2371384000      1.0000000000
 P 2 
   1      64.2613382000     -0.2731534179
   2      16.3006076000     -0.8168011598
 P 1 
   1       4.3550542000      1.0000000000
 P 1 
   1       1.2019554000      1.0000000000
 P 1 
   1       0.3354196000      1.0000000000
 D 2 
   1       9.2146611000     -0.4661230638
   2       2.8435251000     -0.6600908911
 D 1 
   1       0.9955759000     -1.0000000000
 D 1 
   1       0.3649441000     -1.0000000000
 F 2 
   1       2.6420115000      0.5931563945
   2       0.7345613000      0.5931563945
 G 1 
   1       1.3931000000     -1.0000000000
  end;



           ************************************************************
           *        Program running with 4 parallel MPI-processes     *
           *              working on a common directory               *
           ************************************************************
------------------------------------------------------------------------------
                           ORCA GTO INTEGRAL CALCULATION
                           -- RI-GTO INTEGRALS CHOSEN --
------------------------------------------------------------------------------
------------------------------------------------------------------------------
                   ___                                                        
                  /   \      - P O W E R E D   B Y -                         
                 /     \                                                     
                 |  |  |   _    _      __       _____    __    __             
                 |  |  |  | |  | |    /  \     |  _  \  |  |  /  |          
                  \  \/   | |  | |   /    \    | | | |  |  | /  /          
                 / \  \   | |__| |  /  /\  \   | |_| |  |  |/  /          
                |  |  |   |  __  | /  /__\  \  |    /   |      \           
                |  |  |   | |  | | |   __   |  |    \   |  |\   \          
                \     /   | |  | | |  |  |  |  | |\  \  |  | \   \       
                 \___/    |_|  |_| |__|  |__|  |_| \__\ |__|  \__/        
                                                                              
                      - O R C A' S   B I G   F R I E N D -                    
                                      &                                       
                       - I N T E G R A L  F E E D E R -                       
                                                                              
 v1 FN, 2020, v2 2021                                                         
------------------------------------------------------------------------------


Reading SHARK input file inpJ.SHARKINP.tmp ... ok
----------------------
SHARK INTEGRAL PACKAGE
----------------------

Number of atoms                             ...     73
Number of basis functions                   ...    509
Number of shells                            ...    335
Maximum angular momentum                    ...      1
Integral batch strategy                     ... SHARK/LIBINT Hybrid
RI-J (if used) integral strategy            ... SPLIT-RIJ (Revised 2003 algorithm where possible)
Printlevel                                  ...      1
Contraction scheme used                     ... SEGMENTED contraction
Coulomb Range Separation                    ... NOT USED
Exchange Range Separation                   ... NOT USED
Finite Nucleus Model                        ... NOT USED
Auxiliary Coulomb fitting basis             ... AVAILABLE
   # of basis functions in Aux-J            ...   1905
   # of shells in Aux-J                     ...    655
   Maximum angular momentum in Aux-J        ...      4
Auxiliary J/K fitting basis                 ... NOT available
Auxiliary Correlation fitting basis         ... NOT available
Auxiliary 'external' fitting basis          ... NOT available
Integral threshold                          ...     3.000000e-11
Primitive cut-off                           ...     1.000000e-12
Primitive pair pre-selection threshold      ...     1.000000e-12

Calculating pre-screening integrals         ... done (  0.0 sec) Dimension = 335
Organizing shell pair data                  ... done (  0.1 sec)
Shell pair information
Total number of shell pairs                 ...     56280
Shell pairs after pre-screening             ...     21808
Total number of primitive shell pairs       ...    145865
Primitive shell pairs kept                  ...     37481
          la=0 lb=0:  10986 shell pairs
          la=1 lb=0:   8956 shell pairs
          la=1 lb=1:   1866 shell pairs

Calculating one electron integrals          ... done (  0.0 sec)
Calculating RI/J V-Matrix + Cholesky decomp.... done (  0.2 sec)
Calculating Nuclear repulsion               ... done (  0.0 sec) ENN=   2770.493765773488 Eh

SHARK setup successfully completed in   0.5 seconds

Maximum memory used throughout the entire GTOINT-calculation: 46.3 MB


           ************************************************************
           *        Program running with 4 parallel MPI-processes     *
           *              working on a common directory               *
           ************************************************************
-------------------------------------------------------------------------------
                                 ORCA SCF
-------------------------------------------------------------------------------

------------
SCF SETTINGS
------------
Hamiltonian:
 Density Functional     Method          .... DFT(GTOs)
 Exchange Functional    Exchange        .... PBE
   PBE kappa parameter   XKappa         ....  0.804000
   PBE mue parameter    XMuePBE         ....  0.219520
 Correlation Functional Correlation     .... PBE
   PBE beta parameter  CBetaPBE         ....  0.066725
 LDA part of GGA corr.  LDAOpt          .... PW91-LDA
 Gradients option       PostSCFGGA      .... off
 Hybrid DFT is turned on
   Fraction HF Exchange ScalHFX         ....  0.250000
   Scaling of DF-GGA-X  ScalDFX         ....  0.750000
   Scaling of DF-GGA-C  ScalDFC         ....  1.000000
   Scaling of DF-LDA-C  ScalLDAC        ....  1.000000
   Perturbative correction              ....  0.000000
   Density functional embedding theory  .... OFF
   NL short-range parameter             ....  6.900000
 RI-approximation to the Coulomb term is turned on
   Number of AuxJ basis functions       .... 1905
   RIJ-COSX (HFX calculated with COS-X)).... on


General Settings:
 Integral files         IntName         .... inpJ
 Hartree-Fock type      HFTyp           .... RHF
 Total Charge           Charge          ....    0
 Multiplicity           Mult            ....    1
 Number of Electrons    NEL             ....  220
 Basis Dimension        Dim             ....  509
 Nuclear Repulsion      ENuc            ....   2770.4937657735 Eh

Convergence Acceleration:
 DIIS                   CNVDIIS         .... on
   Start iteration      DIISMaxIt       ....    12
   Startup error        DIISStart       ....  0.200000
   # of expansion vecs  DIISMaxEq       ....     5
   Bias factor          DIISBfac        ....   1.050
   Max. coefficient     DIISMaxC        ....  10.000
 Trust-Rad. Augm. Hess. CNVTRAH         .... auto
   Auto Start mean grad. ratio tolernc. ....  1.125000
   Auto Start start iteration           ....    20
   Auto Start num. interpolation iter.  ....    10
   Max. Number of Micro iterations      ....    16
   Max. Number of Macro iterations      .... Maxiter - #DIIS iter
   Number of Davidson start vectors     ....     2
   Converg. threshold I  (grad. norm)   ....   1.000e-04
   Converg. threshold II (energy diff.) ....   1.000e-07
   Grad. Scal. Fac. for Micro threshold ....   0.100
   Minimum threshold for Micro iter.    ....   0.010
   NR start threshold (gradient norm)   ....   0.001
   Initial trust radius                 ....   0.400
   Minimum AH scaling param. (alpha)    ....   1.000
   Maximum AH scaling param. (alpha)    .... 1000.000
   Orbital update algorithm             .... Taylor
   White noise on init. David. guess    .... on
   Maximum white noise                  ....   0.010
   Quad. conv. algorithm                .... NR
 SOSCF                  CNVSOSCF        .... off
 Level Shifting         CNVShift        .... on
   Level shift para.    LevelShift      ....    0.2500
   Turn off err/grad.   ShiftErr        ....    0.0010
 Zerner damping         CNVZerner       .... off
 Static damping         CNVDamp         .... on
   Fraction old density DampFac         ....    0.7000
   Max. Damping (<1)    DampMax         ....    0.9800
   Min. Damping (>=0)   DampMin         ....    0.0000
   Turn off err/grad.   DampErr         ....    0.1000
 Fernandez-Rico         CNVRico         .... off

SCF Procedure:
 Maximum # iterations   MaxIter         ....   125
 SCF integral mode      SCFMode         .... Direct
   Integral package                     .... SHARK and LIBINT hybrid scheme
 Reset frequency        DirectResetFreq ....    20
 Integral Threshold     Thresh          ....  3.000e-11 Eh
 Primitive CutOff       TCut            ....  1.000e-12 Eh

Convergence Tolerance:
 Convergence Check Mode ConvCheckMode   .... Total+1el-Energy
 Convergence forced     ConvForced      .... 0
 Energy Change          TolE            ....  1.000e-07 Eh
 1-El. energy change                    ....  1.000e-04 Eh
 DIIS Error             TolErr          ....  1.000e-07


Diagonalization of the overlap matrix:
Smallest eigenvalue                        ... 7.566e-03
Time for diagonalization                   ...    0.034 sec
Threshold for overlap eigenvalues          ... 1.000e-08
Number of eigenvalues below threshold      ... 0
Time for construction of square roots      ...    0.039 sec
Total time needed                          ...    0.074 sec

Time for model grid setup =    0.739 sec

------------------------------
INITIAL GUESS: MODEL POTENTIAL
------------------------------
Loading Hartree-Fock densities                     ... done
Calculating cut-offs                               ... done
Initializing the effective Hamiltonian             ... done
Setting up the integral package (SHARK)            ... done
Starting the Coulomb interaction                   ... done (   0.3 sec)
Reading the grid                                   ... done
Mapping shells                                     ... done
Starting the XC term evaluation                    ... done (   0.1 sec)
  promolecular density results
     # of electrons  =    219.969642314
     EX              =   -164.431778023
     EC              =     -7.327014355
     EX+EC           =   -171.758792379
Transforming the Hamiltonian                       ... done (   0.0 sec)
Diagonalizing the Hamiltonian                      ... done (   0.0 sec)
Back transforming the eigenvectors                 ... done (   0.0 sec)
Now organizing SCF variables                       ... done
                      ------------------
                      INITIAL GUESS DONE (   1.3 sec)
                      ------------------
-------------------
DFT GRID GENERATION
-------------------

General Integration Accuracy     IntAcc      ... 4.388
Radial Grid Type                 RadialGrid  ... OptM3 with GC (2021)
Angular Grid (max. ang.)         AngularGrid ... 4 (Lebedev-302)
Angular grid pruning method      GridPruning ... 4 (adaptive)
Weight generation scheme         WeightScheme... Becke
Basis function cutoff            BFCut       ... 1.0000e-11
Integration weight cutoff        WCut        ... 1.0000e-14
Angular grids for H and He will be reduced by one unit
Partially contracted basis set               ... off
Rotationally invariant grid construction     ... off

Total number of grid points                  ...   310032
Total number of batches                      ...     4886
Average number of points per batch           ...       63
Average number of grid points per atom       ...     4247
Time for grid setup =    2.776 sec

--------------------
COSX GRID GENERATION
--------------------

GRIDX 1
-------
General Integration Accuracy     IntAcc      ... 3.816
Radial Grid Type                 RadialGrid  ... OptM3 with GC (2021)
Angular Grid (max. ang.)         AngularGrid ... 1 (Lebedev-50)
Angular grid pruning method      GridPruning ... 4 (adaptive)
Weight generation scheme         WeightScheme... Becke
Basis function cutoff            BFCut       ... 1.0000e-11
Integration weight cutoff        WCut        ... 1.0000e-14
Angular grids for H and He will be reduced by one unit
Partially contracted basis set               ... on
Rotationally invariant grid construction     ... off

Total number of grid points                  ...    39416
Total number of batches                      ...      659
Average number of points per batch           ...       59
Average number of grid points per atom       ...      540
UseSFitting                                  ... on

GRIDX 2
-------
General Integration Accuracy     IntAcc      ... 4.020
Radial Grid Type                 RadialGrid  ... OptM3 with GC (2021)
Angular Grid (max. ang.)         AngularGrid ... 2 (Lebedev-110)
Angular grid pruning method      GridPruning ... 4 (adaptive)
Weight generation scheme         WeightScheme... Becke
Basis function cutoff            BFCut       ... 1.0000e-11
Integration weight cutoff        WCut        ... 1.0000e-14
Angular grids for H and He will be reduced by one unit
Partially contracted basis set               ... on
Rotationally invariant grid construction     ... off

Total number of grid points                  ...    81495
Total number of batches                      ...     1311
Average number of points per batch           ...       62
Average number of grid points per atom       ...     1116
UseSFitting                                  ... on

GRIDX 3
-------
General Integration Accuracy     IntAcc      ... 4.338
Radial Grid Type                 RadialGrid  ... OptM3 with GC (2021)
Angular Grid (max. ang.)         AngularGrid ... 3 (Lebedev-194)
Angular grid pruning method      GridPruning ... 4 (adaptive)
Weight generation scheme         WeightScheme... Becke
Basis function cutoff            BFCut       ... 1.0000e-11
Integration weight cutoff        WCut        ... 1.0000e-14
Angular grids for H and He will be reduced by one unit
Partially contracted basis set               ... on
Rotationally invariant grid construction     ... off

Total number of grid points                  ...   176434
Total number of batches                      ...     2798
Average number of points per batch           ...       63
Average number of grid points per atom       ...     2417
UseSFitting                                  ... on

Time for X-Grid setup             =    2.871 sec


--------------------
CPCM SOLVATION MODEL
--------------------
CPCM parameters:
  Epsilon                                         ...       4.9000
  Refrac                                          ...       1.4500
  Rsolv                                           ...       1.3000
  Surface type                                    ... GAUSSIAN VDW
  Epsilon function type                           ...         CPCM
Radii:
 Radius for C  used is    3.8550 Bohr (=   2.0400 Ang.)
 Radius for H  used is    2.4944 Bohr (=   1.3200 Ang.)
 Radius for O  used is    3.4469 Bohr (=   1.8240 Ang.)
Calculating surface                               ...        done! (  0.0s)
GEPOL surface points                              ...         3638
GEPOL Volume                                      ...    3586.7360
GEPOL Surface-area                                ...    1783.0671
Calculating surface distance matrix               ...        done! (  0.1s)
Performing Cholesky decomposition & store         ...        done! (  0.5s)
Overall time for CPCM initialization              ...                 0.6s
--------------
SCF ITERATIONS
--------------
ITER       Energy         Delta-E        Max-DP      RMS-DP      [F,P]     Damp
               ***  Starting incremental Fock matrix formation  ***

  HOMO= 109 E= -3.891 eV LUMO=  7.790 eV gap=  11.681 eV
  0  -1165.0065290943   0.000000000000 0.09752409  0.00105957  0.1940902 0.7000

  HOMO= 109 E= -4.737 eV LUMO=  7.095 eV gap=  11.832 eV
  1  -1165.2248176155  -0.218288521253 0.06538712  0.00078061  0.0946026 0.7000
                               ***Turning on DIIS***

  HOMO= 109 E= -5.336 eV LUMO=  6.537 eV gap=  11.873 eV
  2  -1165.3257153973  -0.100897781827 0.10342190  0.00138596  0.0376690 0.0000

  HOMO= 109 E= -5.903 eV LUMO=  5.994 eV gap=  11.897 eV
  3  -1165.4700069321  -0.144291534753 0.05159294  0.00056757  0.0451928 0.0000

  HOMO= 109 E= -5.982 eV LUMO=  5.915 eV gap=  11.897 eV
  4  -1165.5054662598  -0.035459327673 0.01168052  0.00013450  0.0061720 0.0000

  HOMO= 109 E= -5.929 eV LUMO=  5.975 eV gap=  11.904 eV
  5  -1165.5063312040  -0.000864944217 0.00285500  0.00003821  0.0044414 0.0000

  HOMO= 109 E= -5.915 eV LUMO=  5.989 eV gap=  11.905 eV
  6  -1165.5064080291  -0.000076825141 0.00116009  0.00001159  0.0010638 0.0000

  HOMO= 109 E= -5.917 eV LUMO= -0.815 eV gap=   5.102 eV
  7  -1165.5064129181  -0.000004888987 0.00051388  0.00000592  0.0002313 0.0000
               *** Restarting incremental Fock matrix formation ***
                                   *** Resetting DIIS ***

  HOMO= 109 E= -5.916 eV LUMO= -0.814 eV gap=   5.103 eV
  8  -1165.5064269817  -0.000014063587 0.00030304  0.00000265  0.0001147 0.0000

  HOMO= 109 E= -5.917 eV LUMO= -0.814 eV gap=   5.103 eV
  9  -1165.5064270145  -0.000000032808 0.00013321  0.00000126  0.0001473 0.0000

  HOMO= 109 E= -5.917 eV LUMO= -0.814 eV gap=   5.103 eV
 10  -1165.5064271253  -0.000000110777 0.00006093  0.00000038  0.0000378 0.0000

  HOMO= 109 E= -5.917 eV LUMO= -0.814 eV gap=   5.103 eV
 11  -1165.5064271606  -0.000000035294 0.00002388  0.00000017  0.0000206 0.0000

  HOMO= 109 E= -5.917 eV LUMO= -0.814 eV gap=   5.103 eV
 12  -1165.5064271499   0.000000010682 0.00000685  0.00000005  0.0000036 0.0000
                 **** Energy Check signals convergence ****

               *****************************************************
               *                     SUCCESS                       *
               *           SCF CONVERGED AFTER  13 CYCLES          *
               *****************************************************

Old exchange energy                            =    -42.067651045 Eh
New exchange energy                            =    -42.067518960 Eh
Exchange energy change after final integration =      0.000132085 Eh
Total energy after final integration           =  -1165.506295072 Eh
Final COS-X integration done in                =    13.285 sec

----------------
TOTAL SCF ENERGY
----------------

Total Energy       :        -1165.50629507 Eh          -31715.03865 eV

Components:
Nuclear Repulsion  :         2770.49376577 Eh           75388.96807 eV
Electronic Energy  :        -3936.00006085 Eh         -107104.00672 eV
One Electron Energy:        -7083.04747304 Eh         -192739.52043 eV
Two Electron Energy:         3147.04741219 Eh           85635.51371 eV
Max COSX asymmetry :            0.00000170 Eh               0.00005 eV
CPCM Dielectric    :           -0.01547438 Eh              -0.42108 eV

Virial components:
Potential Energy   :        -2322.40535580 Eh          -63195.86255 eV
Kinetic Energy     :         1156.89906073 Eh           31480.82390 eV
Virial Ratio       :            2.00743992


DFT components:
N(Alpha)           :      110.000147821178 electrons
N(Beta)            :      110.000147821178 electrons
N(Total)           :      220.000295642355 electrons
E(X)               :     -125.745584320202 Eh       
E(C)               :       -7.327774592221 Eh       
E(XC)              :     -133.073358912422 Eh       
DFET-embed. en.    :        0.000000000000 Eh       
CPCM Solvation Model Properties:
Surface-charge          :           -0.03432636
Charge-correction       :           -0.00006178 Eh              -0.00168 eV
Free-energy (cav+disp)  :  This term is not implemented in the current solvation scheme

---------------
SCF CONVERGENCE
---------------

  Last Energy change         ...   -7.5793e-09  Tolerance :   1.0000e-07
  Last MAX-Density change    ...    0.0000e+00  Tolerance :   1.0000e-05
  Last RMS-Density change    ...    0.0000e+00  Tolerance :   1.0000e-06
  Last DIIS Error            ...    2.6477e-06  Tolerance :   1.0000e-07

             **** THE GBW FILE WAS UPDATED (inpJ.gbw) ****
             **** DENSITY inpJ.scfp WAS UPDATED ****
             **** ENERGY FILE WAS UPDATED (inpJ.en.tmp) ****
             **** THE GBW FILE WAS UPDATED (inpJ.gbw) ****
             **** DENSITY inpJ.scfp WAS UPDATED ****
----------------
ORBITAL ENERGIES
----------------

  NO   OCC          E(Eh)            E(eV) 
   0   2.0000     -19.215061      -522.8684 
   1   2.0000     -10.301309      -280.3129 
   2   2.0000     -10.269293      -279.4417 
   3   2.0000     -10.266574      -279.3677 
   4   2.0000     -10.261496      -279.2295 
   5   2.0000     -10.256166      -279.0845 
   6   2.0000     -10.253248      -279.0051 
   7   2.0000     -10.251477      -278.9569 
   8   2.0000     -10.251233      -278.9502 
   9   2.0000     -10.250302      -278.9249 
  10   2.0000     -10.249085      -278.8918 
  11   2.0000     -10.246049      -278.8092 
  12   2.0000     -10.244890      -278.7776 
  13   2.0000     -10.243855      -278.7495 
  14   2.0000     -10.243701      -278.7453 
  15   2.0000     -10.243223      -278.7323 
  16   2.0000     -10.242946      -278.7247 
  17   2.0000     -10.241657      -278.6897 
  18   2.0000     -10.241248      -278.6785 
  19   2.0000     -10.240923      -278.6697 
  20   2.0000     -10.238834      -278.6128 
  21   2.0000     -10.233302      -278.4623 
  22   2.0000     -10.233145      -278.4580 
  23   2.0000     -10.232319      -278.4355 
  24   2.0000     -10.226626      -278.2807 
  25   2.0000     -10.224602      -278.2256 
  26   2.0000     -10.224528      -278.2236 
  27   2.0000     -10.224494      -278.2226 
  28   2.0000     -10.219793      -278.0947 
  29   2.0000      -1.045681       -28.4544 
  30   2.0000      -0.900419       -24.5016 
  31   2.0000      -0.883492       -24.0410 
  32   2.0000      -0.859844       -23.3975 
  33   2.0000      -0.845264       -23.0008 
  34   2.0000      -0.821770       -22.3615 
  35   2.0000      -0.813564       -22.1382 
  36   2.0000      -0.794693       -21.6247 
  37   2.0000      -0.794613       -21.6225 
  38   2.0000      -0.777327       -21.1521 
  39   2.0000      -0.757119       -20.6022 
  40   2.0000      -0.738770       -20.1030 
  41   2.0000      -0.732899       -19.9432 
  42   2.0000      -0.713564       -19.4171 
  43   2.0000      -0.702146       -19.1064 
  44   2.0000      -0.699154       -19.0249 
  45   2.0000      -0.693382       -18.8679 
  46   2.0000      -0.668728       -18.1970 
  47   2.0000      -0.663174       -18.0459 
  48   2.0000      -0.631381       -17.1808 
  49   2.0000      -0.621680       -16.9168 
  50   2.0000      -0.619236       -16.8503 
  51   2.0000      -0.608214       -16.5504 
  52   2.0000      -0.596382       -16.2284 
  53   2.0000      -0.586694       -15.9648 
  54   2.0000      -0.566879       -15.4256 
  55   2.0000      -0.541603       -14.7378 
  56   2.0000      -0.531104       -14.4521 
  57   2.0000      -0.528536       -14.3822 
  58   2.0000      -0.514853       -14.0099 
  59   2.0000      -0.511301       -13.9132 
  60   2.0000      -0.498565       -13.5667 
  61   2.0000      -0.492489       -13.4013 
  62   2.0000      -0.480388       -13.0720 
  63   2.0000      -0.477462       -12.9924 
  64   2.0000      -0.475788       -12.9469 
  65   2.0000      -0.468970       -12.7613 
  66   2.0000      -0.463965       -12.6251 
  67   2.0000      -0.460473       -12.5301 
  68   2.0000      -0.456808       -12.4304 
  69   2.0000      -0.449963       -12.2441 
  70   2.0000      -0.448029       -12.1915 
  71   2.0000      -0.440428       -11.9846 
  72   2.0000      -0.439170       -11.9504 
  73   2.0000      -0.432483       -11.7685 
  74   2.0000      -0.429973       -11.7002 
  75   2.0000      -0.418357       -11.3841 
  76   2.0000      -0.416244       -11.3266 
  77   2.0000      -0.414638       -11.2829 
  78   2.0000      -0.406537       -11.0624 
  79   2.0000      -0.403577       -10.9819 
  80   2.0000      -0.401094       -10.9143 
  81   2.0000      -0.399327       -10.8662 
  82   2.0000      -0.394376       -10.7315 
  83   2.0000      -0.389785       -10.6066 
  84   2.0000      -0.388525       -10.5723 
  85   2.0000      -0.384691       -10.4680 
  86   2.0000      -0.377921       -10.2837 
  87   2.0000      -0.368881       -10.0378 
  88   2.0000      -0.367077        -9.9887 
  89   2.0000      -0.365660        -9.9501 
  90   2.0000      -0.361436        -9.8352 
  91   2.0000      -0.360556        -9.8112 
  92   2.0000      -0.354387        -9.6434 
  93   2.0000      -0.343930        -9.3588 
  94   2.0000      -0.340749        -9.2723 
  95   2.0000      -0.337265        -9.1775 
  96   2.0000      -0.336299        -9.1512 
  97   2.0000      -0.332072        -9.0361 
  98   2.0000      -0.331127        -9.0104 
  99   2.0000      -0.327997        -8.9253 
 100   2.0000      -0.326044        -8.8721 
 101   2.0000      -0.325092        -8.8462 
 102   2.0000      -0.316833        -8.6215 
 103   2.0000      -0.314975        -8.5709 
 104   2.0000      -0.310774        -8.4566 
 105   2.0000      -0.299450        -8.1485 
 106   2.0000      -0.279825        -7.6144 
 107   2.0000      -0.274649        -7.4736 
 108   2.0000      -0.255335        -6.9480 
 109   2.0000      -0.217435        -5.9167 
 110   0.0000      -0.029912        -0.8139 
 111   0.0000       0.021638         0.5888 
 112   0.0000       0.028330         0.7709 
 113   0.0000       0.080978         2.2035 
 114   0.0000       0.091044         2.4774 
 115   0.0000       0.102164         2.7800 
 116   0.0000       0.105771         2.8782 
 117   0.0000       0.107475         2.9246 
 118   0.0000       0.108391         2.9495 
 119   0.0000       0.118620         3.2278 
 120   0.0000       0.119304         3.2464 
 121   0.0000       0.123596         3.3632 
 122   0.0000       0.125472         3.4143 
 123   0.0000       0.130577         3.5532 
 124   0.0000       0.132304         3.6002 
 125   0.0000       0.139037         3.7834 
 126   0.0000       0.140005         3.8097 
 127   0.0000       0.143035         3.8922 
 128   0.0000       0.146269         3.9802 
 129   0.0000       0.153993         4.1904 
 130   0.0000       0.158316         4.3080 
 131   0.0000       0.161439         4.3930 
 132   0.0000       0.162788         4.4297 
 133   0.0000       0.163952         4.4614 
 134   0.0000       0.166273         4.5245 
 135   0.0000       0.166939         4.5426 
 136   0.0000       0.172895         4.7047 
 137   0.0000       0.174484         4.7480 
 138   0.0000       0.174804         4.7567 
 139   0.0000       0.179297         4.8789 
 140   0.0000       0.184047         5.0082 
 141   0.0000       0.185679         5.0526 
 142   0.0000       0.185953         5.0600 
 143   0.0000       0.189454         5.1553 
 144   0.0000       0.190407         5.1812 
 145   0.0000       0.196061         5.3351 
 146   0.0000       0.198063         5.3896 
 147   0.0000       0.201732         5.4894 
 148   0.0000       0.202256         5.5037 
 149   0.0000       0.204428         5.5628 
 150   0.0000       0.208201         5.6654 
 151   0.0000       0.217827         5.9274 
 152   0.0000       0.222526         6.0552 
 153   0.0000       0.225265         6.1298 
 154   0.0000       0.229000         6.2314 
 155   0.0000       0.235631         6.4119 
 156   0.0000       0.243801         6.6342 
 157   0.0000       0.247238         6.7277 
 158   0.0000       0.247666         6.7393 
 159   0.0000       0.254148         6.9157 
 160   0.0000       0.258341         7.0298 
 161   0.0000       0.260076         7.0770 
 162   0.0000       0.264396         7.1946 
 163   0.0000       0.266644         7.2558 
 164   0.0000       0.270060         7.3487 
 165   0.0000       0.273288         7.4365 
 166   0.0000       0.277697         7.5565 
 167   0.0000       0.282406         7.6847 
 168   0.0000       0.285209         7.7609 
 169   0.0000       0.292477         7.9587 
 170   0.0000       0.295018         8.0278 
 171   0.0000       0.297791         8.1033 
 172   0.0000       0.303980         8.2717 
 173   0.0000       0.306278         8.3342 
 174   0.0000       0.315875         8.5954 
 175   0.0000       0.322774         8.7831 
 176   0.0000       0.327700         8.9172 
 177   0.0000       0.332474         9.0471 
 178   0.0000       0.350616         9.5407 
 179   0.0000       0.355994         9.6871 
 180   0.0000       0.367037         9.9876 
 181   0.0000       0.378828        10.3084 
 182   0.0000       0.383475        10.4349 
 183   0.0000       0.411000        11.1839 
 184   0.0000       0.418347        11.3838 
 185   0.0000       0.463952        12.6248 
 186   0.0000       0.485850        13.2207 
 187   0.0000       0.498731        13.5712 
 188   0.0000       0.506182        13.7739 
 189   0.0000       0.521650        14.1948 
 190   0.0000       0.524570        14.2743 
 191   0.0000       0.531300        14.4574 
 192   0.0000       0.542368        14.7586 
 193   0.0000       0.556474        15.1424 
 194   0.0000       0.564160        15.3516 
 195   0.0000       0.572971        15.5913 
 196   0.0000       0.578799        15.7499 
 197   0.0000       0.582339        15.8462 
 198   0.0000       0.590565        16.0701 
 199   0.0000       0.606506        16.5039 
 200   0.0000       0.609744        16.5920 
 201   0.0000       0.622899        16.9500 
 202   0.0000       0.626240        17.0409 
 203   0.0000       0.638439        17.3728 
 204   0.0000       0.641609        17.4591 
 205   0.0000       0.644958        17.5502 
 206   0.0000       0.649010        17.6605 
 207   0.0000       0.653940        17.7946 
 208   0.0000       0.661419        17.9981 
 209   0.0000       0.665560        18.1108 
 210   0.0000       0.672957        18.3121 
 211   0.0000       0.680001        18.5038 
 212   0.0000       0.692518        18.8444 
 213   0.0000       0.695122        18.9152 
 214   0.0000       0.701439        19.0871 
 215   0.0000       0.710656        19.3379 
 216   0.0000       0.711765        19.3681 
 217   0.0000       0.717399        19.5214 
 218   0.0000       0.725360        19.7381 
 219   0.0000       0.727339        19.7919 
 220   0.0000       0.730078        19.8664 
 221   0.0000       0.735369        20.0104 
 222   0.0000       0.739085        20.1115 
 223   0.0000       0.740562        20.1517 
 224   0.0000       0.746327        20.3086 
 225   0.0000       0.748648        20.3717 
 226   0.0000       0.753627        20.5072 
 227   0.0000       0.755772        20.5656 
 228   0.0000       0.761377        20.7181 
 229   0.0000       0.765696        20.8356 
 230   0.0000       0.766597        20.8602 
 231   0.0000       0.777505        21.1570 
 232   0.0000       0.778692        21.1893 
 233   0.0000       0.786326        21.3970 
 234   0.0000       0.788827        21.4651 
 235   0.0000       0.796558        21.6754 
 236   0.0000       0.800212        21.7749 
 237   0.0000       0.806115        21.9355 
 238   0.0000       0.817311        22.2402 
 239   0.0000       0.820193        22.3186 
 240   0.0000       0.822960        22.3939 
 241   0.0000       0.826502        22.4903 
 242   0.0000       0.834965        22.7206 
 243   0.0000       0.840811        22.8796 
 244   0.0000       0.852695        23.2030 
 245   0.0000       0.855894        23.2901 
 246   0.0000       0.861387        23.4395 
 247   0.0000       0.863248        23.4902 
 248   0.0000       0.864221        23.5166 
 249   0.0000       0.868935        23.6449 
 250   0.0000       0.873187        23.7606 
 251   0.0000       0.873658        23.7734 
 252   0.0000       0.877881        23.8884 
 253   0.0000       0.878738        23.9117 
 254   0.0000       0.880633        23.9632 
 255   0.0000       0.886438        24.1212 
 256   0.0000       0.887131        24.1401 
 257   0.0000       0.888481        24.1768 
 258   0.0000       0.893784        24.3211 
 259   0.0000       0.900098        24.4929 
 260   0.0000       0.902141        24.5485 
 261   0.0000       0.906210        24.6592 
 262   0.0000       0.909120        24.7384 
 263   0.0000       0.916604        24.9421 
 264   0.0000       0.920522        25.0487 
 265   0.0000       0.924644        25.1608 
 266   0.0000       0.925913        25.1954 
 267   0.0000       0.928792        25.2737 
 268   0.0000       0.931288        25.3416 
 269   0.0000       0.939290        25.5594 
 270   0.0000       0.943261        25.6674 
 271   0.0000       0.945699        25.7338 
 272   0.0000       0.947783        25.7905 
 273   0.0000       0.951850        25.9012 
 274   0.0000       0.961833        26.1728 
 275   0.0000       0.963616        26.2213 
 276   0.0000       0.970105        26.3979 
 277   0.0000       0.971664        26.4403 
 278   0.0000       0.976337        26.5675 
 279   0.0000       0.980548        26.6821 
 280   0.0000       0.991225        26.9726 
 281   0.0000       0.999333        27.1932 
 282   0.0000       1.006064        27.3764 
 283   0.0000       1.008692        27.4479 
 284   0.0000       1.018615        27.7179 
 285   0.0000       1.021203        27.7884 
 286   0.0000       1.030258        28.0348 
 287   0.0000       1.037576        28.2339 
 288   0.0000       1.038655        28.2632 
 289   0.0000       1.064573        28.9685 
 290   0.0000       1.068910        29.0865 
 291   0.0000       1.077325        29.3155 
 292   0.0000       1.082099        29.4454 
 293   0.0000       1.090005        29.6606 
 294   0.0000       1.093027        29.7428 
 295   0.0000       1.103584        30.0301 
 296   0.0000       1.110855        30.2279 
 297   0.0000       1.140294        31.0290 
 298   0.0000       1.141878        31.0721 
 299   0.0000       1.160379        31.5755 
 300   0.0000       1.162217        31.6255 
 301   0.0000       1.180692        32.1282 
 302   0.0000       1.212508        32.9940 
 303   0.0000       1.214510        33.0485 
 304   0.0000       1.226293        33.3691 
 305   0.0000       1.243387        33.8343 
 306   0.0000       1.254453        34.1354 
 307   0.0000       1.286110        34.9968 
 308   0.0000       1.292828        35.1796 
 309   0.0000       1.308708        35.6117 
 310   0.0000       1.329188        36.1691 
 311   0.0000       1.337796        36.4033 
 312   0.0000       1.354113        36.8473 
 313   0.0000       1.371574        37.3224 
 314   0.0000       1.405979        38.2586 
 315   0.0000       1.491253        40.5790 
 316   0.0000       1.525807        41.5193 
 317   0.0000       1.561773        42.4980 
 318   0.0000       1.605891        43.6985 
 319   0.0000       1.657418        45.1006 
 320   0.0000       6.207772       168.9221 
 321   0.0000       6.239719       169.7914 
 322   0.0000       6.248732       170.0367 
 323   0.0000       6.270351       170.6249 
 324   0.0000       6.286825       171.0732 
 325   0.0000       6.295152       171.2998 
 326   0.0000       6.302825       171.5086 
 327   0.0000       6.311557       171.7462 
 328   0.0000       6.321774       172.0242 
 329   0.0000       6.324473       172.0976 
 330   0.0000       6.341764       172.5682 
 331   0.0000       6.351034       172.8204 
 332   0.0000       6.360342       173.0737 
 333   0.0000       6.377616       173.5437 
 334   0.0000       6.384159       173.7218 
 335   0.0000       6.390530       173.8951 
 336   0.0000       6.392796       173.9568 
 337   0.0000       6.402358       174.2170 
 338   0.0000       6.417626       174.6325 
 339   0.0000       6.422376       174.7617 
 340   0.0000       6.430306       174.9775 
 341   0.0000       6.440612       175.2579 
 342   0.0000       6.453829       175.6176 
 343   0.0000       6.466082       175.9510 
 344   0.0000       6.469252       176.0373 
 345   0.0000       6.475641       176.2111 
 346   0.0000       6.481355       176.3666 
 347   0.0000       6.495041       176.7391 
 348   0.0000       6.508801       177.1135 
 349   0.0000       6.510697       177.1651 
 350   0.0000       6.524076       177.5291 
 351   0.0000       6.534054       177.8007 
 352   0.0000       6.539702       177.9544 
 353   0.0000       6.544581       178.0871 
 354   0.0000       6.547463       178.1655 
 355   0.0000       6.552767       178.3098 
 356   0.0000       6.557444       178.4371 
 357   0.0000       6.561994       178.5609 
 358   0.0000       6.566181       178.6749 
 359   0.0000       6.574638       178.9050 
 360   0.0000       6.585548       179.2019 
 361   0.0000       6.592578       179.3932 
 362   0.0000       6.593961       179.4308 
 363   0.0000       6.600329       179.6041 
 364   0.0000       6.606817       179.7806 
 365   0.0000       6.608258       179.8199 
 366   0.0000       6.612818       179.9439 
 367   0.0000       6.615382       180.0137 
 368   0.0000       6.618715       180.1044 
 369   0.0000       6.620145       180.1433 
 370   0.0000       6.622593       180.2099 
 371   0.0000       6.628425       180.3686 
 372   0.0000       6.631551       180.4537 
 373   0.0000       6.634805       180.5422 
 374   0.0000       6.640955       180.7096 
[...]
     69 H        0.000      0.000      0.000      0.000      0.000      0.000
     70 H        0.000      0.000      0.000      0.000      0.003      0.037
     71 H        0.000      0.000      0.000     -0.000      0.001      0.020
     72 H        0.000      0.000      0.000      0.000      0.001      0.016
                 25 H       27 H       28 H       30 H       31 H       33 H  
      3 H        2.488     -0.105      0.072      0.000      0.000      2.400
      4 H        0.113     -0.004      0.004      0.008      0.000      0.100
      8 H       -0.342      0.012      0.000      0.000      0.000     -0.311
      9 H        0.000      0.000      0.000      0.000      0.000      0.136
     10 H        0.000      0.000      0.000      0.000      0.000      0.000
     11 H        0.000      0.000      0.000      0.000      0.000      0.000
     13 H       -0.101      0.004     -0.004      0.000      0.000     -0.104
     16 H       -0.373      0.012     -0.007     -0.022     -0.001     -0.342
     17 H       -0.364      0.011      0.000      0.000      0.000     -0.316
     19 H        0.934     -0.048      0.023      0.088      0.007      1.152
     21 H       -2.819      0.200      0.633     -0.219     -0.027     -2.606
     24 H      -14.079      4.321      2.303      0.737     -0.496     -0.149
     25 H        0.000     13.032      5.238     -0.618     -0.352     -2.356
     27 H       13.032      0.000    -13.578      3.966     13.015      0.069
     28 H        5.238    -13.578      0.000      2.697      4.108      0.275
     30 H       -0.618      3.966      2.697      0.000    -12.978      0.014
     31 H       -0.352     13.015      4.108    -12.978      0.000     -0.307
     33 H       -2.356      0.069      0.275      0.014     -0.307      0.000
     35 H        0.000      0.000      0.000      0.000      0.000      0.000
     37 H        0.266      0.007     -0.034      0.539     -0.041      6.278
     38 H        0.195      0.002     -0.029     -0.021      0.118     12.239
     40 H       -0.014      0.022      0.143     -0.003     -0.038     -0.238
     41 H        0.013      0.020     -0.029      0.012      0.088     -0.387
     42 H       -0.019      0.007     -0.006     -0.268     -0.396     -0.210
     45 H       -0.012     -0.193      0.034     -0.205     -0.487     -0.156
     46 H        0.015      0.045      0.064     -0.340      0.037      0.903
     47 H       -0.059     -0.111     -0.143     -0.176      1.786     -0.481
     48 H       -0.015      0.030      0.021      0.036      0.019     -0.002
     52 H       -0.002     -0.000      0.010     -0.009      0.002      0.017
     53 H       -0.000      0.000     -0.001      0.000     -0.000     -0.002
     57 H        0.000      0.000      0.000     -0.001     -0.000     -0.000
     58 H        0.000      0.000      0.000      0.000      0.000     -0.000
     61 H        0.000      0.000      0.000      0.000      0.000      0.000
     62 H        0.000      0.000      0.000      0.000      0.000      0.000
     63 H        0.000      0.000      0.000      0.000      0.000      0.000
     64 H        0.000      0.000      0.000      0.000     -0.000     -0.000
     65 H       -0.000      0.000      0.000     -0.000     -0.000      0.000
     66 H        0.000      0.000      0.000     -0.000      0.000      0.000
     67 H        0.000      0.000      0.000      0.000      0.000      0.000
     68 H        0.000      0.000      0.000      0.000      0.000      0.000
     69 H        0.000      0.000      0.000      0.000      0.000      0.000
     70 H        0.001     -0.008     -0.011      0.055     -0.062      0.008
     71 H        0.003     -0.003     -0.007     -0.457     -0.101      0.005
     72 H        0.000     -0.006     -0.006      0.043      0.001      0.002
                 35 H       37 H       38 H       40 H       41 H       42 H  
      3 H       -0.082     -0.044     -0.041      0.000      0.000      0.000
      4 H       -0.168     -0.002     -0.002      0.000      0.000      0.000
      8 H        0.021      0.006      0.004      0.000      0.001      0.000
      9 H       -0.091     -0.002     -0.001      0.000     -0.000      0.000
     10 H       -0.178      0.000     -0.002      0.000      0.000      0.000
     11 H       -0.101     -0.000     -0.000      0.000      0.000      0.000
     13 H       13.778      0.002      0.001      0.000      0.000      0.000
     16 H        0.005      0.007      0.002     -0.001      0.001     -0.001
     17 H        0.007      0.005      0.005     -0.000      0.002      0.000
     19 H       -0.004     -0.010      0.113      0.004     -0.010      0.006
     21 H       -0.004      0.035     -0.500     -0.010      0.059     -0.026
     24 H       -0.001     -0.051     -0.078     -0.021      0.071     -0.025
     25 H        0.000      0.266      0.195     -0.014      0.013     -0.019
     27 H        0.000      0.007      0.002      0.022      0.020      0.007
     28 H        0.000     -0.034     -0.029      0.143     -0.029     -0.006
     30 H        0.000      0.539     -0.021     -0.003      0.012     -0.268
     31 H        0.000     -0.041      0.118     -0.038      0.088     -0.396
     33 H        0.000      6.278     12.239     -0.238     -0.387     -0.210
     35 H        0.000      0.000      0.000      0.000      0.000      0.000
     37 H        0.000      0.000    -12.090      9.426      2.298     -0.251
     38 H        0.000    -12.090      0.000      7.081     11.290     -0.453
     40 H        0.000      9.426      7.081      0.000    -13.967      9.562
     41 H        0.000      2.298     11.290    -13.967      0.000      8.162
     42 H        0.000     -0.251     -0.453      9.562      8.162      0.000
     45 H        0.000      0.057      0.036     -0.070      0.018      0.955
     46 H        0.000     -0.174      0.003      0.042      0.033     -0.399
     47 H        0.000      0.087     -0.075     -0.099     -0.041     -0.107
     48 H        0.000      0.138      0.003     -0.165     -0.455     10.594
     52 H        0.000     -0.007      0.000     -0.025      0.063     -0.567
     53 H        0.000      0.008      0.012     -0.246     -0.027     -0.430
     57 H        0.000     -0.003     -0.006      0.007      0.012      0.052
     58 H        0.000      0.000      0.000      0.000     -0.001      0.000
     61 H        0.000     -0.000     -0.000     -0.001      0.000      0.003
     62 H        0.000     -0.000     -0.000      0.002      0.000     -0.006
     63 H        0.000      0.000      0.000     -0.001     -0.000     -0.000
     64 H        0.000     -0.000      0.000     -0.000     -0.000     -0.000
     65 H        0.000      0.000      0.000     -0.001     -0.001     -0.002
     66 H        0.000     -0.000     -0.000     -0.000      0.000     -0.001
     67 H        0.000      0.000      0.000     -0.000     -0.000      0.000
     68 H        0.000      0.000      0.000     -0.000      0.000      0.001
     69 H        0.000      0.000      0.000      0.000      0.001     -0.001
     70 H        0.000      0.062      0.011     -0.040     -0.014     -0.434
     71 H        0.000     -0.016     -0.002      0.037     -0.000     -0.159
     72 H        0.000     -0.024      0.032     -0.001     -0.070     -0.351
                 45 H       46 H       47 H       48 H       52 H       53 H  
      3 H       -0.024      0.000      0.000      0.000      0.000      0.000
      4 H       -0.001     -0.001      0.001      0.000      0.000      0.000
      8 H        0.003      0.002     -0.004      0.000      0.000      0.000
      9 H       -0.001      0.000      0.001      0.000      0.000      0.000
     10 H       -0.001      0.000      0.000      0.000      0.000      0.000
     11 H       -0.000      0.000      0.000      0.000      0.000      0.000
     13 H        0.001      0.001     -0.001      0.000      0.000      0.000
     16 H        0.003      0.003     -0.004      0.000      0.000      0.000
     17 H        0.003      0.000     -0.004      0.000      0.000      0.000
     19 H       -0.011     -0.008      0.011      0.006      0.000      0.000
     21 H        0.038      0.015     -0.019     -0.016      0.003     -0.000
     24 H       -0.022     -0.016     -0.023      0.003      0.000     -0.000
     25 H       -0.012      0.015     -0.059     -0.015     -0.002     -0.000
     27 H       -0.193      0.045     -0.111      0.030     -0.000      0.000
     28 H        0.034      0.064     -0.143      0.021      0.010     -0.001
     30 H       -0.205     -0.340     -0.176      0.036     -0.009      0.000
     31 H       -0.487      0.037      1.786      0.019      0.002     -0.000
     33 H       -0.156      0.903     -0.481     -0.002      0.017     -0.002
     35 H        0.000      0.000      0.000      0.000      0.000      0.000
     37 H        0.057     -0.174      0.087      0.138     -0.007      0.008
     38 H        0.036      0.003     -0.075      0.003      0.000      0.012
     40 H       -0.070      0.042     -0.099     -0.165     -0.025     -0.246
     41 H        0.018      0.033     -0.041     -0.455      0.063     -0.027
     42 H        0.955     -0.399     -0.107     10.594     -0.567     -0.430
     45 H        0.000    -12.887    -13.568     -0.140      0.013      0.002
     46 H      -12.887      0.000    -12.972     -0.044      0.010     -0.004
     47 H      -13.568    -12.972      0.000     -0.233      0.015     -0.000
     48 H       -0.140     -0.044     -0.233      0.000      5.893     -1.979
     52 H        0.013      0.010      0.015      5.893      0.000     17.531
     53 H        0.002     -0.004     -0.000     -1.979     17.531      0.000
     57 H        0.000      0.006      0.003      2.335     -2.140      5.492
     58 H        0.000     -0.000     -0.000     -0.090      0.152     -0.189
     61 H        0.001      0.000      0.000     -0.029     -0.177     -0.384
     62 H        0.000      0.000      0.000      0.030     -0.219     -0.540
     63 H        0.000      0.000      0.002      0.106     -0.253      0.659
     64 H        0.000      0.000      0.000     -0.016      0.121      0.119
     65 H        0.001      0.000      0.000      0.005      0.035     -0.110
     66 H        0.000      0.000     -0.000      0.012      0.020     -0.033
     67 H        0.000      0.000      0.000     -0.006      0.017      0.006
     68 H        0.000      0.000      0.000      0.016     -0.012      0.039
     69 H        0.000      0.000      0.000      0.050     -0.081      0.033
     70 H       -0.026     -0.017     -0.012      1.862     -0.223     -0.049
     71 H       -0.072     -0.317     -0.029      5.585     -0.017     -0.399
     72 H       -0.033     -0.060      0.023     12.332     -0.242      0.139
                 57 H       58 H       61 H       62 H       63 H       64 H  
      3 H        0.000      0.000      0.000      0.000      0.000      0.000
      4 H        0.000      0.000      0.000      0.000      0.000      0.000
      8 H        0.000      0.000      0.000      0.000      0.000      0.000
      9 H        0.000      0.000      0.000      0.000      0.000      0.000
     10 H        0.000      0.000      0.000      0.000      0.000      0.000
     11 H        0.000      0.000      0.000      0.000      0.000      0.000
     13 H        0.000      0.000      0.000      0.000      0.000      0.000
     16 H        0.000      0.000      0.000      0.000      0.000      0.000
     17 H        0.000      0.000      0.000      0.000      0.000      0.000
     19 H        0.000      0.000      0.000      0.000      0.000      0.000
     21 H        0.000      0.000      0.000      0.000      0.000      0.000
     24 H        0.000      0.000      0.000      0.000      0.000      0.000
     25 H        0.000      0.000      0.000      0.000      0.000      0.000
     27 H        0.000      0.000      0.000      0.000      0.000      0.000
     28 H        0.000      0.000      0.000      0.000      0.000      0.000
     30 H       -0.001      0.000      0.000      0.000      0.000      0.000
     31 H       -0.000      0.000      0.000      0.000      0.000     -0.000
     33 H       -0.000     -0.000      0.000      0.000      0.000     -0.000
     35 H        0.000      0.000      0.000      0.000      0.000      0.000
     37 H       -0.003      0.000     -0.000     -0.000      0.000     -0.000
     38 H       -0.006      0.000     -0.000     -0.000      0.000      0.000
     40 H        0.007      0.000     -0.001      0.002     -0.001     -0.000
     41 H        0.012     -0.001      0.000      0.000     -0.000     -0.000
     42 H        0.052      0.000      0.003     -0.006     -0.000     -0.000
     45 H        0.000      0.000      0.001      0.000      0.000      0.000
     46 H        0.006     -0.000      0.000      0.000      0.000      0.000
     47 H        0.003     -0.000      0.000      0.000      0.002      0.000
     48 H        2.335     -0.090     -0.029      0.030      0.106     -0.016
     52 H       -2.140      0.152     -0.177     -0.219     -0.253      0.121
     53 H        5.492     -0.189     -0.384     -0.540      0.659      0.119
     57 H        0.000      9.812      2.031     12.744      5.012     -0.435
     58 H        9.812      0.000     -0.435     -0.383     -0.212      2.450
     61 H        2.031     -0.435      0.000    -12.444    -13.398      0.721
     62 H       12.744     -0.383    -12.444      0.000    -12.716     -0.021
     63 H        5.012     -0.212    -13.398    -12.716      0.000      0.010
     64 H       -0.435      2.450      0.721     -0.021      0.010      0.000
     65 H       -0.209      4.206      0.006      0.061      0.030    -12.998
     66 H       -0.406     12.666     -0.055      0.032      0.044    -12.813
     67 H       -0.369     12.778      0.021      0.080     -0.007     -0.224
     68 H       -0.242      4.249      0.017     -0.020     -0.228      0.204
     69 H       -0.470      2.392     -0.082      0.009     -0.002     -0.280
     70 H       -0.002     -0.005     -0.003      0.000     -0.001     -0.001
     71 H        0.270     -0.038     -0.018     -0.006     -0.012     -0.003
     72 H       -0.102      0.005      0.002      0.000     -0.002      0.001
                 65 H       66 H       67 H       68 H       69 H       70 H  
      3 H        0.000      0.000      0.000      0.000      0.000      0.000
      4 H        0.000      0.000      0.000      0.000      0.000      0.000
      8 H        0.000      0.000      0.000      0.000      0.000      0.000
      9 H        0.000      0.000      0.000      0.000      0.000      0.000
     10 H        0.000      0.000      0.000      0.000      0.000      0.000
     11 H        0.000      0.000      0.000      0.000      0.000      0.000
     13 H        0.000      0.000      0.000      0.000      0.000      0.000
     16 H        0.000      0.000      0.000      0.000      0.000      0.000
     17 H        0.000      0.000      0.000      0.000      0.000      0.000
     19 H        0.000      0.000      0.000      0.000      0.000      0.000
     21 H        0.000      0.000      0.000      0.000      0.000      0.003
     24 H        0.000      0.000      0.000      0.000      0.000      0.037
     25 H       -0.000      0.000      0.000      0.000      0.000      0.001
     27 H        0.000      0.000      0.000      0.000      0.000     -0.008
     28 H        0.000      0.000      0.000      0.000      0.000     -0.011
     30 H       -0.000     -0.000      0.000      0.000      0.000      0.055
     31 H       -0.000      0.000      0.000      0.000      0.000     -0.062
     33 H        0.000      0.000      0.000      0.000      0.000      0.008
     35 H        0.000      0.000      0.000      0.000      0.000      0.000
     37 H        0.000     -0.000      0.000      0.000      0.000      0.062
     38 H        0.000     -0.000      0.000      0.000      0.000      0.011
     40 H       -0.001     -0.000     -0.000     -0.000      0.000     -0.040
     41 H       -0.001      0.000     -0.000      0.000      0.001     -0.014
     42 H       -0.002     -0.001      0.000      0.001     -0.001     -0.434
     45 H        0.001      0.000      0.000      0.000      0.000     -0.026
     46 H        0.000      0.000      0.000      0.000      0.000     -0.017
     47 H        0.000     -0.000      0.000      0.000      0.000     -0.012
     48 H        0.005      0.012     -0.006      0.016      0.050      1.862
     52 H        0.035      0.020      0.017     -0.012     -0.081     -0.223
     53 H       -0.110     -0.033      0.006      0.039      0.033     -0.049
     57 H       -0.209     -0.406     -0.369     -0.242     -0.470     -0.002
     58 H        4.206     12.666     12.778      4.249      2.392     -0.005
     61 H        0.006     -0.055      0.021      0.017     -0.082     -0.003
     62 H        0.061      0.032      0.080     -0.020      0.009      0.000
     63 H        0.030      0.044     -0.007     -0.228     -0.002     -0.001
     64 H      -12.998    -12.813     -0.224      0.204     -0.280     -0.001
     65 H        0.000    -12.081     -0.378      2.903      0.150     -0.000
     66 H      -12.081      0.000     -0.286     -0.380     -0.227      0.001
     67 H       -0.378     -0.286      0.000    -12.071    -12.816      0.001
     68 H        2.903     -0.380    -12.071      0.000    -13.097     -0.000
     69 H        0.150     -0.227    -12.816    -13.097      0.000      0.009
     70 H       -0.000      0.001      0.001     -0.000      0.009      0.000
     71 H       -0.000      0.008      0.000     -0.002      0.000    -13.356
     72 H       -0.005     -0.002      0.001     -0.000     -0.007    -13.020
                 71 H       72 H  
      3 H        0.000      0.000
      4 H        0.000      0.000
      8 H        0.000      0.000
      9 H        0.000      0.000
     10 H        0.000      0.000
     11 H        0.000      0.000
     13 H        0.000      0.000
     16 H        0.000      0.000
     17 H        0.000      0.000
     19 H       -0.000      0.000
     21 H        0.001      0.001
     24 H        0.020      0.016
     25 H        0.003      0.000
     27 H       -0.003     -0.006
     28 H       -0.007     -0.006
     30 H       -0.457      0.043
     31 H       -0.101      0.001
     33 H        0.005      0.002
     35 H        0.000      0.000
     37 H       -0.016     -0.024
     38 H       -0.002      0.032
     40 H        0.037     -0.001
     41 H       -0.000     -0.070
     42 H       -0.159     -0.351
     45 H       -0.072     -0.033
     46 H       -0.317     -0.060
     47 H       -0.029      0.023
     48 H        5.585     12.332
     52 H       -0.017     -0.242
     53 H       -0.399      0.139
     57 H        0.270     -0.102
     58 H       -0.038      0.005
     61 H       -0.018      0.002
     62 H       -0.006      0.000
     63 H       -0.012     -0.002
     64 H       -0.003      0.001
     65 H       -0.000     -0.005
     66 H        0.008     -0.002
     67 H        0.000      0.001
     68 H       -0.002     -0.000
     69 H        0.000     -0.007
     70 H      -13.356    -13.020
     71 H        0.000    -11.504
     72 H      -11.504      0.000

Maximum memory used throughout the entire EPRNMR-calculation: 968.4 MB

Timings for individual modules:

Sum of individual times         ...      410.970 sec (=   6.849 min)
GTO integral calculation        ...        0.685 sec (=   0.011 min)   0.2 %
SCF iterations                  ...      104.879 sec (=   1.748 min)  25.5 %
EPR/NMR calculation             ...      305.406 sec (=   5.090 min)  74.3 %
                             ****ORCA TERMINATED NORMALLY****
TOTAL RUN TIME: 0 days 0 hours 6 minutes 51 seconds 368 msec
