
                                 *****************
                                 * O   R   C   A *
                                 *****************

                                            #,                                       
                                            ###                                      
                                            ####                                     
                                            #####                                    
                                            ######                                   
                                           ########,                                 
                                     ,,################,,,,,                         
                               ,,#################################,,                 
                          ,,##########################################,,             
                       ,#########################################, ''#####,          
                    ,#############################################,,   '####,        
                  ,##################################################,,,,####,       
                ,###########''''           ''''###############################       
              ,#####''   ,,,,##########,,,,          '''####'''          '####       
            ,##' ,,,,###########################,,,                        '##       
           ' ,,###''''                  '''############,,,                           
         ,,##''                                '''############,,,,        ,,,,,,###''
      ,#''                                            '''#######################'''  
     '                                                          ''''####''''         
             ,#######,   #######,   ,#######,      ##                                
            ,#'     '#,  ##    ##  ,#'     '#,    #''#        ,####,   ,####,        
            ##       ##  ##   ,#'  ##            #'  '#       #'       #'  '#        
            ##       ##  #######   ##           ,######,      #####,   #    #        
            '#,     ,#'  ##    ##  '#,     ,#' ,#      #,     #,   #   #,  ,#        
             '#######'   ##     ##  '#######'  #'      '#     '####' # '####'        



                #########################################################
                #                        -***-                          #
                #          Department of theory and spectroscopy        #
                #                                                       #
                #                      Frank Neese                      #
                #                                                       #
                #     Directorship, Architecture, Infrastructure        #
                #                    SHARK, DRIVERS                     #
                #        Core code/Algorithms in most modules           #
                #                                                       #
                #        Max Planck Institute fuer Kohlenforschung      #
                #                Kaiser Wilhelm Platz 1                 #
                #                 D-45470 Muelheim/Ruhr                 #
                #                      Germany                          #
                #                                                       #
                #                  All rights reserved                  #
                #                        -***-                          #
                #########################################################


                         Program Version 6.0.0  -   RELEASE  -


 With contributions from (in alphabetic order):
   Daniel Aravena         : Magnetic Suceptibility
   Michael Atanasov       : Ab Initio Ligand Field Theory (pilot matlab implementation)
   Alexander A. Auer      : GIAO ZORA, VPT2 properties, NMR spectrum
   Ute Becker             : All parallelization in ORCA, NUMFREQ, NUMCALC
   Giovanni Bistoni       : ED, misc. LED, open-shell LED, HFLD
   Martin Brehm           : Molecular dynamics
   Dmytro Bykov           : pre 5.0 version of the SCF Hessian
   Marcos Casanova-Páez   : Triplet and SCS-CIS(D). UHF-(DLPNO)-IP/EA/STEOM-CCSD. UHF-CVS-IP/STEOM-CCSD
   Vijay G. Chilkuri      : MRCI spin determinant printing, contributions to CSF-ICE
   Pauline Colinet        : FMM embedding
   Dipayan Datta          : RHF DLPNO-CCSD density
   Achintya Kumar Dutta   : EOM-CC, STEOM-CC
   Nicolas Foglia         : Exact transition moments, OPA infrastructure, MCD improvements
   Dmitry Ganyushin       : Spin-Orbit,Spin-Spin,Magnetic field MRCI
   Miquel Garcia          : C-PCM and meta-GGA Hessian, CCSD/C-PCM, Gaussian charge scheme
   Tiago L. C. Gouveia    : GS-ROHF, GS-ROCIS
   Yang Guo               : DLPNO-NEVPT2, F12-NEVPT2, CIM, IAO-localization
   Andreas Hansen         : Spin unrestricted coupled pair/coupled cluster methods
   Ingolf Harden          : AUTO-CI MPn and infrastructure 
   Benjamin Helmich-Paris : MC-RPA, TRAH-(SCF,CASSCF), AVAS, COSX integrals, SCF dyn. polar.
   Lee Huntington         : MR-EOM, pCC
   Robert Izsak           : Overlap fitted RIJCOSX, COSX-SCS-MP3, EOM
   Riya Kayal             : Wick's Theorem for AUTO-CI, AUTO-CI UHF-CCSDT
   Emily Kempfer          : AUTO-CI, RHF CISDT and CCSDT
   Christian Kollmar      : KDIIS, OOCD, Brueckner-CCSD(T), CCSD density, CASPT2, CASPT2-K, improved NEVPT2
   Axel Koslowski         : Symmetry handling
   Simone Kossmann        : Meta GGA functionals, TD-DFT gradient, OOMP2, (MP2 Hessian; deprecated post 5.0)
   Lucas Lang             : DCDCAS
   Marvin Lechner         : AUTO-CI (C++ implementation), FIC-MRCC
   Spencer Leger          : CASSCF response
   Dagmar Lenk            : GEPOL surface, SMD, ORCA-2-JSON
   Dimitrios Liakos       : Extrapolation schemes; Compound Job, initial MDCI parallelization
   Dimitrios Manganas     : Further ROCIS development; embedding schemes. LFT, Crystal Embedding
   Dimitrios Pantazis     : SARC Basis sets
   Anastasios Papadopoulos: AUTO-CI, single reference methods and gradients
   Taras Petrenko         : pre 6.0 DFT Hessian and TD-DFT gradient, (ASA, deprecated), ECA, 1-Electron XAS/XES, NRVS
   Peter Pinski           : DLPNO-MP2, DLPNO-MP2 Gradient
   Christoph Reimann      : Effective Core Potentials
   Marius Retegan         : Local ZFS, SOC
   Christoph Riplinger    : Optimizer, TS searches, QM/MM, DLPNO-CCSD(T), (RO)-DLPNO pert. Triples
   Michael Roemelt        : Original ROCIS implementation
   Masaaki Saitow         : Open-shell DLPNO-CCSD energy and density
   Barbara Sandhoefer     : DKH picture change effects
   Kantharuban Sivalingam : CASSCF convergence/infrastructure, NEVPT2 and variants, FIC-MRCI
   Bernardo de Souza      : ESD, SOC TD-DFT
   Georgi Stoychev        : AutoAux, RI-MP2 NMR, DLPNO-MP2 response, X2C
   Van Anh Tran           : RI-MP2 g-tensors
   Willem Van den Heuvel  : Paramagnetic NMR
   Zikuan Wang            : NOTCH, Electric field optimization 
   Frank Wennmohs         : Technical directorship and infrastructure
   Hang Xu                : AUTO-CI-Response properties 


 We gratefully acknowledge several colleagues who have allowed us to
 interface, adapt or use parts of their codes:
   Stefan Grimme, W. Hujo, H. Kruse, P. Pracht,  : VdW corrections, initial TS optimization,
                  C. Bannwarth, S. Ehlert,         DFT functionals, gCP, sTDA/sTD-DF
                  L. Wittmann, M. Mueller
   Ed Valeev, F. Pavosevic, A. Kumar             : LibInt (2-el integral package), F12 methods
   Garnet Chan, S. Sharma, J. Yang, R. Olivares  : DMRG
   Ulf Ekstrom                                   : XCFun DFT Library
   Mihaly Kallay                                 : mrcc  (arbitrary order and MRCC methods)
   Frank Weinhold                                : gennbo (NPA and NBO analysis)
   Simon Mueller                                 : openCOSMO-RS
   Christopher J. Cramer and Donald G. Truhlar   : smd solvation model
   Lars Goerigk                                  : TD-DFT with DH, B97 family of functionals
   V. Asgeirsson, H. Jonsson                     : NEB implementation
   FAccTs GmbH                                   : IRC, NEB, NEB-TS, DLPNO-Multilevel, CI-OPT
                                                   MM, QMMM, 2- and 3-layer-ONIOM, Crystal-QMMM,
                                                   LR-CPCM, SF, NACMEs, symmetry and pop. for TD-DFT,
                                                   nearIR, NL-DFT gradient (VV10), updates on ESD,
                                                   ML-optimized integration grids, MBIS, APM,
                                                   GOAT, DOCKER, SOLVATOR, interface openCOSMO-RS
   S Lehtola, MJT Oliveira, MAL Marques          : LibXC Library
   Liviu Ungur et al                             : ANISO software


 Your calculation uses the libint2 library for the computation of 2-el integrals
 For citations please refer to: http://libint.valeyev.net

 Your ORCA version has been built with support for libXC version: 6.2.2
 For citations please refer to: https://libxc.gitlab.io

 This ORCA versions uses:
   CBLAS   interface :  Fast vector & matrix operations
   LAPACKE interface :  Fast linear algebra routines
   SCALAPACK package :  Parallel linear algebra routines
   Shared memory     :  Shared parallel matrices
   BLAS/LAPACK       :  OpenBLAS 0.3.27  USE64BITINT DYNAMIC_ARCH NO_AFFINITY Zen SINGLE_THREADED
        Core in use  :  Zen
   Copyright (c) 2011-2014, The OpenBLAS Project


NOTE: MaxCore=8000 MB was set to SCF,MP2,MDCI,CIPSI,MRCI and CIS
      => If you want to overwrite this, your respective input block should be placed after the MaxCore statement
Your calculation utilizes the atom-pairwise dispersion correction
based on EEQ partial charges (D4)


================================================================================

----- Orbital basis set information -----
Your calculation utilizes the basis: def2-SVP
   F. Weigend and R. Ahlrichs, Phys. Chem. Chem. Phys. 7, 3297 (2005).

----- AuxJ basis set information -----
Your calculation utilizes the auxiliary basis: def2/J
   F. Weigend, Phys. Chem. Chem. Phys. 8, 1057 (2006).

================================================================================
                                        WARNINGS
                       Please study these warnings very carefully!
================================================================================

WARNING: Old DensityContainer found on disk!
         Will remove this file - 
         If you want to keep old densities, please start your calculation with a different basename. 


================================================================================
                                       INPUT FILE
================================================================================
NAME = inpS
|  1> ! wb97x-d4
|  2> ! def2-svp
|  3> ! def2/J RIJCOSX
|  4> ! DEFGRID2
|  5> ! scfconv7
|  6> ! smallprint printgap noloewdin
|  7> ! NOSOSCF
|  8> %MaxCore 8000
|  9> %output
| 10>        print[P_BondOrder_M] 1
| 11>        print[P_Mayer] 1
| 12>        print[P_basis] 2
| 13> end
| 14> %pal
| 15>     nprocs 4
| 16> end
| 17> ! CPCM(chloroform)
| 18> *xyz 0 1
| 19> C   -5.0234418400   0.2991997900   0.3423899600
| 20> C   -6.4308484400  -0.1370136400   0.0094722500
| 21> C   -6.9847601700   0.6122833400  -1.2084822400
| 22> H   -7.0950027100   0.0888144100   0.8611244100
| 23> H   -6.4694997300  -1.2175223000  -0.1671469000
| 24> C   -4.8510591200   1.7641728200   0.4439410500
| 25> C   -5.4498126400   2.5454699800  -0.7038783700
| 26> C   -6.8961790600   2.1182994500  -0.9891593000
| 27> H   -4.8475965600   2.3545012800  -1.6051776100
| 28> H   -5.3978651000   3.6197530200  -0.4978809300
| 29> H   -7.2804909500   2.6436508400  -1.8713654400
| 30> H   -7.5357727700   2.3877863000  -0.1350438400
| 31> O   -8.3226469500   0.1948606600  -1.5098073800
| 32> H   -6.3961666500   0.3379559200  -2.0952164300
| 33> C   -4.0284347200  -0.6090240300   0.4792191600
| 34> C   -4.2576169500   2.3651915300   1.4816043000
| 35> H   -3.8554685500   1.7929420700   2.3129718100
| 36> H   -4.1707987100   3.4482814200   1.5260510400
| 37> C   -2.6295845000  -0.3230259800   0.6994567800
| 38> H   -4.3137878200  -1.6544725100   0.3702634300
| 39> C   -1.6490928100  -1.2280763900   0.9071876700
| 40> H   -2.3509795300   0.7281579000   0.6821908900
| 41> C   -1.8359981500  -2.7209154000   1.0086633100
| 42> C   -0.8995339000  -3.4820338300   0.0511036500
| 43> H   -2.8722681500  -3.0229176700   0.8338766300
| 44> H   -1.5888586500  -3.0206767600   2.0398148900
| 45> C    0.5648375200  -3.0387397800   0.1772838800
| 46> H   -1.2439936600  -3.3333007300  -0.9800420400
| 47> H   -0.9758207500  -4.5575472500   0.2529181800
| 48> C    0.7173819300  -1.5197835000   0.0176997700
| 49> H    1.1644561000  -3.5794506000  -0.5623584900
| 50> H    0.9453168700  -3.3238984700   1.1697860500
| 51> C   -0.2111723000  -0.8426292100   1.0749196800
| 52> H    0.1135046500  -1.2712565000   2.0413310500
| 53> C    0.2182285500   0.6215765500   1.0682900500
| 54> H   -8.8773439500   0.4253716200  -0.7525572100
| 55> C    1.7476881700   0.5500573800   0.8350484600
| 56> H   -0.0472898900   1.1316437500   2.0003073200
| 57> H   -0.2688284300   1.1664038900   0.2518917800
| 58> C    2.0848880300  -0.9216597700   0.4505618500
| 59> H    2.3119497300   0.8561471500   1.7215711900
| 60> H    2.0530817500   1.2261777900   0.0277467700
| 61> H    2.3846754300  -1.4635142200   1.3626112000
| 62> C    3.2731747700  -0.9912383000  -0.5301444700
| 63> C    0.3492312100  -1.0743152600  -1.4038066000
| 64> H   -0.7145956400  -1.2295589500  -1.6079390500
| 65> H    0.9222729400  -1.6398617100  -2.1468997700
| 66> H    0.5598996300  -0.0116110000  -1.5601818200
| 67> H    3.0063419400  -0.4279183700  -1.4367781600
| 68> C    3.6506595900  -2.4244121400  -0.9349173400
| 69> C    4.4717076700  -0.3235990400   0.0895216300
| 70> C    5.0960304600   0.7480028300  -0.3969193300
| 71> H    4.8455343900  -0.7842453500   1.0097806300
| 72> H    4.7091248500   1.2076626200  -1.3102839000
| 73> C    6.2868083200   1.4163993600   0.2305367800
| 74> C    5.9428679500   2.8681114400   0.5964266500
| 75> C    7.5608605900   1.3298972600  -0.6517448900
| 76> H    6.5196456700   0.8790893000   1.1622832200
| 77> H    8.3466636800   1.8683256900  -0.0994144000
| 78> C    7.4073238700   2.0007590200  -2.0196268000
| 79> C    8.0131371000  -0.1216144200  -0.8203267900
| 80> H    5.1436774100   2.8947811500   1.3446599300
| 81> H    5.5949553900   3.4287484600  -0.2780708200
| 82> H    6.8176195400   3.3863454000   1.0068309700
| 83> H    8.3585197000   1.9703130300  -2.5624787500
| 84> H    7.1066600700   3.0499803700  -1.9358102500
| 85> H    6.6622600600   1.4805146800  -2.6328855600
| 86> H    7.2688725600  -0.6949638200  -1.3857092700
| 87> H    8.1465202400  -0.6123143000   0.1507893600
| 88> H    8.9636553900  -0.1732172300  -1.3630123900
| 89> H    4.5779135100  -2.4208504600  -1.5180276600
| 90> H    2.8728804400  -2.8908588500  -1.5447503800
| 91> H    3.8097588100  -3.0497900100  -0.0479075500
| 92> *
| 93> %eprnmr
| 94>  Nuclei = all C { shift }
| 95>  origin giao
| 96>  giao_2el giao_2el_same_as_scf
| 97>  giao_1el giao_1el_analytic
| 98> end
| 99> 
|100>                          ****END OF INPUT****
================================================================================

                       ****************************
                       * Single Point Calculation *
                       ****************************

---------------------------------
CARTESIAN COORDINATES (ANGSTROEM)
---------------------------------
  C     -5.023442    0.299200    0.342390
  C     -6.430848   -0.137014    0.009472
  C     -6.984760    0.612283   -1.208482
  H     -7.095003    0.088814    0.861124
  H     -6.469500   -1.217522   -0.167147
  C     -4.851059    1.764173    0.443941
  C     -5.449813    2.545470   -0.703878
  C     -6.896179    2.118299   -0.989159
  H     -4.847597    2.354501   -1.605178
  H     -5.397865    3.619753   -0.497881
  H     -7.280491    2.643651   -1.871365
  H     -7.535773    2.387786   -0.135044
  O     -8.322647    0.194861   -1.509807
  H     -6.396167    0.337956   -2.095216
  C     -4.028435   -0.609024    0.479219
  C     -4.257617    2.365192    1.481604
  H     -3.855469    1.792942    2.312972
  H     -4.170799    3.448281    1.526051
  C     -2.629584   -0.323026    0.699457
  H     -4.313788   -1.654473    0.370263
  C     -1.649093   -1.228076    0.907188
  H     -2.350980    0.728158    0.682191
  C     -1.835998   -2.720915    1.008663
  C     -0.899534   -3.482034    0.051104
  H     -2.872268   -3.022918    0.833877
  H     -1.588859   -3.020677    2.039815
  C      0.564838   -3.038740    0.177284
  H     -1.243994   -3.333301   -0.980042
  H     -0.975821   -4.557547    0.252918
  C      0.717382   -1.519783    0.017700
  H      1.164456   -3.579451   -0.562358
  H      0.945317   -3.323898    1.169786
  C     -0.211172   -0.842629    1.074920
  H      0.113505   -1.271256    2.041331
  C      0.218229    0.621577    1.068290
  H     -8.877344    0.425372   -0.752557
  C      1.747688    0.550057    0.835048
  H     -0.047290    1.131644    2.000307
  H     -0.268828    1.166404    0.251892
  C      2.084888   -0.921660    0.450562
  H      2.311950    0.856147    1.721571
  H      2.053082    1.226178    0.027747
  H      2.384675   -1.463514    1.362611
  C      3.273175   -0.991238   -0.530144
  C      0.349231   -1.074315   -1.403807
  H     -0.714596   -1.229559   -1.607939
  H      0.922273   -1.639862   -2.146900
  H      0.559900   -0.011611   -1.560182
  H      3.006342   -0.427918   -1.436778
  C      3.650660   -2.424412   -0.934917
  C      4.471708   -0.323599    0.089522
  C      5.096030    0.748003   -0.396919
  H      4.845534   -0.784245    1.009781
  H      4.709125    1.207663   -1.310284
  C      6.286808    1.416399    0.230537
  C      5.942868    2.868111    0.596427
  C      7.560861    1.329897   -0.651745
  H      6.519646    0.879089    1.162283
  H      8.346664    1.868326   -0.099414
  C      7.407324    2.000759   -2.019627
  C      8.013137   -0.121614   -0.820327
  H      5.143677    2.894781    1.344660
  H      5.594955    3.428748   -0.278071
  H      6.817620    3.386345    1.006831
  H      8.358520    1.970313   -2.562479
  H      7.106660    3.049980   -1.935810
  H      6.662260    1.480515   -2.632886
  H      7.268873   -0.694964   -1.385709
  H      8.146520   -0.612314    0.150789
  H      8.963655   -0.173217   -1.363012
  H      4.577914   -2.420850   -1.518028
  H      2.872880   -2.890859   -1.544750
  H      3.809759   -3.049790   -0.047908

----------------------------
CARTESIAN COORDINATES (A.U.)
----------------------------
  NO LB      ZA    FRAG     MASS         X           Y           Z
   0 C     6.0000    0    12.011   -9.492929    0.565406    0.647023
   1 C     6.0000    0    12.011  -12.152542   -0.258918    0.017900
   2 C     6.0000    0    12.011  -13.199284    1.157048   -2.283700
   3 H     1.0000    0     1.008  -13.407612    0.167835    1.627289
   4 H     1.0000    0     1.008  -12.225583   -2.300784   -0.315862
   5 C     6.0000    0    12.011   -9.167173    3.333803    0.838927
   6 C     6.0000    0    12.011  -10.298653    4.810241   -1.330137
   7 C     6.0000    0    12.011  -13.031890    4.003006   -1.869240
   8 H     1.0000    0     1.008   -9.160630    4.449363   -3.033346
   9 H     1.0000    0     1.008  -10.200487    6.840342   -0.940859
  10 H     1.0000    0     1.008  -13.758134    4.995776   -3.536368
  11 H     1.0000    0     1.008  -14.240547    4.512262   -0.255196
  12 O     8.0000    0    15.999  -15.727523    0.368233   -2.853122
  13 H     1.0000    0     1.008  -12.087003    0.638644   -3.959385
  14 C     6.0000    0    12.011   -7.612638   -1.150889    0.905593
  15 C     6.0000    0    12.011   -8.045730    4.469564    2.799826
  16 H     1.0000    0     1.008   -7.285780    3.388169    4.370883
  17 H     1.0000    0     1.008   -7.881667    6.516308    2.883819
  18 C     6.0000    0    12.011   -4.969195   -0.610431    1.321782
  19 H     1.0000    0     1.008   -8.151878   -3.126500    0.699696
  20 C     6.0000    0    12.011   -3.116334   -2.320728    1.714336
  21 H     1.0000    0     1.008   -4.442707    1.376019    1.289154
  22 C     6.0000    0    12.011   -3.469534   -5.141785    1.906097
  23 C     6.0000    0    12.011   -1.699873   -6.580090    0.096572
  24 H     1.0000    0     1.008   -5.427800   -5.712487    1.575798
  25 H     1.0000    0     1.008   -3.002508   -5.708252    3.854692
  26 C     6.0000    0    12.011    1.067388   -5.742386    0.335018
  27 H     1.0000    0     1.008   -2.350807   -6.299026   -1.852011
  28 H     1.0000    0     1.008   -1.844034   -8.612516    0.477946
  29 C     6.0000    0    12.011    1.355655   -2.871975    0.033448
  30 H     1.0000    0     1.008    2.200503   -6.764181   -1.062704
  31 H     1.0000    0     1.008    1.786390   -6.281258    2.210575
  32 C     6.0000    0    12.011   -0.399058   -1.592338    2.031304
  33 H     1.0000    0     1.008    0.214493   -2.402327    3.857557
  34 C     6.0000    0    12.011    0.412392    1.174609    2.018776
  35 H     1.0000    0     1.008  -16.775749    0.803836   -1.422127
  36 C     6.0000    0    12.011    3.302652    1.039458    1.578013
  37 H     1.0000    0     1.008   -0.089365    2.138497    3.780033
  38 H     1.0000    0     1.008   -0.508012    2.204184    0.476006
  39 C     6.0000    0    12.011    3.939867   -1.741685    0.851439
  40 H     1.0000    0     1.008    4.368952    1.617884    3.253298
  41 H     1.0000    0     1.008    3.879762    2.317140    0.052434
  42 H     1.0000    0     1.008    4.506383   -2.765641    2.574962
  43 C     6.0000    0    12.011    6.185404   -1.873169   -1.001828
  44 C     6.0000    0    12.011    0.659951   -2.030162   -2.652810
  45 H     1.0000    0     1.008   -1.350390   -2.323530   -3.038564
  46 H     1.0000    0     1.008    1.742843   -3.098890   -4.057053
  47 H     1.0000    0     1.008    1.058057   -0.021942   -2.948316
  48 H     1.0000    0     1.008    5.681163   -0.808649   -2.715117
  49 C     6.0000    0    12.011    6.898747   -4.581475   -1.766738
  50 C     6.0000    0    12.011    8.450303   -0.611514    0.169171
  51 C     6.0000    0    12.011    9.630102    1.413520   -0.750069
  52 H     1.0000    0     1.008    9.156733   -1.482009    1.908209
  53 H     1.0000    0     1.008    8.898956    2.282152   -2.476078
  54 C     6.0000    0    12.011   11.880346    2.676607    0.435651
  55 C     6.0000    0    12.011   11.230393    5.419945    1.127083
  56 C     6.0000    0    12.011   14.287956    2.513142   -1.231619
  57 H     1.0000    0     1.008   12.320345    1.661238    2.196397
  58 H     1.0000    0     1.008   15.772908    3.530624   -0.187866
  59 C     6.0000    0    12.011   13.997813    3.780887   -3.816542
  60 C     6.0000    0    12.011   15.142635   -0.229818   -1.550193
  61 H     1.0000    0     1.008    9.720142    5.470344    2.541039
  62 H     1.0000    0     1.008   10.572933    6.479396   -0.525478
  63 H     1.0000    0     1.008   12.883434    6.399265    1.902635
  64 H     1.0000    0     1.008   15.795313    3.723352   -4.842383
  65 H     1.0000    0     1.008   13.429641    5.763628   -3.658151
  66 H     1.0000    0     1.008   12.589847    2.797767   -4.975433
  67 H     1.0000    0     1.008   13.736178   -1.313291   -2.618611
  68 H     1.0000    0     1.008   15.394692   -1.157106    0.284951
  69 H     1.0000    0     1.008   16.938854   -0.327333   -2.575720
  70 H     1.0000    0     1.008    8.651003   -4.574744   -2.868657
  71 H     1.0000    0     1.008    5.428957   -5.462932   -2.919155
  72 H     1.0000    0     1.008    7.199401   -5.763268   -0.090532

--------------------------------
INTERNAL COORDINATES (ANGSTROEM)
--------------------------------
 C      0   0   0     0.000000000000     0.00000000     0.00000000
 C      1   0   0     1.510599118187     0.00000000     0.00000000
 C      2   1   0     1.533517951828   111.74458098     0.00000000
 H      2   1   3     1.103363314670   109.36609705   241.47555934
 H      2   1   3     1.095530561281   110.68378790   122.89806712
 C      1   2   3     1.478571744848   114.19681046    50.46548430
 C      6   1   2     1.512091416174   114.43405189   312.08157342
 C      3   2   1     1.524478169289   110.33111512   305.02087585
 H      7   6   1     1.100669601386   108.37851059   289.94867690
 H      7   6   1     1.095087915297   110.20046737   172.74435927
 H      8   3   2     1.096347292250   109.70910861   179.15036336
 H      8   3   2     1.100552813456   108.64983135   296.60787339
 O      3   2   1     1.433519992840   111.20917754   180.30720556
 H      3   2   1     1.099088435416   108.98865256    65.11355207
 C      1   2   3     1.354116651562   120.87683607   232.68483930
 C      6   1   2     1.337961927450   123.37052338   129.88049171
 H     16   6   1     1.086445910654   121.40216937     0.67385536
 H     16   6   1     1.087472587845   120.96421129   181.33244716
 C     15   1   2     1.444673468941   126.44990871   175.24804708
 H     15   1   2     1.089155758886   116.17888526   357.93830610
 C     19  15   1     1.350419313199   126.42768960   176.18907578
 H     19  15   1     1.087615000742   115.90958305   355.43081430
 C     21  19  15     1.507912206135   125.72224876   357.20050970
 C     23  21  19     1.540515192549   111.83599682   127.59027896
 H     23  21  19     1.093440106952   112.34270435     3.46301499
 H     23  21  19     1.101911242499   107.72764243   246.25924492
 C     24  23  21     1.535192079487   112.71167210    50.71480367
 H     24  23  21     1.097285512207   109.04554189   288.60191753
 H     24  23  21     1.096940246596   109.13421755   172.64208524
 C     27  24  23     1.534915328524   111.83934471   306.35029681
 H     27  24  23     1.094980122123   108.91929118   182.85088833
 H     27  24  23     1.100518319572   109.21312869    66.34881743
 C     21  19  15     1.498105119418   122.79829605   177.56789738
 H     33  21  19     1.105932824207   106.25442568   124.38183428
 C     33  21  19     1.525885824560   121.09834418     2.21445852
 H     13   3   2     0.966567061540   107.54626235    62.71527181
 C     35  33  21     1.548794163275   103.54691146   196.51543665
 H     35  33  21     1.095136878237   112.02451143    74.56351766
 H     35  33  21     1.095704096660   110.81095640   314.96693338
 C     30  27  24     1.554089608172   116.06315342   166.24588923
 H     37  35  33     1.094533967586   111.97499494   249.05680333
 H     37  35  33     1.096421482004   110.94479097   130.49347261
 H     40  30  27     1.102412240053   106.29321129   320.85031450
 C     40  30  27     1.542287727496   118.91379619    81.63537942
 C     30  27  24     1.534489252304   111.08521150   294.19762522
 H     45  30  27     1.094302621403   111.39884819    66.32241689
 H     45  30  27     1.095630900773   110.66863931   306.17618051
 H     45  30  27     1.094611683127   111.59280646   186.29104360
 H     44  40  30     1.100233498192   108.30234886    61.40944587
 C     44  40  30     1.536334312993   113.51101870   300.64034131
 C     44  40  30     1.505393426771   109.36970280   178.60635813
 C     51  44  40     1.332191548339   125.41933233   241.67675871
 H     51  44  40     1.094905505778   115.54451459    62.31788092
 H     52  51  44     1.093260221230   118.51642711     1.31473833
 C     52  51  44     1.502799721573   125.21530755   179.56709758
 C     55  52  51     1.536111434207   110.02113353   241.10961279
 C     55  52  51     1.552131677795   112.84812306   115.44749294
 H     55  52  51     1.100484784350   107.69778170   358.45761601
 H     57  55  52     1.101117904981   105.86687850   178.78918649
 C     57  55  52     1.531251104530   113.64476974    60.68628841
 C     57  55  52     1.529660111163   110.99147267   295.68253292
 H     56  55  52     1.095111790621   110.43594038    62.85488125
 H     56  55  52     1.095492055031   111.38394948   303.44324028
 H     56  55  52     1.096443563244   110.92868027   183.01160545
 H     60  57  55     1.095622519363   110.08327819   175.86364059
 H     60  57  55     1.094664047085   112.27590507    55.96676476
 H     60  57  55     1.096294012111   111.09711108   294.74943320
 H     61  57  55     1.096501978417   110.62875644    65.58801270
 H     61  57  55     1.096195243129   111.29149792   305.79710892
 H     61  57  55     1.095744281332   110.83970117   185.34729358
 H     50  44  40     1.095367592642   110.19498112   187.69360891
 H     50  44  40     1.092890331241   111.73386080    67.79102702
 H     50  44  40     1.096903099479   110.75874392   307.17533060

---------------------------
INTERNAL COORDINATES (A.U.)
---------------------------
 C      0   0   0     0.000000000000     0.00000000     0.00000000
 C      1   0   0     2.854618631517     0.00000000     0.00000000
 C      2   1   0     2.897928950407   111.74458098     0.00000000
 H      2   1   3     2.085054490941   109.36609705   241.47555934
 H      2   1   3     2.070252732162   110.68378790   122.89806712
 C      1   2   3     2.794095667116   114.19681046    50.46548430
 C      6   1   2     2.857438666021   114.43405189   312.08157342
 C      3   2   1     2.880846237098   110.33111512   305.02087585
 H      7   6   1     2.079964110551   108.37851059   289.94867690
 H      7   6   1     2.069416252479   110.20046737   172.74435927
 H      8   3   2     2.071796130019   109.70910861   179.15036336
 H      8   3   2     2.079743413348   108.64983135   296.60787339
 O      3   2   1     2.708960193969   111.20917754   180.30720556
 H      3   2   1     2.076976139896   108.98865256    65.11355207
 C      1   2   3     2.558909624836   120.87683607   232.68483930
 C      6   1   2     2.528381620493   123.37052338   129.88049171
 H     16   6   1     2.053085230454   121.40216937     0.67385536
 H     16   6   1     2.055025369173   120.96421129   181.33244716
 C     15   1   2     2.730037209240   126.44990871   175.24804708
 H     15   1   2     2.058206101477   116.17888526   357.93830610
 C     19  15   1     2.551922667904   126.42768960   176.18907578
 H     19  15   1     2.055294490546   115.90958305   355.43081430
 C     21  19  15     2.849541103593   125.72224876   357.20050970
 C     23  21  19     2.911151819062   111.83599682   127.59027896
 H     23  21  19     2.066302345984   112.34270435     3.46301499
 H     23  21  19     2.082310472212   107.72764243   246.25924492
 C     24  23  21     2.901092593196   112.71167210    50.71480367
 H     24  23  21     2.073569108792   109.04554189   288.60191753
 H     24  23  21     2.072916651343   109.13421755   172.64208524
 C     27  24  23     2.900569609668   111.83934471   306.35029681
 H     27  24  23     2.069212552901   108.91929118   182.85088833
 H     27  24  23     2.079678229354   109.21312869    66.34881743
 C     21  19  15     2.831008395526   122.79829605   177.56789738
 H     33  21  19     2.089910160266   106.25442568   124.38183428
 C     33  21  19     2.883506320050   121.09834418     2.21445852
 H     13   3   2     1.826547036380   107.54626235    62.71527181
 C     35  33  21     2.926796806405   103.54691146   196.51543665
 H     35  33  21     2.069508779025   112.02451143    74.56351766
 H     35  33  21     2.070580666503   110.81095640   314.96693338
 C     30  27  24     2.936803747018   116.06315342   166.24588923
 H     37  35  33     2.068369443011   111.97499494   249.05680333
 H     37  35  33     2.071936328336   110.94479097   130.49347261
 H     40  30  27     2.083257220383   106.29321129   320.85031450
 C     40  30  27     2.914501424675   118.91379619    81.63537942
 C     30  27  24     2.899764442300   111.08521150   294.19762522
 H     45  30  27     2.067932262083   111.39884819    66.32241689
 H     45  30  27     2.070442346323   110.66863931   306.17618051
 H     45  30  27     2.068516304100   111.59280646   186.29104360
 H     44  40  30     2.079139994949   108.30234886    61.40944587
 C     44  40  30     2.903251101702   113.51101870   300.64034131
 C     44  40  30     2.844781300402   109.36970280   178.60635813
 C     51  44  40     2.517477184286   125.41933233   241.67675871
 H     51  44  40     2.069071548443   115.54451459    62.31788092
 H     52  51  44     2.065962411235   118.51642711     1.31473833
 C     52  51  44     2.839879907905   125.21530755   179.56709758
 C     55  52  51     2.902829921837   110.02113353   241.10961279
 C     55  52  51     2.933103794816   112.84812306   115.44749294
 H     55  52  51     2.079614856968   107.69778170   358.45761601
 H     57  55  52     2.080811281571   105.86687850   178.78918649
 C     57  55  52     2.893645229826   113.64476974    60.68628841
 C     57  55  52     2.890638688081   110.99147267   295.68253292
 H     56  55  52     2.069461370301   110.43594038    62.85488125
 H     56  55  52     2.070179965896   111.38394948   303.44324028
 H     56  55  52     2.071978055832   110.92868027   183.01160545
 H     60  57  55     2.070426507753   110.08327819   175.86364059
 H     60  57  55     2.068615257640   112.27590507    55.96676476
 H     60  57  55     2.071695445148   111.09711108   294.74943320
 H     61  57  55     2.072088444511   110.62875644    65.58801270
 H     61  57  55     2.071508798821   111.29149792   305.79710892
 H     61  57  55     2.070656604528   110.83970117   185.34729358
 H     50  44  40     2.069944766066   110.19498112   187.69360891
 H     50  44  40     2.065263420456   111.73386080    67.79102702
 H     50  44  40     2.072846453464   110.75874392   307.17533060

---------------------
BASIS SET INFORMATION
---------------------
There are 3 groups of distinct atoms

 Group   1 Type C   : 7s4p1d contracted to 3s2p1d pattern {511/31/1}
 Group   2 Type H   : 4s1p contracted to 2s1p pattern {31/1}
 Group   3 Type O   : 7s4p1d contracted to 3s2p1d pattern {511/31/1}

Atom   0C    basis set group =>   1
Atom   1C    basis set group =>   1
Atom   2C    basis set group =>   1
Atom   3H    basis set group =>   2
Atom   4H    basis set group =>   2
Atom   5C    basis set group =>   1
Atom   6C    basis set group =>   1
Atom   7C    basis set group =>   1
Atom   8H    basis set group =>   2
Atom   9H    basis set group =>   2
Atom  10H    basis set group =>   2
Atom  11H    basis set group =>   2
Atom  12O    basis set group =>   3
Atom  13H    basis set group =>   2
Atom  14C    basis set group =>   1
Atom  15C    basis set group =>   1
Atom  16H    basis set group =>   2
Atom  17H    basis set group =>   2
Atom  18C    basis set group =>   1
Atom  19H    basis set group =>   2
Atom  20C    basis set group =>   1
Atom  21H    basis set group =>   2
Atom  22C    basis set group =>   1
Atom  23C    basis set group =>   1
Atom  24H    basis set group =>   2
Atom  25H    basis set group =>   2
Atom  26C    basis set group =>   1
Atom  27H    basis set group =>   2
Atom  28H    basis set group =>   2
Atom  29C    basis set group =>   1
Atom  30H    basis set group =>   2
Atom  31H    basis set group =>   2
Atom  32C    basis set group =>   1
Atom  33H    basis set group =>   2
Atom  34C    basis set group =>   1
Atom  35H    basis set group =>   2
Atom  36C    basis set group =>   1
Atom  37H    basis set group =>   2
Atom  38H    basis set group =>   2
Atom  39C    basis set group =>   1
Atom  40H    basis set group =>   2
Atom  41H    basis set group =>   2
Atom  42H    basis set group =>   2
Atom  43C    basis set group =>   1
Atom  44C    basis set group =>   1
Atom  45H    basis set group =>   2
Atom  46H    basis set group =>   2
Atom  47H    basis set group =>   2
Atom  48H    basis set group =>   2
Atom  49C    basis set group =>   1
Atom  50C    basis set group =>   1
Atom  51C    basis set group =>   1
Atom  52H    basis set group =>   2
Atom  53H    basis set group =>   2
Atom  54C    basis set group =>   1
Atom  55C    basis set group =>   1
Atom  56C    basis set group =>   1
Atom  57H    basis set group =>   2
Atom  58H    basis set group =>   2
Atom  59C    basis set group =>   1
Atom  60C    basis set group =>   1
Atom  61H    basis set group =>   2
Atom  62H    basis set group =>   2
Atom  63H    basis set group =>   2
Atom  64H    basis set group =>   2
Atom  65H    basis set group =>   2
Atom  66H    basis set group =>   2
Atom  67H    basis set group =>   2
Atom  68H    basis set group =>   2
Atom  69H    basis set group =>   2
Atom  70H    basis set group =>   2
Atom  71H    basis set group =>   2
Atom  72H    basis set group =>   2

-------------------------
BASIS SET IN INPUT FORMAT
-------------------------

 # Basis set for element : H 
 NewGTO H 
 S 3 
   1      13.0107010000      0.0334854848
   2       1.9622572000      0.2347218709
   3       0.4445379600      0.8137702853
 S 1 
   1       0.1219496200      1.0000000000
 P 1 
   1       0.8000000000      1.0000000000
  end;

 # Basis set for element : C 
 NewGTO C 
 S 5 
   1    1238.4016938000      0.0055173650
   2     186.2900499200      0.0410888285
   3      42.2511763460      0.1822538213
   4      11.6765579320      0.4682845944
   5       3.5930506482      0.4457581734
 S 1 
   1       0.4024514736      1.0000000000
 S 1 
   1       0.1309018267      1.0000000000
 P 3 
   1       9.4680970621      0.0568883320
   2       2.0103545142      0.3129405934
   3       0.5477100471      0.7606501651
 P 1 
   1       0.1526861379      1.0000000000
 D 1 
   1       0.8000000000      1.0000000000
  end;

 # Basis set for element : O 
 NewGTO O 
 S 5 
   1    2266.1767785000     -0.0053893504
   2     340.8701019100     -0.0402347214
   3      77.3631351670     -0.1800818421
   4      21.4796449400     -0.4682885766
   5       6.6589433124     -0.4469261716
 S 1 
   1       0.8097597567      1.0000000000
 S 1 
   1       0.2553077223      1.0000000000
 P 3 
   1      17.7215043170      0.0626302488
   2       3.8635505440      0.3333113849
   3       1.0480920883      0.7414863830
 P 1 
   1       0.2764154441      1.0000000000
 D 1 
   1       1.2000000000      1.0000000000
  end;

---------------------------------
AUXILIARY/J BASIS SET INFORMATION
---------------------------------
There are 3 groups of distinct atoms

 Group   1 Type C   : 12s5p4d2f1g contracted to 6s4p3d1f1g pattern {711111/2111/211/2/1}
 Group   2 Type H   : 5s2p1d contracted to 3s1p1d pattern {311/2/1}
 Group   3 Type O   : 12s5p4d2f1g contracted to 6s4p3d1f1g pattern {711111/2111/211/2/1}

Atom   0C    basis set group =>   1
Atom   1C    basis set group =>   1
Atom   2C    basis set group =>   1
Atom   3H    basis set group =>   2
Atom   4H    basis set group =>   2
Atom   5C    basis set group =>   1
Atom   6C    basis set group =>   1
Atom   7C    basis set group =>   1
Atom   8H    basis set group =>   2
Atom   9H    basis set group =>   2
Atom  10H    basis set group =>   2
Atom  11H    basis set group =>   2
Atom  12O    basis set group =>   3
Atom  13H    basis set group =>   2
Atom  14C    basis set group =>   1
Atom  15C    basis set group =>   1
Atom  16H    basis set group =>   2
Atom  17H    basis set group =>   2
Atom  18C    basis set group =>   1
Atom  19H    basis set group =>   2
Atom  20C    basis set group =>   1
Atom  21H    basis set group =>   2
Atom  22C    basis set group =>   1
Atom  23C    basis set group =>   1
Atom  24H    basis set group =>   2
Atom  25H    basis set group =>   2
Atom  26C    basis set group =>   1
Atom  27H    basis set group =>   2
Atom  28H    basis set group =>   2
Atom  29C    basis set group =>   1
Atom  30H    basis set group =>   2
Atom  31H    basis set group =>   2
Atom  32C    basis set group =>   1
Atom  33H    basis set group =>   2
Atom  34C    basis set group =>   1
Atom  35H    basis set group =>   2
Atom  36C    basis set group =>   1
Atom  37H    basis set group =>   2
Atom  38H    basis set group =>   2
Atom  39C    basis set group =>   1
Atom  40H    basis set group =>   2
Atom  41H    basis set group =>   2
Atom  42H    basis set group =>   2
Atom  43C    basis set group =>   1
Atom  44C    basis set group =>   1
Atom  45H    basis set group =>   2
Atom  46H    basis set group =>   2
Atom  47H    basis set group =>   2
Atom  48H    basis set group =>   2
Atom  49C    basis set group =>   1
Atom  50C    basis set group =>   1
Atom  51C    basis set group =>   1
Atom  52H    basis set group =>   2
Atom  53H    basis set group =>   2
Atom  54C    basis set group =>   1
Atom  55C    basis set group =>   1
Atom  56C    basis set group =>   1
Atom  57H    basis set group =>   2
Atom  58H    basis set group =>   2
Atom  59C    basis set group =>   1
Atom  60C    basis set group =>   1
Atom  61H    basis set group =>   2
Atom  62H    basis set group =>   2
Atom  63H    basis set group =>   2
Atom  64H    basis set group =>   2
Atom  65H    basis set group =>   2
Atom  66H    basis set group =>   2
Atom  67H    basis set group =>   2
Atom  68H    basis set group =>   2
Atom  69H    basis set group =>   2
Atom  70H    basis set group =>   2
Atom  71H    basis set group =>   2
Atom  72H    basis set group =>   2

-------------------------------------
AUXILIARY/J BASIS SET IN INPUT FORMAT
-------------------------------------

 # Auxiliary/J basis set for element : H 
 NewAuxJGTO H 
 S 3 
   1      15.6752927000      0.1007184237
   2       3.6063578000      0.3404257499
   3       1.2080016000      0.6491996172
 S 1 
   1       0.4726794000      1.0000000000
 S 1 
   1       0.2018100000      1.0000000000
 P 2 
   1       2.0281365000      0.5596620919
   2       0.5358730000      0.5596620919
 D 1 
   1       2.2165124000      1.0000000000
  end;

 # Auxiliary/J basis set for element : C 
 NewAuxJGTO C 
 S 7 
   1    1861.0916331000      0.0134602335
   2     642.9939764000      0.0299160374
   3     235.1105725000      0.1008649584
   4      90.7028894000      0.2370970548
   5      36.7794552000      0.3924037254
   6      15.6046273000      0.3195862154
   7       6.8907294000      0.0530104441
 S 1 
   1       3.1478850000     -1.0000000000
 S 1 
   1       1.4777287000      1.0000000000
 S 1 
   1       0.7076466000      1.0000000000
 S 1 
   1       0.3430122000      1.0000000000
 S 1 
   1       0.1669453000      1.0000000000
 P 2 
   1      13.5472892000     -0.6769313712
   2       5.4669419000     -0.3779500978
 P 1 
   1       2.1751721000      1.0000000000
 P 1 
   1       0.8582194000      1.0000000000
 P 1 
   1       0.3376720000      1.0000000000
 D 2 
   1       5.9287253000     -0.3533329857
   2       1.9809209000     -0.7456525731
 D 1 
   1       0.8055417000     -1.0000000000
 D 1 
   1       0.3531244000     -1.0000000000
 F 2 
   1       1.6755626000      0.6311076882
   2       0.5997536000      0.4968166032
 G 1 
   1       1.0024600000     -1.0000000000
  end;

 # Auxiliary/J basis set for element : O 
 NewAuxJGTO O 
 S 7 
   1    2876.8216605000      0.0168151159
   2    1004.7443032000      0.0340137548
   3     369.7579954000      0.1194951309
   4     142.9442404000      0.2664627624
   5      57.8366425000      0.4202764046
   6      24.3864983000      0.2765077335
   7      10.6622662000      0.0057008815
 S 1 
   1       4.8070437000     -1.0000000000
 S 1 
   1       2.2210770000      1.0000000000
 S 1 
   1       1.0447795000      1.0000000000
 S 1 
   1       0.4968425000      1.0000000000
 S 1 
   1       0.2371384000      1.0000000000
 P 2 
   1      64.2613382000     -0.2731534179
   2      16.3006076000     -0.8168011598
 P 1 
   1       4.3550542000      1.0000000000
 P 1 
   1       1.2019554000      1.0000000000
 P 1 
   1       0.3354196000      1.0000000000
 D 2 
   1       9.2146611000     -0.4661230638
   2       2.8435251000     -0.6600908911
 D 1 
   1       0.9955759000     -1.0000000000
 D 1 
   1       0.3649441000     -1.0000000000
 F 2 
   1       2.6420115000      0.5931563945
   2       0.7345613000      0.5931563945
 G 1 
   1       1.3931000000     -1.0000000000
  end;


Checking for AutoStart:
The File: inpS.gbw exists
Trying to determine its content:
     ... Fine, the file contains calculation information
     ... Fine, the calculation information was read
     ... Fine, the file contains a basis set
     ... Fine, the basis set was read
     ... Fine, the file contains a geometry
     ... Fine, the geometry was read
     ... Fine, the file contains a set of orbitals
     ... Fine, the orbitals can be read
     => possible old guess file was deleted
     => GBW file was renamed to GES file
     => GES file is set as startup file
     => Guess is set to MORead
     ... now leaving AutoStart



           ************************************************************
           *        Program running with 4 parallel MPI-processes     *
           *              working on a common directory               *
           ************************************************************
------------------------------------------------------------------------------
                             ORCA STARTUP CALCULATIONS
                           -- RI-GTO INTEGRALS CHOSEN --
------------------------------------------------------------------------------
------------------------------------------------------------------------------
                   ___                                                        
                  /   \      - P O W E R E D   B Y -                         
                 /     \                                                     
                 |  |  |   _    _      __       _____    __    __             
                 |  |  |  | |  | |    /  \     |  _  \  |  |  /  |          
                  \  \/   | |  | |   /    \    | | | |  |  | /  /          
                 / \  \   | |__| |  /  /\  \   | |_| |  |  |/  /          
                |  |  |   |  __  | /  /__\  \  |    /   |      \           
                |  |  |   | |  | | |   __   |  |    \   |  |\   \          
                \     /   | |  | | |  |  |  |  | |\  \  |  | \   \       
                 \___/    |_|  |_| |__|  |__|  |_| \__\ |__|  \__/        
                                                                              
                      - O R C A' S   B I G   F R I E N D -                    
                                      &                                       
                       - I N T E G R A L  F E E D E R -                       
                                                                              
 v1 FN, 2020, v2 2021, v3 2022-2024                                           
------------------------------------------------------------------------------


----------------------
SHARK INTEGRAL PACKAGE
----------------------

Number of atoms                             ...     73
Number of basis functions                   ...    626
Number of shells                            ...    306
Maximum angular momentum                    ...      2
Integral batch strategy                     ... SHARK/LIBINT Hybrid
RI-J (if used) integral strategy            ... SPLIT-RIJ (Revised 2003 algorithm where possible)
Printlevel                                  ...      1
Contraction scheme used                     ... SEGMENTED contraction
Prescreening option                         ... SCHWARTZ
   Thresh                                   ... 3.000e-11
   Tcut                                     ... 1.000e-12
   Tpresel                                  ... 1.000e-12 
Coulomb Range Separation                    ... NOT USED
Exchange Range Separation                   ... Long Range
   Mu parameter                             ... 3.000e-01
   Scaling (regular/separated)              ... 1.670e-01 8.330e-01
Multipole approximations                    ... NOT USED
Finite Nucleus Model                        ... NOT USED
CABS basis                                  ... NOT available
Auxiliary Coulomb fitting basis             ... AVAILABLE
   # of basis functions in Aux-J            ...   1905
   # of shells in Aux-J                     ...    655
   Maximum angular momentum in Aux-J        ...      4
Auxiliary J/K fitting basis                 ... NOT available
Auxiliary Correlation fitting basis         ... NOT available
Auxiliary 'external' fitting basis          ... NOT available

Checking pre-screening integrals            ... done (  0.0 sec) Dimension = 306
Check shell pair data                       ... done (  0.0 sec)
Shell pair information
Shell pair cut-off parameter TPreSel        ...   1.0e-12
Total number of shell pairs                 ...     46971
Shell pairs after pre-screening             ...     27175
Total number of primitive shell pairs       ...    162105
Primitive shell pairs kept                  ...     59950
          la=0 lb=0:   9502 shell pairs
          la=1 lb=0:  10428 shell pairs
          la=1 lb=1:   2890 shell pairs
          la=2 lb=0:   2705 shell pairs
          la=2 lb=1:   1455 shell pairs
          la=2 lb=2:    195 shell pairs

Calculating one electron integrals          ... done (  0.1 sec)
Calculating RI/J V-Matrix + Cholesky decomp.... done (  0.2 sec)
Calculating Nuclear repulsion               ... done (  0.0 sec) ENN=   2758.696134257779 Eh

Diagonalization of the overlap matrix:
Smallest eigenvalue                        ... 4.567e-04
Time for diagonalization                   ...    0.049 sec
Threshold for overlap eigenvalues          ... 1.000e-07
Number of eigenvalues below threshold      ... 0
Time for construction of square roots      ...    0.027 sec
Total time needed                          ...    0.079 sec

-------------------
DFT GRID GENERATION
-------------------

General Integration Accuracy     IntAcc      ... 4.388
Radial Grid Type                 RadialGrid  ... OptM3 with GC (2021)
Angular Grid (max. ang.)         AngularGrid ... 4 (Lebedev-302)
Angular grid pruning method      GridPruning ... 4 (adaptive)
Weight generation scheme         WeightScheme... mBecke (2022)
Basis function cutoff            BFCut       ... 1.0000e-11
Integration weight cutoff        WCut        ... 1.0000e-14
Partially contracted basis set               ... off
Rotationally invariant grid construction     ... off
Angular grids for H and He will be reduced by one unit

Total number of grid points                  ...   309954
Total number of batches                      ...     4876
Average number of points per batch           ...       63
Average number of grid points per atom       ...     4246

--------------------
COSX GRID GENERATION
--------------------

GRIDX 1
-------
General Integration Accuracy     IntAcc      ... 3.816
Radial Grid Type                 RadialGrid  ... OptM3 with GC (2021)
Angular Grid (max. ang.)         AngularGrid ... 1 (Lebedev-50)
Angular grid pruning method      GridPruning ... 4 (adaptive)
Weight generation scheme         WeightScheme... mBecke (2022)
Basis function cutoff            BFCut       ... 1.0000e-11
Integration weight cutoff        WCut        ... 1.0000e-14
Partially contracted basis set               ... on
Rotationally invariant grid construction     ... off
Angular grids for H and He will be reduced by one unit

Total number of grid points                  ...    39433
Total number of batches                      ...      356
Average number of points per batch           ...      110
Average number of grid points per atom       ...      540
UseSFitting                                  ... on

GRIDX 2
-------
General Integration Accuracy     IntAcc      ... 4.020
Radial Grid Type                 RadialGrid  ... OptM3 with GC (2021)
Angular Grid (max. ang.)         AngularGrid ... 2 (Lebedev-110)
Angular grid pruning method      GridPruning ... 4 (adaptive)
Weight generation scheme         WeightScheme... mBecke (2022)
Basis function cutoff            BFCut       ... 1.0000e-11
Integration weight cutoff        WCut        ... 1.0000e-14
Partially contracted basis set               ... on
Rotationally invariant grid construction     ... off
Angular grids for H and He will be reduced by one unit

Total number of grid points                  ...    81479
Total number of batches                      ...      678
Average number of points per batch           ...      120
Average number of grid points per atom       ...     1116
UseSFitting                                  ... on

GRIDX 3
-------
General Integration Accuracy     IntAcc      ... 4.338
Radial Grid Type                 RadialGrid  ... OptM3 with GC (2021)
Angular Grid (max. ang.)         AngularGrid ... 3 (Lebedev-194)
Angular grid pruning method      GridPruning ... 4 (adaptive)
Weight generation scheme         WeightScheme... mBecke (2022)
Basis function cutoff            BFCut       ... 1.0000e-11
Integration weight cutoff        WCut        ... 1.0000e-14
Partially contracted basis set               ... on
Rotationally invariant grid construction     ... off
Angular grids for H and He will be reduced by one unit

Total number of grid points                  ...   176452
Total number of batches                      ...     1421
Average number of points per batch           ...      124
Average number of grid points per atom       ...     2417
UseSFitting                                  ... on
Initializing property integral containers    ... done (  0.0 sec)

SHARK setup successfully completed in   4.5 seconds

Maximum memory used throughout the entire STARTUP-calculation: 95.1 MB


           ************************************************************
           *        Program running with 4 parallel MPI-processes     *
           *              working on a common directory               *
           ************************************************************
-------------------------------------------------------------------------------
                                 ORCA GUESS
                   Start orbitals & Density for SCF / CASSCF
-------------------------------------------------------------------------------

------------
SCF SETTINGS
------------
Hamiltonian:
 Density Functional     Method          .... DFT(GTOs)
 Exchange Functional    Exchange        .... WB97X-V
 Correlation Functional Correlation     .... WB97X-V
 Gradients option       PostSCFGGA      .... off
 Hybrid DFT is turned on
   Fraction HF Exchange ScalHFX         ....  0.167000
   Scaling of DF-GGA-X  ScalDFX         ....  0.000000
   Scaling of DF-GGA-C  ScalDFC         ....  1.000000
   Scaling of DF-LDA-C  ScalLDAC        ....  1.000000
   Perturbative correction              ....  0.000000
 Long-range corrected/Screened/Range-Separated Hybrid DFT is turned on
   Amount of maximum screened exact exchange              ....  0.833000
   Range separation parameter mu (erf(mu*r12)/r12)        ....  0.300000
 RI-approximation to the Coulomb term is turned on
   Number of AuxJ basis functions       .... 1905
   RIJ-COSX (HFX calculated with COS-X)).... on


General Settings:
 Integral files         IntName         .... inpS
 Hartree-Fock type      HFTyp           .... RHF
 Total Charge           Charge          ....    0
 Multiplicity           Mult            ....    1
 Number of Electrons    NEL             ....  220
 Basis Dimension        Dim             ....  626
 Nuclear Repulsion      ENuc            ....   2758.6961342578 Eh

Convergence Acceleration:
 AO-DIIS                CNVDIIS         .... on
   Start iteration      DIISMaxIt       ....    12
   Startup error        DIISStart       ....  0.200000
   # of expansion vecs  DIISMaxEq       ....     5
   Bias factor          DIISBfac        ....   1.050
   Max. coefficient     DIISMaxC        ....  10.000
 MO-DIIS                CNVKDIIS        .... off
 Trust-Rad. Augm. Hess. CNVTRAH         .... auto
   Auto Start mean grad. ratio tolernc. ....  1.125000
   Auto Start start iteration           ....     1
   Auto Start num. interpolation iter.  ....    10
   Max. Number of Micro iterations      ....    24
   Max. Number of Macro iterations      .... Maxiter - #DIIS iter
   Number of Davidson start vectors     ....     2
   Converg. threshold    (grad. norm)   ....   1.000e-04
   Grad. Scal. Fac. for Micro threshold ....   0.100
   Minimum threshold for Micro iter.    ....   1.000e-02
   NR start threshold (gradient norm)   ....   1.000e-04
   Initial trust radius                 ....   0.400
   Minimum AH scaling param. (alpha)    ....   1.000
   Maximum AH scaling param. (alpha)    .... 1000.000
   Quad. conv. algorithm                .... NR
   White noise on init. David. guess    .... on
   Maximum white noise                  ....   0.010
   Pseudo random numbers                .... off
   Inactive MOs                         .... canonical
   Orbital update algorithm             .... Taylor
   Preconditioner                       .... Diag
   Full preconditioner red. dimension   ....   250
 SOSCF                  CNVSOSCF        .... off
 Level Shifting         CNVShift        .... on
   Level shift para.    LevelShift      ....    0.2500
   Turn off err/grad.   ShiftErr        ....    0.0010
 Zerner damping         CNVZerner       .... off
 Static damping         CNVDamp         .... on
   Fraction old density DampFac         ....    0.7000
   Max. Damping (<1)    DampMax         ....    0.9800
   Min. Damping (>=0)   DampMin         ....    0.0000
   Turn off err/grad.   DampErr         ....    0.1000

SCF Procedure:
 Maximum # iterations   MaxIter         ....   125
 SCF integral mode      SCFMode         .... Direct
   Integral package                     .... SHARK and LIBINT hybrid scheme
 Reset frequency        DirectResetFreq ....    20
 Integral Threshold     Thresh          ....  3.000e-11 Eh
 Primitive CutOff       TCut            ....  1.000e-12 Eh

Convergence Tolerance:
 Convergence Check Mode ConvCheckMode   .... Total+1el-Energy
 Convergence forced     ConvForced      .... 0
 Energy Change          TolE            ....  1.000e-07 Eh
 1-El. energy change                    ....  1.000e-04 Eh
 DIIS Error             TolErr          ....  1.000e-07

---------------------
INITIAL GUESS: MOREAD
---------------------
Guess MOs are being read from file: inpS.ges
Input Geometry matches current geometry (good)
Input basis set matches current basis set (good)
Occupation numbers will be reassigned to an Aufbau configuration
MOs were renormalized
MOs were reorthogonalized (Cholesky)
                      ------------------
                      INITIAL GUESS DONE (   0.2 sec)
                      ------------------
             **** ENERGY FILE WAS UPDATED (inpS.en.tmp) ****
Finished Guess after   0.3 sec
Maximum memory used throughout the entire GUESS-calculation: 52.0 MB


           ************************************************************
           *        Program running with 4 parallel MPI-processes     *
           *              working on a common directory               *
           ************************************************************

-------------------------------------------------------------------------------------------
                                      ORCA LEAN-SCF
                              memory conserving SCF solver
-------------------------------------------------------------------------------------------

--------------------
CPCM SOLVATION MODEL
--------------------
CPCM parameters:
  Epsilon                                         ...       4.8030
  Refrac                                          ...       1.4459
  Rsolv                                           ...       1.3000
  Surface type                                    ... GAUSSIAN VDW
  Discretization scheme                           ... Constant charge density
    Threshold for H atoms                         ...       5.0000 (charges/Ang^2)
    Threshold for non-H atoms                     ...       5.0000 (charges/Ang^2)
  Epsilon function type                           ...         CPCM
Solvent:                                          ... CHLOROFORM
Radii:
  Scheme                                          ... Element-dependent radii
  Radius for C  used is    3.8550 Bohr (=   2.0400 Ang.)
  Radius for H  used is    2.4944 Bohr (=   1.3200 Ang.)
  Radius for O  used is    3.4469 Bohr (=   1.8240 Ang.)
Calculating surface                               ...        done! (  0.0s)
Cavity surface points                             ...         5474
Cavity Volume                                     ...    3621.7891
Cavity Surface-area                               ...    1817.0150
Calculating surface distance matrix               ...        done! (  0.2s)
Performing Cholesky decomposition & store         ...        done! (  0.9s)
Overall time for CPCM initialization              ...                 1.2s

----------------------------------------D-I-I-S--------------------------------------------
Iteration    Energy (Eh)           Delta-E    RMSDP     MaxDP     DIISErr   Damp  Time(sec)
-------------------------------------------------------------------------------------------
               ***  Starting incremental Fock matrix formation  ***
    1    -1168.3647550665359631     0.00e+00  3.24e-08  1.84e-06  6.41e-06  0.700  23.1

  HOMO= 109 E= -7.881 eV LUMO=  8.096 eV gap=  15.977 eV
    2    -1168.3647550701089131    -3.57e-09  2.73e-08  1.36e-06  3.23e-06  0.700   4.7
                 **** Energy Check signals convergence ****

  HOMO= 109 E= -7.881 eV LUMO=  8.096 eV gap=  15.977 eV

               *****************************************************
               *                     SUCCESS                       *
               *           SCF CONVERGED AFTER   2 CYCLES          *
               *****************************************************

Recomputing exchange energy using gridx3       ... done (   40.712 sec)
Old exchange energy                            :    -56.782159978 Eh
New exchange energy                            :    -56.782122727 Eh
Exchange energy change after final integration :      0.000037252 Eh
Total energy after final integration           :  -1168.364717819 Eh
             **** ENERGY FILE WAS UPDATED (inpS.en.tmp) ****

----------------
TOTAL SCF ENERGY
----------------

Total Energy       :      -1168.36471781851810 Eh          -31792.82029 eV

Components:
Nuclear Repulsion  :       2758.69613425777925 Eh           75067.93819 eV
Electronic Energy  :      -3927.05032981767590 Eh         -106860.47216 eV
One Electron Energy:      -7062.71880141988731 Eh         -192186.34915 eV
Two Electron Energy:       3135.66847160221141 Eh           85325.87700 eV
CPCM Dielectric    :         -0.01055951021223 Eh              -0.28734 eV

Virial components:
Potential Energy   :      -2321.67288348006605 Eh          -63175.93096 eV
Kinetic Energy     :       1153.30816566154817 Eh           31383.11067 eV
Virial Ratio       :          2.01305509889313

DFT components:
N(Alpha)           :      110.000162671900 electrons
N(Beta)            :      110.000162671900 electrons
N(Total)           :      220.000325343800 electrons
E(X)               :     -111.767922249443 Eh       
E(C)               :       -8.949288202293 Eh       
E(XC)              :     -120.717210451736 Eh       

CPCM Solvation Model Properties:
Surface-charge          :         -0.04190926887412
Corrected charge        :         -0.00000000000000
Outlying charge corr.   :          0.00006112285475 Eh               0.00166 eV
Free-energy (cav+disp)  :  This term is not implemented in the current solvation scheme

---------------
SCF CONVERGENCE
---------------

  Last Energy change         ...    3.5729e-09  Tolerance :   1.0000e-07
  Last MAX-Density change    ...    1.3641e-06  Tolerance :   1.0000e-05
  Last RMS-Density change    ...    2.7318e-08  Tolerance :   1.0000e-06
  Last DIIS Error            ...    3.2271e-06  Tolerance :   1.0000e-07


----------------
ORBITAL ENERGIES
----------------

  NO   OCC          E(Eh)            E(eV) 
   0   2.0000     -19.213707      -522.8315 
   1   2.0000     -10.329751      -281.0868 
   2   2.0000     -10.293450      -280.0990 
   3   2.0000     -10.290197      -280.0105 
   4   2.0000     -10.285983      -279.8958 
   5   2.0000     -10.285892      -279.8933 
   6   2.0000     -10.285121      -279.8724 
   7   2.0000     -10.281957      -279.7863 
   8   2.0000     -10.281673      -279.7786 
   9   2.0000     -10.280962      -279.7592 
  10   2.0000     -10.280786      -279.7544 
  11   2.0000     -10.280728      -279.7528 
  12   2.0000     -10.279438      -279.7177 
  13   2.0000     -10.278485      -279.6918 
  14   2.0000     -10.277157      -279.6557 
  15   2.0000     -10.276804      -279.6460 
  16   2.0000     -10.276707      -279.6434 
  17   2.0000     -10.276592      -279.6403 
  18   2.0000     -10.274271      -279.5771 
  19   2.0000     -10.272636      -279.5326 
  20   2.0000     -10.271830      -279.5107 
  21   2.0000     -10.271769      -279.5090 
  22   2.0000     -10.270301      -279.4691 
  23   2.0000     -10.270290      -279.4688 
  24   2.0000     -10.270083      -279.4632 
  25   2.0000     -10.269573      -279.4493 
  26   2.0000     -10.267937      -279.4048 
  27   2.0000     -10.266831      -279.3747 
  28   2.0000     -10.266537      -279.3667 
  29   2.0000      -1.131699       -30.7951 
  30   2.0000      -0.997954       -27.1557 
  31   2.0000      -0.979091       -26.6424 
  32   2.0000      -0.957154       -26.0455 
  33   2.0000      -0.942593       -25.6493 
  34   2.0000      -0.917474       -24.9657 
  35   2.0000      -0.910354       -24.7720 
  36   2.0000      -0.889405       -24.2019 
  37   2.0000      -0.887134       -24.1401 
  38   2.0000      -0.872797       -23.7500 
  39   2.0000      -0.852739       -23.2042 
  40   2.0000      -0.835552       -22.7365 
  41   2.0000      -0.829447       -22.5704 
  42   2.0000      -0.808503       -22.0005 
  43   2.0000      -0.800160       -21.7735 
  44   2.0000      -0.794750       -21.6263 
  45   2.0000      -0.786873       -21.4119 
  46   2.0000      -0.759017       -20.6539 
  47   2.0000      -0.750290       -20.4164 
  48   2.0000      -0.723525       -19.6881 
  49   2.0000      -0.712831       -19.3971 
  50   2.0000      -0.712171       -19.3792 
  51   2.0000      -0.699949       -19.0466 
  52   2.0000      -0.689265       -18.7559 
  53   2.0000      -0.675015       -18.3681 
  54   2.0000      -0.656676       -17.8691 
  55   2.0000      -0.639842       -17.4110 
  56   2.0000      -0.631117       -17.1736 
  57   2.0000      -0.620631       -16.8882 
  58   2.0000      -0.604985       -16.4625 
  59   2.0000      -0.601269       -16.3614 
  60   2.0000      -0.587098       -15.9758 
  61   2.0000      -0.584603       -15.9079 
  62   2.0000      -0.567758       -15.4495 
  63   2.0000      -0.565863       -15.3979 
  64   2.0000      -0.563625       -15.3370 
  65   2.0000      -0.558235       -15.1903 
  66   2.0000      -0.554657       -15.0930 
  67   2.0000      -0.548857       -14.9352 
  68   2.0000      -0.546666       -14.8755 
  69   2.0000      -0.541609       -14.7379 
  70   2.0000      -0.536554       -14.6004 
  71   2.0000      -0.529404       -14.4058 
  72   2.0000      -0.522973       -14.2308 
  73   2.0000      -0.520151       -14.1540 
  74   2.0000      -0.518114       -14.0986 
  75   2.0000      -0.511789       -13.9265 
  76   2.0000      -0.504497       -13.7281 
  77   2.0000      -0.501607       -13.6494 
  78   2.0000      -0.496992       -13.5238 
  79   2.0000      -0.493468       -13.4279 
  80   2.0000      -0.488598       -13.2954 
  81   2.0000      -0.487635       -13.2692 
  82   2.0000      -0.485696       -13.2165 
  83   2.0000      -0.478263       -13.0142 
  84   2.0000      -0.475845       -12.9484 
  85   2.0000      -0.472941       -12.8694 
  86   2.0000      -0.465613       -12.6700 
  87   2.0000      -0.462025       -12.5724 
  88   2.0000      -0.456622       -12.4253 
  89   2.0000      -0.451946       -12.2981 
  90   2.0000      -0.449805       -12.2398 
  91   2.0000      -0.444505       -12.0956 
  92   2.0000      -0.438211       -11.9243 
  93   2.0000      -0.430142       -11.7048 
  94   2.0000      -0.426171       -11.5967 
  95   2.0000      -0.423933       -11.5358 
  96   2.0000      -0.421970       -11.4824 
  97   2.0000      -0.421224       -11.4621 
  98   2.0000      -0.415139       -11.2965 
  99   2.0000      -0.414116       -11.2687 
 100   2.0000      -0.412181       -11.2160 
 101   2.0000      -0.409284       -11.1372 
 102   2.0000      -0.401806       -10.9337 
 103   2.0000      -0.401468       -10.9245 
 104   2.0000      -0.394400       -10.7322 
 105   2.0000      -0.380116       -10.3435 
 106   2.0000      -0.371883       -10.1194 
 107   2.0000      -0.357002        -9.7145 
 108   2.0000      -0.337623        -9.1872 
 109   2.0000      -0.289636        -7.8814 
 110   0.0000       0.047519         1.2931 
 111   0.0000       0.100310         2.7296 
 112   0.0000       0.108313         2.9473 
 113   0.0000       0.134391         3.6570 
 114   0.0000       0.142366         3.8740 
 115   0.0000       0.144054         3.9199 
 116   0.0000       0.153549         4.1783 
 117   0.0000       0.154853         4.2138 
 118   0.0000       0.157609         4.2888 
 119   0.0000       0.158596         4.3156 
 120   0.0000       0.168767         4.5924 
*Only the first 10 virtual orbitals were printed.

                    ********************************
                    * MULLIKEN POPULATION ANALYSIS *
                    ********************************

-----------------------
MULLIKEN ATOMIC CHARGES
-----------------------
   0 C :   -0.127333
   1 C :    0.144188
   2 C :    0.081567
   3 H :    0.016650
   4 H :    0.013218
   5 C :   -0.184552
   6 C :    0.111015
   7 C :    0.006820
   8 H :    0.029813
   9 H :    0.012257
  10 H :    0.023555
  11 H :    0.011329
  12 O :   -0.355090
  13 H :    0.014152
  14 C :   -0.024676
  15 C :   -0.044370
  16 H :    0.036311
  17 H :    0.029238
  18 C :   -0.060427
  19 H :   -0.006963
  20 C :   -0.116023
  21 H :    0.000490
  22 C :    0.114690
  23 C :   -0.000714
  24 H :    0.012730
  25 H :    0.017570
  26 C :    0.105606
  27 H :    0.012701
  28 H :    0.015005
  29 C :   -0.412033
  30 H :    0.008662
  31 H :   -0.002823
  32 C :   -0.041459
  33 H :    0.010972
  34 C :    0.115808
  35 H :    0.181715
  36 C :    0.073381
  37 H :    0.007101
  38 H :    0.015788
  39 C :   -0.034977
  40 H :    0.008908
  41 H :    0.000554
  42 H :   -0.008470
  43 C :   -0.044793
  44 C :    0.093301
  45 H :    0.023193
  46 H :    0.018511
  47 H :    0.019537
  48 H :    0.000527
  49 C :    0.048995
  50 C :   -0.035000
  51 C :   -0.057035
  52 H :    0.002867
  53 H :    0.010901
  54 C :   -0.079075
  55 C :    0.041118
  56 C :   -0.147963
  57 H :    0.005571
  58 H :    0.010591
  59 C :    0.011684
  60 C :    0.035599
  61 H :    0.020339
  62 H :    0.020353
  63 H :    0.018702
  64 H :    0.019189
  65 H :    0.020120
  66 H :    0.018397
  67 H :    0.016552
  68 H :    0.013731
  69 H :    0.017768
  70 H :    0.019714
  71 H :    0.031160
  72 H :    0.013564
Sum of atomic charges:    0.0000000

--------------------------------
MULLIKEN REDUCED ORBITAL CHARGES
--------------------------------
  0 C s       :     3.078050  s :     3.078050
      pz      :     1.004072  p :     3.006447
      px      :     0.998479
      py      :     1.003897
      dz2     :     0.003210  d :     0.042836
      dxz     :     0.007025
      dyz     :     0.006024
      dx2y2   :     0.014712
      dxy     :     0.011865

  1 C s       :     2.932382  s :     2.932382
      pz      :     0.980982  p :     2.888988
      px      :     0.940409
      py      :     0.967597
      dz2     :     0.007065  d :     0.034442
      dxz     :     0.009234
      dyz     :     0.004679
      dx2y2   :     0.009007
      dxy     :     0.004458

  2 C s       :     3.075116  s :     3.075116
      pz      :     1.041094  p :     2.772135
      px      :     0.758285
      py      :     0.972756
      dz2     :     0.011750  d :     0.071182
      dxz     :     0.016055
      dyz     :     0.009160
      dx2y2   :     0.019387
      dxy     :     0.014829

  3 H s       :     0.960161  s :     0.960161
      pz      :     0.010751  p :     0.023189
      px      :     0.007685
      py      :     0.004753

  4 H s       :     0.963990  s :     0.963990
      pz      :     0.004238  p :     0.022792
      px      :     0.003799
      py      :     0.014755

  5 C s       :     3.111882  s :     3.111882
      pz      :     1.005319  p :     3.027884
      px      :     0.975035
      py      :     1.047530
      dz2     :     0.011250  d :     0.044787
      dxz     :     0.006666
      dyz     :     0.011867
      dx2y2   :     0.008382
      dxy     :     0.006621

  6 C s       :     2.949160  s :     2.949160
      pz      :     0.974557  p :     2.904358
      px      :     0.965760
      py      :     0.964040
      dz2     :     0.006992  d :     0.035467
      dxz     :     0.009452
      dyz     :     0.004941
      dx2y2   :     0.009231
      dxy     :     0.004852

  7 C s       :     3.012974  s :     3.012974
      pz      :     0.990412  p :     2.945187
      px      :     0.988998
      py      :     0.965777
      dz2     :     0.005355  d :     0.035019
      dxz     :     0.008269
      dyz     :     0.006581
      dx2y2   :     0.009670
      dxy     :     0.005143

  8 H s       :     0.946899  s :     0.946899
      pz      :     0.011371  p :     0.023288
      px      :     0.007219
      py      :     0.004698

  9 H s       :     0.964923  s :     0.964923
      pz      :     0.004463  p :     0.022821
      px      :     0.003728
      py      :     0.014630

 10 H s       :     0.953751  s :     0.953751
      pz      :     0.011354  p :     0.022693
      px      :     0.005144
      py      :     0.006196

 11 H s       :     0.965981  s :     0.965981
      pz      :     0.010870  p :     0.022690
      px      :     0.007246
      py      :     0.004574

 12 O s       :     3.726279  s :     3.726279
      pz      :     1.539834  p :     4.616603
      px      :     1.247794
      py      :     1.828974
      dz2     :     0.002529  d :     0.012208
      dxz     :     0.004107
      dyz     :     0.001648
      dx2y2   :     0.001805
      dxy     :     0.002120

 13 H s       :     0.965626  s :     0.965626
      pz      :     0.011013  p :     0.020223
      px      :     0.005028
      py      :     0.004181

 14 C s       :     3.197094  s :     3.197094
      pz      :     0.989121  p :     2.791348
      px      :     0.888425
      py      :     0.913802
      dz2     :     0.002772  d :     0.036235
      dxz     :     0.007625
      dyz     :     0.003222
      dx2y2   :     0.012227
      dxy     :     0.010389

 15 C s       :     3.122679  s :     3.122679
      pz      :     0.976305  p :     2.895444
      px      :     1.001028
      py      :     0.918111
      dz2     :     0.007173  d :     0.026247
      dxz     :     0.004199
      dyz     :     0.007021
      dx2y2   :     0.004888
      dxy     :     0.002965

 16 H s       :     0.939142  s :     0.939142
      pz      :     0.010941  p :     0.024547
      px      :     0.006172
      py      :     0.007433

 17 H s       :     0.946138  s :     0.946138
      pz      :     0.004045  p :     0.024624
      px      :     0.004662
      py      :     0.015917

 18 C s       :     3.200645  s :     3.200645
      pz      :     1.029495  p :     2.824485
      px      :     0.878375
      py      :     0.916615
      dz2     :     0.002855  d :     0.035297
      dxz     :     0.007030
      dyz     :     0.003071
      dx2y2   :     0.012417
      dxy     :     0.009925

 19 H s       :     0.982647  s :     0.982647
      pz      :     0.004636  p :     0.024317
      px      :     0.004341
      py      :     0.015340

 20 C s       :     3.099836  s :     3.099836
      pz      :     0.955812  p :     2.972182
      px      :     0.991476
      py      :     1.024893
      dz2     :     0.003539  d :     0.044005
      dxz     :     0.007226
      dyz     :     0.006847
      dx2y2   :     0.014659
      dxy     :     0.011734

 21 H s       :     0.974973  s :     0.974973
      pz      :     0.004631  p :     0.024537
      px      :     0.004255
      py      :     0.015651

 22 C s       :     2.924646  s :     2.924646
      pz      :     1.002552  p :     2.925115
      px      :     0.975683
      py      :     0.946879
      dz2     :     0.009475  d :     0.035550
      dxz     :     0.004203
      dyz     :     0.005997
      dx2y2   :     0.009852
      dxy     :     0.006023

 23 C s       :     3.001005  s :     3.001005
      pz      :     1.008858  p :     2.963293
      px      :     0.968130
      py      :     0.986305
      dz2     :     0.009557  d :     0.036417
      dxz     :     0.007876
      dyz     :     0.003209
      dx2y2   :     0.010199
      dxy     :     0.005575

 24 H s       :     0.964027  s :     0.964027
      pz      :     0.004679  p :     0.023242
      px      :     0.013899
      py      :     0.004665

 25 H s       :     0.959124  s :     0.959124
      pz      :     0.013456  p :     0.023307
      px      :     0.005019
      py      :     0.004832

 26 C s       :     2.970880  s :     2.970880
      pz      :     0.968139  p :     2.888184
      px      :     0.975224
      py      :     0.944821
      dz2     :     0.006709  d :     0.035330
      dxz     :     0.006806
      dyz     :     0.005797
      dx2y2   :     0.008714
      dxy     :     0.007304

 27 H s       :     0.964420  s :     0.964420
      pz      :     0.013415  p :     0.022879
      px      :     0.004685
      py      :     0.004779

 28 H s       :     0.962352  s :     0.962352
      pz      :     0.004673  p :     0.022643
      px      :     0.003810
      py      :     0.014160

 29 C s       :     3.256131  s :     3.256131
      pz      :     1.043039  p :     3.104882
      px      :     1.004765
      py      :     1.057078
      dz2     :     0.011746  d :     0.051020
      dxz     :     0.010251
      dyz     :     0.009453
      dx2y2   :     0.010945
      dxy     :     0.008626

 30 H s       :     0.968308  s :     0.968308
      pz      :     0.009396  p :     0.023030
      px      :     0.007313
      py      :     0.006321

 31 H s       :     0.980290  s :     0.980290
      pz      :     0.012883  p :     0.022533
      px      :     0.005158
      py      :     0.004491

 32 C s       :     3.031864  s :     3.031864
      pz      :     0.985043  p :     2.965760
      px      :     0.950804
      py      :     1.029913
      dz2     :     0.008466  d :     0.043834
      dxz     :     0.007527
      dyz     :     0.007897
      dx2y2   :     0.011081
      dxy     :     0.008864

 33 H s       :     0.967752  s :     0.967752
      pz      :     0.012124  p :     0.021276
      px      :     0.004427
      py      :     0.004725

 34 C s       :     2.901732  s :     2.901732
      pz      :     0.987440  p :     2.947663
      px      :     0.978370
      py      :     0.981853
      dz2     :     0.005467  d :     0.034797
      dxz     :     0.005930
      dyz     :     0.008160
      dx2y2   :     0.008840
      dxy     :     0.006401

 35 H s       :     0.750154  s :     0.750154
[...]
 Total          139.418          173.981          192.019  iso=     168.473

 Orientation: 
  X           0.3103737   -0.4874194    0.8161437
  Y          -0.1436289   -0.8727318   -0.4665940
  Z           0.9397015    0.0275967   -0.3408805

 --------------
 Nucleus  39C :
 --------------

Diamagnetic contribution to the shielding tensor (ppm) : 
           263.814          3.915        -6.663
             3.467        262.278         8.106
            -6.542          5.810       261.532

Paramagnetic contribution to the shielding tensor (ppm): 
           -98.113          0.214         7.059
             4.945       -126.904        -3.170
            11.690         -3.284      -131.653

Total shielding tensor (ppm): 
           165.702          4.129         0.396
             8.412        135.374         4.936
             5.149          2.526       129.879


 Diagonalized sT*s matrix:
 
 sDSO           255.758          267.596          264.271  iso=     262.541
 sPSO          -127.768         -131.895          -97.007  iso=    -118.890
        ---------------  ---------------  ---------------
 Total          127.990          135.701          167.264  iso=     143.651

 Orientation: 
  X           0.0146380   -0.2125372   -0.9770433
  Y          -0.4634566    0.8644025   -0.1949778
  Z           0.8859987    0.4556712   -0.0858486

 --------------
 Nucleus  43C :
 --------------

Diamagnetic contribution to the shielding tensor (ppm) : 
           258.417         -0.824        -5.638
            -5.439        248.052        10.874
            -8.091         12.233       246.236

Paramagnetic contribution to the shielding tensor (ppm): 
           -93.803         -2.078         3.539
             8.464        -96.778        -8.050
             7.982        -10.711       -93.604

Total shielding tensor (ppm): 
           164.614         -2.901        -2.098
             3.026        151.274         2.824
            -0.109          1.522       152.632


 Diagonalized sT*s matrix:
 
 sDSO           236.213          256.724          259.769  iso=     250.902
 sPSO           -86.569         -102.562          -95.054  iso=     -94.729
        ---------------  ---------------  ---------------
 Total          149.644          154.161          164.715  iso=     156.173

 Orientation: 
  X           0.0415804    0.0878771   -0.9952631
  Y          -0.7994345    0.6004329    0.0196164
  Z           0.5993126    0.7948320    0.0952183

 --------------
 Nucleus  44C :
 --------------

Diamagnetic contribution to the shielding tensor (ppm) : 
           251.277          0.415         2.683
            -2.066        257.123        -1.628
             0.864          2.279       271.813

Paramagnetic contribution to the shielding tensor (ppm): 
           -71.898         -4.681        -2.678
            -0.359        -77.508        -1.454
            -0.771         -5.370       -78.904

Total shielding tensor (ppm): 
           179.379         -4.266         0.004
            -2.425        179.615        -3.081
             0.092         -3.091       192.909


 Diagonalized sT*s matrix:
 
 sDSO           254.174          254.983          271.057  iso=     260.071
 sPSO           -78.297          -72.590          -77.423  iso=     -76.104
        ---------------  ---------------  ---------------
 Total          175.877          182.392          193.634  iso=     183.968

 Orientation: 
  X           0.6859500   -0.7254698    0.0562696
  Y           0.7162861    0.6596038   -0.2277217
  Z           0.1280896    0.1965108    0.9720991

 --------------
 Nucleus  49C :
 --------------

Diamagnetic contribution to the shielding tensor (ppm) : 
           242.863         -6.397        -2.137
           -20.517        258.106         8.105
            -8.182          7.003       243.211

Paramagnetic contribution to the shielding tensor (ppm): 
           -69.683          2.208        -4.383
            20.059        -70.883        -0.015
             3.186         -1.222       -75.929

Total shielding tensor (ppm): 
           173.180         -4.190        -6.519
            -0.458        187.223         8.091
            -4.995          5.781       167.283


 Diagonalized sT*s matrix:
 
 sDSO           239.566          237.911          266.703  iso=     248.060
 sPSO           -76.800          -63.344          -76.351  iso=     -72.165
        ---------------  ---------------  ---------------
 Total          162.767          174.568          190.352  iso=     175.895

 Orientation: 
  X           0.4379178   -0.8691567    0.2297707
  Y          -0.2119482   -0.3481891   -0.9131497
  Z           0.8736738    0.3511850   -0.3366944

 --------------
 Nucleus  50C :
 --------------

Diamagnetic contribution to the shielding tensor (ppm) : 
           266.007         12.296         8.372
            11.160        262.972        -3.998
            18.181        -14.974       251.986

Paramagnetic contribution to the shielding tensor (ppm): 
          -201.113        -22.431       -91.475
           -27.417       -165.084        40.075
           -97.777         56.204      -239.791

Total shielding tensor (ppm): 
            64.894        -10.135       -83.103
           -16.257         97.887        36.076
           -79.596         41.230        12.195


 Diagonalized sT*s matrix:
 
 sDSO           270.487          272.364          238.114  iso=     260.322
 sPSO          -318.405         -197.232          -90.352  iso=    -201.996
        ---------------  ---------------  ---------------
 Total          -47.918           75.132          147.762  iso=      58.325

 Orientation: 
  X          -0.6277013    0.4672593   -0.6226234
  Y           0.0361351    0.8164473    0.5762882
  Z          -0.7776152   -0.3392383    0.5293695

 --------------
 Nucleus  51C :
 --------------

Diamagnetic contribution to the shielding tensor (ppm) : 
           266.475         11.537         9.597
            12.464        270.275       -13.095
             1.243         -7.631       270.570

Paramagnetic contribution to the shielding tensor (ppm): 
          -199.474        -24.383       -89.610
           -33.713       -161.068        48.720
           -79.353         43.321      -243.368

Total shielding tensor (ppm): 
            67.000        -12.846       -80.013
           -21.249        109.206        35.625
           -78.110         35.691        27.203


 Diagonalized sT*s matrix:
 
 sDSO           274.355          282.638          250.326  iso=     269.107
 sPSO          -310.602         -199.169          -94.140  iso=    -201.303
        ---------------  ---------------  ---------------
 Total          -36.247           83.470          156.186  iso=      67.803

 Orientation: 
  X          -0.6173642    0.5136112   -0.5958734
  Y           0.0769318    0.7932425    0.6040264
  Z          -0.7829068   -0.3270627    0.5292325

 --------------
 Nucleus  54C :
 --------------

Diamagnetic contribution to the shielding tensor (ppm) : 
           254.636          1.998        -0.417
             8.551        248.122        -0.600
             3.999         -2.594       243.954

Paramagnetic contribution to the shielding tensor (ppm): 
           -93.968         -0.459        -3.772
            -3.755        -99.474         2.331
            -3.788          3.694       -87.093

Total shielding tensor (ppm): 
           160.668          1.540        -4.188
             4.796        148.648         1.731
             0.210          1.100       156.861


 Diagonalized sT*s matrix:
 
 sDSO           246.619          245.808          254.286  iso=     248.904
 sPSO           -99.127          -89.093          -92.315  iso=     -93.512
        ---------------  ---------------  ---------------
 Total          147.491          156.715          161.971  iso=     155.392

 Orientation: 
  X          -0.2532326    0.2633855    0.9308605
  Y           0.9474470    0.2619682    0.1836213
  Z          -0.1954927    0.9284400   -0.3158827

 --------------
 Nucleus  55C :
 --------------

Diamagnetic contribution to the shielding tensor (ppm) : 
           239.298         -3.497         1.027
            21.649        261.052        -3.496
            13.362          1.511       246.649

Paramagnetic contribution to the shielding tensor (ppm): 
           -64.616          4.301        -4.581
           -18.295        -70.004        18.073
           -12.470          9.780       -83.904

Total shielding tensor (ppm): 
           174.681          0.804        -3.554
             3.354        191.048        14.577
             0.892         11.292       162.745


 Diagonalized sT*s matrix:
 
 sDSO           249.960          237.045          259.993  iso=     248.999
 sPSO           -92.466          -62.231          -63.827  iso=     -72.841
        ---------------  ---------------  ---------------
 Total          157.494          174.814          196.166  iso=     176.158

 Orientation: 
  X           0.1198115   -0.9901126   -0.0729531
  Y          -0.3684030    0.0238970   -0.9293590
  Z           0.9219135    0.1382240   -0.3618973

 --------------
 Nucleus  56C :
 --------------

Diamagnetic contribution to the shielding tensor (ppm) : 
           246.528         -2.463        -5.750
            -7.431        236.525       -10.237
            -6.524         -8.805       248.757

Paramagnetic contribution to the shielding tensor (ppm): 
           -72.121          0.874         2.198
             7.074        -75.389        12.180
            -2.047         14.937       -88.454

Total shielding tensor (ppm): 
           174.407         -1.589        -3.552
            -0.356        161.135         1.943
            -8.571          6.131       160.303


 Diagonalized sT*s matrix:
 
 sDSO           252.383          228.424          251.002  iso=     243.936
 sPSO           -96.639          -65.327          -73.999  iso=     -78.655
        ---------------  ---------------  ---------------
 Total          155.744          163.097          177.004  iso=     165.282

 Orientation: 
  X           0.2230698    0.3240248   -0.9193736
  Y          -0.5518666    0.8194207    0.1548966
  Z           0.8035441    0.4728188    0.3616065

 --------------
 Nucleus  59C :
 --------------

Diamagnetic contribution to the shielding tensor (ppm) : 
           241.780          1.467         0.025
             4.660        234.378       -12.573
           -15.463        -11.227       251.866

Paramagnetic contribution to the shielding tensor (ppm): 
           -66.461         -3.283         1.694
            -7.493        -51.675         5.671
            19.045         -2.311       -63.722

Total shielding tensor (ppm): 
           175.320         -1.816         1.719
            -2.833        182.703        -6.902
             3.583        -13.537       188.144


 Diagonalized sT*s matrix:
 
 sDSO           236.165          238.126          253.734  iso=     242.675
 sPSO           -61.603          -63.101          -57.154  iso=     -60.619
        ---------------  ---------------  ---------------
 Total          174.562          175.025          196.579  iso=     182.055

 Orientation: 
  X           0.7895148   -0.5908815    0.1659082
  Y           0.5531835    0.5680503   -0.6093495
  Z           0.2658092    0.5728681    0.7753500

 --------------
 Nucleus  60C :
 --------------

Diamagnetic contribution to the shielding tensor (ppm) : 
           248.094         -3.989        -3.194
           -20.741        240.408        -0.172
            -6.007         -4.920       232.673

Paramagnetic contribution to the shielding tensor (ppm): 
           -81.876         -7.564         0.859
             7.385        -52.011        -6.185
             0.465          3.177       -63.093

Total shielding tensor (ppm): 
           166.219        -11.553        -2.335
           -13.355        188.397        -6.357
            -5.542         -1.743       169.580


 Diagonalized sT*s matrix:
 
 sDSO           232.079          238.480          250.616  iso=     240.392
 sPSO           -73.892          -66.636          -56.451  iso=     -65.660
        ---------------  ---------------  ---------------
 Total          158.187          171.844          194.165  iso=     174.732

 Orientation: 
  X           0.8141094   -0.4234740   -0.3973608
  Y           0.3983105   -0.0907341    0.9127519
  Z           0.4225809    0.9013529   -0.0948067



--------------------------------
CHEMICAL SHIELDING SUMMARY (ppm)
--------------------------------


  Nucleus  Element    Isotropic     Anisotropy
  -------  -------  ------------   ------------
      0       C           59.662        148.098 
      1       C          151.152         30.008 
      2       C          128.877         55.167 
      5       C           51.554        179.224 
      6       C          165.016         22.928 
      7       C          161.661         22.581 
     14       C           74.692        128.400 
     15       C           83.043        121.217 
     18       C           79.593        134.357 
     20       C           52.426        175.012 
     22       C          169.271          8.594 
     23       C          174.499         12.618 
     26       C          158.631         24.115 
     29       C          154.470         17.067 
     32       C          142.821         28.832 
     34       C          174.949         23.375 
     36       C          168.473         35.319 
     39       C          143.651         35.418 
     43       C          156.173         12.812 
     44       C          183.968         14.500 
     49       C          175.895         21.685 
     50       C           58.325        134.155 
     51       C           67.803        132.575 
     54       C          155.392          9.868 
     55       C          176.158         30.012 
     56       C          165.282         17.583 
     59       C          182.055         21.786 
     60       C          174.732         29.149 


NMR shielding tensor and spin rotation calculation done in   1.0 sec 

Maximum memory used throughout the entire PROP-calculation: 51.5 MB

--------------------------------
SUGGESTED CITATIONS FOR THIS RUN
--------------------------------

Below you find a list of papers that are relevant to this ORCA run
We neither can nor want to force you to cite these papers, but we appreciate if you do
You receive ORCA, which is the product of decades of hard work by many enthusiastic individuals, for free
The only thing we kindly ask in return is that you cite our papers,
We deeply appreciate it, if you show your appreciation for ORCA by not just citing the generic ORCA reference.

Please note that relegating all ORCA citations to the supporting information does *not* help us.
SI sections are not indexed - citations you put there will not count into any citation statistics
But we need these citations in order to attract the funding resources that allow us to do what we are doing

Therefore, if you are a happy ORCA user, please consider citing a few of the papers listed below in the main body of your paper

In addition to the list printed below, the program has created the file inpS.bibtex that contains the list in bibtex format
You can import this file easily into all common literature databanks and citation aid programs


List of essential papers. We consider these as the minimum necessary citations

  1. Neese,F.
     Software update: the ORCA program system, version 5.0
     WIRES Comput. Molec. Sci., 2022 12(1)e1606
     doi.org/10.1002/wcms.1606

List of papers to cite with high priority. The work reported in these papers was absolutely
necessary for this run to complete.
Our perspective: the developers of density functionals and basis sets usually get cited in chemistry papers
Good! But without the algorithms to do something with them, the functionals or basis sets would not do anything.
Hence, in our opinion, the algorithm design and method developments papers are equally worthy of getting cited

  1. Neese,F.
     An improvement of the resolution of the identity approximation for the formation of the Coulomb matrix
     J. Comp. Chem., 2003 24(14)1740-1747
     doi.org/10.1002/jcc.10318
  2. Neese,F.; Wennmohs,F.; Hansen,A.; Becker,U.
     Efficient, approximate and parallel Hartree-Fock and hybrid DFT calculations. A 'chain-of-spheres' algorithm for the Hartree-Fock exchange
     Chem. Phys., 2009 356(1-3)98-109
     doi.org/10.1016/j.chemphys.2008.10.036
  3. Stoychev,G.L.; Auer,A.A.; Izsak,R.; Neese,F.
     Self-Consistent Field Calculation of Nuclear Magnetic Resonance Chemical Shielding Constants Using Gauge-Including Atomic Orbitals and Approximate Two-Electron Integrals
     J. Chem. Theory Comput., 2018 14(2)619-637
     doi.org/10.1021/acs.jctc.7b01006
  4. Garcia-Rates,M.; Neese,F.
     Effect of the Solute Cavity on the Solvation Energy and its Derivatives within the Framework of the Gaussian Charge Scheme
     J. Comput. Chem., 2020 41 922-939
     doi.org/10.1002/jcc.26139
  5. Helmich-Paris,B.; de Souza,B.; Neese,F.; Izsák,R.
     An improved chain of spheres for exchange algorithm
     J. Chem. Phys., 2021 155 104109
     doi.org/doi: 10.1063/5.0058766.
  6. Neese,F.
     The SHARK Integral Generation and Digestion System
     J. Comp. Chem., 2022  1-16
     doi.org/10.1002/jcc.26942
  7. Caldeweyher,E.; Bannwarth,C.; Grimme,S.
     Extension of the D3 dispersion coefficient model
     J. Chem. Phys., 2017 147 034112-XXXX
     doi.org/10.1063/1.4993215
  8. Caldeweyher,E.; Ehlert,S.; Hansen,A.; Neugebauer,H.; Spicher,S.; Bannwarth,C.; Grimme,S.
     A generally applicable atomic-charge dependent London dispersion correction
     J. Chem. Phys., 2019 150 154122-XXXX
     doi.org/10.1063/1.5090222
  9. Caldeweyher,E.; Mewes,J.; Ehlert,S.; Grimme,S.
     Extension and evaluation of the D4 London-dispersion model for periodic systems
     Phys. Chem. Chem. Phys., 2020 22(16)8499-8512
     doi.org/10.1039/D0CP00502A

List of suggested additional citations. These are papers that are important in the 'surrounding' of 
of this run, or papers that preceded the highly important papers. If you like your results we are grateful for a citation.

  1. Izsak,R.; Neese,F.
     An overlap fitted chain of spheres exchange method
     J. Chem. Phys., 2011 135 144105
     doi.org/10.1063/1.3646921
  2. Izsak,R.; Hansen,A.; Neese,F.
     The resolution of identity and chain of spheres approximations for the LPNO-CCSD singles Fock term
     Molec. Phys., 2012 110 2413-2417
     doi.org/10.1080/00268976.2012.687466
  3. Neese,F.
     The ORCA program system
     WIRES Comput. Molec. Sci., 2012 2(1)73-78
     doi.org/10.1002/wcms.81
  4. Izsak,R.; Neese,F.; Klopper,W.
     Robust fitting techniques in the chain of spheres approximation to the Fock exchange: The role of the complementary space
     J. Chem. Phys., 2013 139 
     doi.org/10.1063/1.4819264
  5. Neese,F.
     Software update: the ORCA program system, version 4.0
     WIRES Comput. Molec. Sci., 2018 8(1)1-6
     doi.org/10.1002/wcms.1327
  6. Neese,F.; Wennmohs,F.; Becker,U.; Riplinger,C.
     The ORCA quantum chemistry program package
     J. Chem. Phys., 2020 152 Art. No. L224108
     doi.org/10.1063/5.0004608

Timings for individual modules:

Sum of individual times          ...      177.330 sec (=   2.956 min)
Startup calculation              ...        4.726 sec (=   0.079 min)   2.7 %
SCF iterations                   ...       71.225 sec (=   1.187 min)  40.2 %
Property integrals               ...       61.199 sec (=   1.020 min)  34.5 %
SCF Response                     ...       38.857 sec (=   0.648 min)  21.9 %
Property calculations            ...        1.322 sec (=   0.022 min)   0.7 %
                             ****ORCA TERMINATED NORMALLY****
TOTAL RUN TIME: 0 days 0 hours 2 minutes 57 seconds 620 msec
