
                                 *****************
                                 * O   R   C   A *
                                 *****************

                                            #,                                       
                                            ###                                      
                                            ####                                     
                                            #####                                    
                                            ######                                   
                                           ########,                                 
                                     ,,################,,,,,                         
                               ,,#################################,,                 
                          ,,##########################################,,             
                       ,#########################################, ''#####,          
                    ,#############################################,,   '####,        
                  ,##################################################,,,,####,       
                ,###########''''           ''''###############################       
              ,#####''   ,,,,##########,,,,          '''####'''          '####       
            ,##' ,,,,###########################,,,                        '##       
           ' ,,###''''                  '''############,,,                           
         ,,##''                                '''############,,,,        ,,,,,,###''
      ,#''                                            '''#######################'''  
     '                                                          ''''####''''         
             ,#######,   #######,   ,#######,      ##                                
            ,#'     '#,  ##    ##  ,#'     '#,    #''#        ,####,   ,####,        
            ##       ##  ##   ,#'  ##            #'  '#       #'       #'  '#        
            ##       ##  #######   ##           ,######,      #####,   #    #        
            '#,     ,#'  ##    ##  '#,     ,#' ,#      #,     #,   #   #,  ,#        
             '#######'   ##     ##  '#######'  #'      '#     '####' # '####'        



                #########################################################
                #                        -***-                          #
                #          Department of theory and spectroscopy        #
                #                                                       #
                #                      Frank Neese                      #
                #                                                       #
                #     Directorship, Architecture, Infrastructure        #
                #                    SHARK, DRIVERS                     #
                #        Core code/Algorithms in most modules           #
                #                                                       #
                #        Max Planck Institute fuer Kohlenforschung      #
                #                Kaiser Wilhelm Platz 1                 #
                #                 D-45470 Muelheim/Ruhr                 #
                #                      Germany                          #
                #                                                       #
                #                  All rights reserved                  #
                #                        -***-                          #
                #########################################################


                         Program Version 6.0.0  -   RELEASE  -


 With contributions from (in alphabetic order):
   Daniel Aravena         : Magnetic Suceptibility
   Michael Atanasov       : Ab Initio Ligand Field Theory (pilot matlab implementation)
   Alexander A. Auer      : GIAO ZORA, VPT2 properties, NMR spectrum
   Ute Becker             : All parallelization in ORCA, NUMFREQ, NUMCALC
   Giovanni Bistoni       : ED, misc. LED, open-shell LED, HFLD
   Martin Brehm           : Molecular dynamics
   Dmytro Bykov           : pre 5.0 version of the SCF Hessian
   Marcos Casanova-Páez   : Triplet and SCS-CIS(D). UHF-(DLPNO)-IP/EA/STEOM-CCSD. UHF-CVS-IP/STEOM-CCSD
   Vijay G. Chilkuri      : MRCI spin determinant printing, contributions to CSF-ICE
   Pauline Colinet        : FMM embedding
   Dipayan Datta          : RHF DLPNO-CCSD density
   Achintya Kumar Dutta   : EOM-CC, STEOM-CC
   Nicolas Foglia         : Exact transition moments, OPA infrastructure, MCD improvements
   Dmitry Ganyushin       : Spin-Orbit,Spin-Spin,Magnetic field MRCI
   Miquel Garcia          : C-PCM and meta-GGA Hessian, CCSD/C-PCM, Gaussian charge scheme
   Tiago L. C. Gouveia    : GS-ROHF, GS-ROCIS
   Yang Guo               : DLPNO-NEVPT2, F12-NEVPT2, CIM, IAO-localization
   Andreas Hansen         : Spin unrestricted coupled pair/coupled cluster methods
   Ingolf Harden          : AUTO-CI MPn and infrastructure 
   Benjamin Helmich-Paris : MC-RPA, TRAH-(SCF,CASSCF), AVAS, COSX integrals, SCF dyn. polar.
   Lee Huntington         : MR-EOM, pCC
   Robert Izsak           : Overlap fitted RIJCOSX, COSX-SCS-MP3, EOM
   Riya Kayal             : Wick's Theorem for AUTO-CI, AUTO-CI UHF-CCSDT
   Emily Kempfer          : AUTO-CI, RHF CISDT and CCSDT
   Christian Kollmar      : KDIIS, OOCD, Brueckner-CCSD(T), CCSD density, CASPT2, CASPT2-K, improved NEVPT2
   Axel Koslowski         : Symmetry handling
   Simone Kossmann        : Meta GGA functionals, TD-DFT gradient, OOMP2, (MP2 Hessian; deprecated post 5.0)
   Lucas Lang             : DCDCAS
   Marvin Lechner         : AUTO-CI (C++ implementation), FIC-MRCC
   Spencer Leger          : CASSCF response
   Dagmar Lenk            : GEPOL surface, SMD, ORCA-2-JSON
   Dimitrios Liakos       : Extrapolation schemes; Compound Job, initial MDCI parallelization
   Dimitrios Manganas     : Further ROCIS development; embedding schemes. LFT, Crystal Embedding
   Dimitrios Pantazis     : SARC Basis sets
   Anastasios Papadopoulos: AUTO-CI, single reference methods and gradients
   Taras Petrenko         : pre 6.0 DFT Hessian and TD-DFT gradient, (ASA, deprecated), ECA, 1-Electron XAS/XES, NRVS
   Peter Pinski           : DLPNO-MP2, DLPNO-MP2 Gradient
   Christoph Reimann      : Effective Core Potentials
   Marius Retegan         : Local ZFS, SOC
   Christoph Riplinger    : Optimizer, TS searches, QM/MM, DLPNO-CCSD(T), (RO)-DLPNO pert. Triples
   Michael Roemelt        : Original ROCIS implementation
   Masaaki Saitow         : Open-shell DLPNO-CCSD energy and density
   Barbara Sandhoefer     : DKH picture change effects
   Kantharuban Sivalingam : CASSCF convergence/infrastructure, NEVPT2 and variants, FIC-MRCI
   Bernardo de Souza      : ESD, SOC TD-DFT
   Georgi Stoychev        : AutoAux, RI-MP2 NMR, DLPNO-MP2 response, X2C
   Van Anh Tran           : RI-MP2 g-tensors
   Willem Van den Heuvel  : Paramagnetic NMR
   Zikuan Wang            : NOTCH, Electric field optimization 
   Frank Wennmohs         : Technical directorship and infrastructure
   Hang Xu                : AUTO-CI-Response properties 


 We gratefully acknowledge several colleagues who have allowed us to
 interface, adapt or use parts of their codes:
   Stefan Grimme, W. Hujo, H. Kruse, P. Pracht,  : VdW corrections, initial TS optimization,
                  C. Bannwarth, S. Ehlert,         DFT functionals, gCP, sTDA/sTD-DF
                  L. Wittmann, M. Mueller
   Ed Valeev, F. Pavosevic, A. Kumar             : LibInt (2-el integral package), F12 methods
   Garnet Chan, S. Sharma, J. Yang, R. Olivares  : DMRG
   Ulf Ekstrom                                   : XCFun DFT Library
   Mihaly Kallay                                 : mrcc  (arbitrary order and MRCC methods)
   Frank Weinhold                                : gennbo (NPA and NBO analysis)
   Simon Mueller                                 : openCOSMO-RS
   Christopher J. Cramer and Donald G. Truhlar   : smd solvation model
   Lars Goerigk                                  : TD-DFT with DH, B97 family of functionals
   V. Asgeirsson, H. Jonsson                     : NEB implementation
   FAccTs GmbH                                   : IRC, NEB, NEB-TS, DLPNO-Multilevel, CI-OPT
                                                   MM, QMMM, 2- and 3-layer-ONIOM, Crystal-QMMM,
                                                   LR-CPCM, SF, NACMEs, symmetry and pop. for TD-DFT,
                                                   nearIR, NL-DFT gradient (VV10), updates on ESD,
                                                   ML-optimized integration grids, MBIS, APM,
                                                   GOAT, DOCKER, SOLVATOR, interface openCOSMO-RS
   S Lehtola, MJT Oliveira, MAL Marques          : LibXC Library
   Liviu Ungur et al                             : ANISO software


 Your calculation uses the libint2 library for the computation of 2-el integrals
 For citations please refer to: http://libint.valeyev.net

 Your ORCA version has been built with support for libXC version: 6.2.2
 For citations please refer to: https://libxc.gitlab.io

 This ORCA versions uses:
   CBLAS   interface :  Fast vector & matrix operations
   LAPACKE interface :  Fast linear algebra routines
   SCALAPACK package :  Parallel linear algebra routines
   Shared memory     :  Shared parallel matrices
   BLAS/LAPACK       :  OpenBLAS 0.3.27  USE64BITINT DYNAMIC_ARCH NO_AFFINITY Zen SINGLE_THREADED
        Core in use  :  Zen
   Copyright (c) 2011-2014, The OpenBLAS Project


NOTE: MaxCore=8000 MB was set to SCF,MP2,MDCI,CIPSI,MRCI and CIS
      => If you want to overwrite this, your respective input block should be placed after the MaxCore statement
Your calculation utilizes the atom-pairwise dispersion correction
based on EEQ partial charges (D4)


================================================================================

----- Orbital basis set information -----
Your calculation utilizes the basis: pcJ-0
   F. Jensen, Theor. Chem. Acc. 126, 371 (2010).

----- AuxJ basis set information -----
Your calculation utilizes the auxiliary basis: def2/J
   F. Weigend, Phys. Chem. Chem. Phys. 8, 1057 (2006).

================================================================================
                                        WARNINGS
                       Please study these warnings very carefully!
================================================================================

WARNING: Old DensityContainer found on disk!
         Will remove this file - 
         If you want to keep old densities, please start your calculation with a different basename. 


================================================================================
                                       INPUT FILE
================================================================================
NAME = inpJ
|  1> ! pbe0
|  2> ! D4
|  3> ! pcJ-0
|  4> ! def2/J RIJCOSX
|  5> ! DEFGRID2
|  6> ! scfconv7
|  7> ! smallprint printgap noloewdin
|  8> ! NOSOSCF
|  9> %MaxCore 8000
| 10> %output
| 11>        print[P_BondOrder_M] 1
| 12>        print[P_Mayer] 1
| 13>        print[P_basis] 2
| 14> end
| 15> %pal
| 16>     nprocs 4
| 17> end
| 18> ! CPCM(chloroform)
| 19> *xyz 0 1
| 20> C   -5.0234418400   0.2991997900   0.3423899600
| 21> C   -6.4308484400  -0.1370136400   0.0094722500
| 22> C   -6.9847601700   0.6122833400  -1.2084822400
| 23> H   -7.0950027100   0.0888144100   0.8611244100
| 24> H   -6.4694997300  -1.2175223000  -0.1671469000
| 25> C   -4.8510591200   1.7641728200   0.4439410500
| 26> C   -5.4498126400   2.5454699800  -0.7038783700
| 27> C   -6.8961790600   2.1182994500  -0.9891593000
| 28> H   -4.8475965600   2.3545012800  -1.6051776100
| 29> H   -5.3978651000   3.6197530200  -0.4978809300
| 30> H   -7.2804909500   2.6436508400  -1.8713654400
| 31> H   -7.5357727700   2.3877863000  -0.1350438400
| 32> O   -8.3226469500   0.1948606600  -1.5098073800
| 33> H   -6.3961666500   0.3379559200  -2.0952164300
| 34> C   -4.0284347200  -0.6090240300   0.4792191600
| 35> C   -4.2576169500   2.3651915300   1.4816043000
| 36> H   -3.8554685500   1.7929420700   2.3129718100
| 37> H   -4.1707987100   3.4482814200   1.5260510400
| 38> C   -2.6295845000  -0.3230259800   0.6994567800
| 39> H   -4.3137878200  -1.6544725100   0.3702634300
| 40> C   -1.6490928100  -1.2280763900   0.9071876700
| 41> H   -2.3509795300   0.7281579000   0.6821908900
| 42> C   -1.8359981500  -2.7209154000   1.0086633100
| 43> C   -0.8995339000  -3.4820338300   0.0511036500
| 44> H   -2.8722681500  -3.0229176700   0.8338766300
| 45> H   -1.5888586500  -3.0206767600   2.0398148900
| 46> C    0.5648375200  -3.0387397800   0.1772838800
| 47> H   -1.2439936600  -3.3333007300  -0.9800420400
| 48> H   -0.9758207500  -4.5575472500   0.2529181800
| 49> C    0.7173819300  -1.5197835000   0.0176997700
| 50> H    1.1644561000  -3.5794506000  -0.5623584900
| 51> H    0.9453168700  -3.3238984700   1.1697860500
| 52> C   -0.2111723000  -0.8426292100   1.0749196800
| 53> H    0.1135046500  -1.2712565000   2.0413310500
| 54> C    0.2182285500   0.6215765500   1.0682900500
| 55> H   -8.8773439500   0.4253716200  -0.7525572100
| 56> C    1.7476881700   0.5500573800   0.8350484600
| 57> H   -0.0472898900   1.1316437500   2.0003073200
| 58> H   -0.2688284300   1.1664038900   0.2518917800
| 59> C    2.0848880300  -0.9216597700   0.4505618500
| 60> H    2.3119497300   0.8561471500   1.7215711900
| 61> H    2.0530817500   1.2261777900   0.0277467700
| 62> H    2.3846754300  -1.4635142200   1.3626112000
| 63> C    3.2731747700  -0.9912383000  -0.5301444700
| 64> C    0.3492312100  -1.0743152600  -1.4038066000
| 65> H   -0.7145956400  -1.2295589500  -1.6079390500
| 66> H    0.9222729400  -1.6398617100  -2.1468997700
| 67> H    0.5598996300  -0.0116110000  -1.5601818200
| 68> H    3.0063419400  -0.4279183700  -1.4367781600
| 69> C    3.6506595900  -2.4244121400  -0.9349173400
| 70> C    4.4717076700  -0.3235990400   0.0895216300
| 71> C    5.0960304600   0.7480028300  -0.3969193300
| 72> H    4.8455343900  -0.7842453500   1.0097806300
| 73> H    4.7091248500   1.2076626200  -1.3102839000
| 74> C    6.2868083200   1.4163993600   0.2305367800
| 75> C    5.9428679500   2.8681114400   0.5964266500
| 76> C    7.5608605900   1.3298972600  -0.6517448900
| 77> H    6.5196456700   0.8790893000   1.1622832200
| 78> H    8.3466636800   1.8683256900  -0.0994144000
| 79> C    7.4073238700   2.0007590200  -2.0196268000
| 80> C    8.0131371000  -0.1216144200  -0.8203267900
| 81> H    5.1436774100   2.8947811500   1.3446599300
| 82> H    5.5949553900   3.4287484600  -0.2780708200
| 83> H    6.8176195400   3.3863454000   1.0068309700
| 84> H    8.3585197000   1.9703130300  -2.5624787500
| 85> H    7.1066600700   3.0499803700  -1.9358102500
| 86> H    6.6622600600   1.4805146800  -2.6328855600
| 87> H    7.2688725600  -0.6949638200  -1.3857092700
| 88> H    8.1465202400  -0.6123143000   0.1507893600
| 89> H    8.9636553900  -0.1732172300  -1.3630123900
| 90> H    4.5779135100  -2.4208504600  -1.5180276600
| 91> H    2.8728804400  -2.8908588500  -1.5447503800
| 92> H    3.8097588100  -3.0497900100  -0.0479075500
| 93> *
| 94> %eprnmr
| 95>  Nuclei = all C { ssfc }
| 96>  SpinSpinRThresh 8.0
| 97> end
| 98> 
| 99>                          ****END OF INPUT****
================================================================================

                       ****************************
                       * Single Point Calculation *
                       ****************************

---------------------------------
CARTESIAN COORDINATES (ANGSTROEM)
---------------------------------
  C     -5.023442    0.299200    0.342390
  C     -6.430848   -0.137014    0.009472
  C     -6.984760    0.612283   -1.208482
  H     -7.095003    0.088814    0.861124
  H     -6.469500   -1.217522   -0.167147
  C     -4.851059    1.764173    0.443941
  C     -5.449813    2.545470   -0.703878
  C     -6.896179    2.118299   -0.989159
  H     -4.847597    2.354501   -1.605178
  H     -5.397865    3.619753   -0.497881
  H     -7.280491    2.643651   -1.871365
  H     -7.535773    2.387786   -0.135044
  O     -8.322647    0.194861   -1.509807
  H     -6.396167    0.337956   -2.095216
  C     -4.028435   -0.609024    0.479219
  C     -4.257617    2.365192    1.481604
  H     -3.855469    1.792942    2.312972
  H     -4.170799    3.448281    1.526051
  C     -2.629584   -0.323026    0.699457
  H     -4.313788   -1.654473    0.370263
  C     -1.649093   -1.228076    0.907188
  H     -2.350980    0.728158    0.682191
  C     -1.835998   -2.720915    1.008663
  C     -0.899534   -3.482034    0.051104
  H     -2.872268   -3.022918    0.833877
  H     -1.588859   -3.020677    2.039815
  C      0.564838   -3.038740    0.177284
  H     -1.243994   -3.333301   -0.980042
  H     -0.975821   -4.557547    0.252918
  C      0.717382   -1.519783    0.017700
  H      1.164456   -3.579451   -0.562358
  H      0.945317   -3.323898    1.169786
  C     -0.211172   -0.842629    1.074920
  H      0.113505   -1.271256    2.041331
  C      0.218229    0.621577    1.068290
  H     -8.877344    0.425372   -0.752557
  C      1.747688    0.550057    0.835048
  H     -0.047290    1.131644    2.000307
  H     -0.268828    1.166404    0.251892
  C      2.084888   -0.921660    0.450562
  H      2.311950    0.856147    1.721571
  H      2.053082    1.226178    0.027747
  H      2.384675   -1.463514    1.362611
  C      3.273175   -0.991238   -0.530144
  C      0.349231   -1.074315   -1.403807
  H     -0.714596   -1.229559   -1.607939
  H      0.922273   -1.639862   -2.146900
  H      0.559900   -0.011611   -1.560182
  H      3.006342   -0.427918   -1.436778
  C      3.650660   -2.424412   -0.934917
  C      4.471708   -0.323599    0.089522
  C      5.096030    0.748003   -0.396919
  H      4.845534   -0.784245    1.009781
  H      4.709125    1.207663   -1.310284
  C      6.286808    1.416399    0.230537
  C      5.942868    2.868111    0.596427
  C      7.560861    1.329897   -0.651745
  H      6.519646    0.879089    1.162283
  H      8.346664    1.868326   -0.099414
  C      7.407324    2.000759   -2.019627
  C      8.013137   -0.121614   -0.820327
  H      5.143677    2.894781    1.344660
  H      5.594955    3.428748   -0.278071
  H      6.817620    3.386345    1.006831
  H      8.358520    1.970313   -2.562479
  H      7.106660    3.049980   -1.935810
  H      6.662260    1.480515   -2.632886
  H      7.268873   -0.694964   -1.385709
  H      8.146520   -0.612314    0.150789
  H      8.963655   -0.173217   -1.363012
  H      4.577914   -2.420850   -1.518028
  H      2.872880   -2.890859   -1.544750
  H      3.809759   -3.049790   -0.047908

----------------------------
CARTESIAN COORDINATES (A.U.)
----------------------------
  NO LB      ZA    FRAG     MASS         X           Y           Z
   0 C     6.0000    0    12.011   -9.492929    0.565406    0.647023
   1 C     6.0000    0    12.011  -12.152542   -0.258918    0.017900
   2 C     6.0000    0    12.011  -13.199284    1.157048   -2.283700
   3 H     1.0000    0     1.008  -13.407612    0.167835    1.627289
   4 H     1.0000    0     1.008  -12.225583   -2.300784   -0.315862
   5 C     6.0000    0    12.011   -9.167173    3.333803    0.838927
   6 C     6.0000    0    12.011  -10.298653    4.810241   -1.330137
   7 C     6.0000    0    12.011  -13.031890    4.003006   -1.869240
   8 H     1.0000    0     1.008   -9.160630    4.449363   -3.033346
   9 H     1.0000    0     1.008  -10.200487    6.840342   -0.940859
  10 H     1.0000    0     1.008  -13.758134    4.995776   -3.536368
  11 H     1.0000    0     1.008  -14.240547    4.512262   -0.255196
  12 O     8.0000    0    15.999  -15.727523    0.368233   -2.853122
  13 H     1.0000    0     1.008  -12.087003    0.638644   -3.959385
  14 C     6.0000    0    12.011   -7.612638   -1.150889    0.905593
  15 C     6.0000    0    12.011   -8.045730    4.469564    2.799826
  16 H     1.0000    0     1.008   -7.285780    3.388169    4.370883
  17 H     1.0000    0     1.008   -7.881667    6.516308    2.883819
  18 C     6.0000    0    12.011   -4.969195   -0.610431    1.321782
  19 H     1.0000    0     1.008   -8.151878   -3.126500    0.699696
  20 C     6.0000    0    12.011   -3.116334   -2.320728    1.714336
  21 H     1.0000    0     1.008   -4.442707    1.376019    1.289154
  22 C     6.0000    0    12.011   -3.469534   -5.141785    1.906097
  23 C     6.0000    0    12.011   -1.699873   -6.580090    0.096572
  24 H     1.0000    0     1.008   -5.427800   -5.712487    1.575798
  25 H     1.0000    0     1.008   -3.002508   -5.708252    3.854692
  26 C     6.0000    0    12.011    1.067388   -5.742386    0.335018
  27 H     1.0000    0     1.008   -2.350807   -6.299026   -1.852011
  28 H     1.0000    0     1.008   -1.844034   -8.612516    0.477946
  29 C     6.0000    0    12.011    1.355655   -2.871975    0.033448
  30 H     1.0000    0     1.008    2.200503   -6.764181   -1.062704
  31 H     1.0000    0     1.008    1.786390   -6.281258    2.210575
  32 C     6.0000    0    12.011   -0.399058   -1.592338    2.031304
  33 H     1.0000    0     1.008    0.214493   -2.402327    3.857557
  34 C     6.0000    0    12.011    0.412392    1.174609    2.018776
  35 H     1.0000    0     1.008  -16.775749    0.803836   -1.422127
  36 C     6.0000    0    12.011    3.302652    1.039458    1.578013
  37 H     1.0000    0     1.008   -0.089365    2.138497    3.780033
  38 H     1.0000    0     1.008   -0.508012    2.204184    0.476006
  39 C     6.0000    0    12.011    3.939867   -1.741685    0.851439
  40 H     1.0000    0     1.008    4.368952    1.617884    3.253298
  41 H     1.0000    0     1.008    3.879762    2.317140    0.052434
  42 H     1.0000    0     1.008    4.506383   -2.765641    2.574962
  43 C     6.0000    0    12.011    6.185404   -1.873169   -1.001828
  44 C     6.0000    0    12.011    0.659951   -2.030162   -2.652810
  45 H     1.0000    0     1.008   -1.350390   -2.323530   -3.038564
  46 H     1.0000    0     1.008    1.742843   -3.098890   -4.057053
  47 H     1.0000    0     1.008    1.058057   -0.021942   -2.948316
  48 H     1.0000    0     1.008    5.681163   -0.808649   -2.715117
  49 C     6.0000    0    12.011    6.898747   -4.581475   -1.766738
  50 C     6.0000    0    12.011    8.450303   -0.611514    0.169171
  51 C     6.0000    0    12.011    9.630102    1.413520   -0.750069
  52 H     1.0000    0     1.008    9.156733   -1.482009    1.908209
  53 H     1.0000    0     1.008    8.898956    2.282152   -2.476078
  54 C     6.0000    0    12.011   11.880346    2.676607    0.435651
  55 C     6.0000    0    12.011   11.230393    5.419945    1.127083
  56 C     6.0000    0    12.011   14.287956    2.513142   -1.231619
  57 H     1.0000    0     1.008   12.320345    1.661238    2.196397
  58 H     1.0000    0     1.008   15.772908    3.530624   -0.187866
  59 C     6.0000    0    12.011   13.997813    3.780887   -3.816542
  60 C     6.0000    0    12.011   15.142635   -0.229818   -1.550193
  61 H     1.0000    0     1.008    9.720142    5.470344    2.541039
  62 H     1.0000    0     1.008   10.572933    6.479396   -0.525478
  63 H     1.0000    0     1.008   12.883434    6.399265    1.902635
  64 H     1.0000    0     1.008   15.795313    3.723352   -4.842383
  65 H     1.0000    0     1.008   13.429641    5.763628   -3.658151
  66 H     1.0000    0     1.008   12.589847    2.797767   -4.975433
  67 H     1.0000    0     1.008   13.736178   -1.313291   -2.618611
  68 H     1.0000    0     1.008   15.394692   -1.157106    0.284951
  69 H     1.0000    0     1.008   16.938854   -0.327333   -2.575720
  70 H     1.0000    0     1.008    8.651003   -4.574744   -2.868657
  71 H     1.0000    0     1.008    5.428957   -5.462932   -2.919155
  72 H     1.0000    0     1.008    7.199401   -5.763268   -0.090532

--------------------------------
INTERNAL COORDINATES (ANGSTROEM)
--------------------------------
 C      0   0   0     0.000000000000     0.00000000     0.00000000
 C      1   0   0     1.510599118187     0.00000000     0.00000000
 C      2   1   0     1.533517951828   111.74458098     0.00000000
 H      2   1   3     1.103363314670   109.36609705   241.47555934
 H      2   1   3     1.095530561281   110.68378790   122.89806712
 C      1   2   3     1.478571744848   114.19681046    50.46548430
 C      6   1   2     1.512091416174   114.43405189   312.08157342
 C      3   2   1     1.524478169289   110.33111512   305.02087585
 H      7   6   1     1.100669601386   108.37851059   289.94867690
 H      7   6   1     1.095087915297   110.20046737   172.74435927
 H      8   3   2     1.096347292250   109.70910861   179.15036336
 H      8   3   2     1.100552813456   108.64983135   296.60787339
 O      3   2   1     1.433519992840   111.20917754   180.30720556
 H      3   2   1     1.099088435416   108.98865256    65.11355207
 C      1   2   3     1.354116651562   120.87683607   232.68483930
 C      6   1   2     1.337961927450   123.37052338   129.88049171
 H     16   6   1     1.086445910654   121.40216937     0.67385536
 H     16   6   1     1.087472587845   120.96421129   181.33244716
 C     15   1   2     1.444673468941   126.44990871   175.24804708
 H     15   1   2     1.089155758886   116.17888526   357.93830610
 C     19  15   1     1.350419313199   126.42768960   176.18907578
 H     19  15   1     1.087615000742   115.90958305   355.43081430
 C     21  19  15     1.507912206135   125.72224876   357.20050970
 C     23  21  19     1.540515192549   111.83599682   127.59027896
 H     23  21  19     1.093440106952   112.34270435     3.46301499
 H     23  21  19     1.101911242499   107.72764243   246.25924492
 C     24  23  21     1.535192079487   112.71167210    50.71480367
 H     24  23  21     1.097285512207   109.04554189   288.60191753
 H     24  23  21     1.096940246596   109.13421755   172.64208524
 C     27  24  23     1.534915328524   111.83934471   306.35029681
 H     27  24  23     1.094980122123   108.91929118   182.85088833
 H     27  24  23     1.100518319572   109.21312869    66.34881743
 C     21  19  15     1.498105119418   122.79829605   177.56789738
 H     33  21  19     1.105932824207   106.25442568   124.38183428
 C     33  21  19     1.525885824560   121.09834418     2.21445852
 H     13   3   2     0.966567061540   107.54626235    62.71527181
 C     35  33  21     1.548794163275   103.54691146   196.51543665
 H     35  33  21     1.095136878237   112.02451143    74.56351766
 H     35  33  21     1.095704096660   110.81095640   314.96693338
 C     30  27  24     1.554089608172   116.06315342   166.24588923
 H     37  35  33     1.094533967586   111.97499494   249.05680333
 H     37  35  33     1.096421482004   110.94479097   130.49347261
 H     40  30  27     1.102412240053   106.29321129   320.85031450
 C     40  30  27     1.542287727496   118.91379619    81.63537942
 C     30  27  24     1.534489252304   111.08521150   294.19762522
 H     45  30  27     1.094302621403   111.39884819    66.32241689
 H     45  30  27     1.095630900773   110.66863931   306.17618051
 H     45  30  27     1.094611683127   111.59280646   186.29104360
 H     44  40  30     1.100233498192   108.30234886    61.40944587
 C     44  40  30     1.536334312993   113.51101870   300.64034131
 C     44  40  30     1.505393426771   109.36970280   178.60635813
 C     51  44  40     1.332191548339   125.41933233   241.67675871
 H     51  44  40     1.094905505778   115.54451459    62.31788092
 H     52  51  44     1.093260221230   118.51642711     1.31473833
 C     52  51  44     1.502799721573   125.21530755   179.56709758
 C     55  52  51     1.536111434207   110.02113353   241.10961279
 C     55  52  51     1.552131677795   112.84812306   115.44749294
 H     55  52  51     1.100484784350   107.69778170   358.45761601
 H     57  55  52     1.101117904981   105.86687850   178.78918649
 C     57  55  52     1.531251104530   113.64476974    60.68628841
 C     57  55  52     1.529660111163   110.99147267   295.68253292
 H     56  55  52     1.095111790621   110.43594038    62.85488125
 H     56  55  52     1.095492055031   111.38394948   303.44324028
 H     56  55  52     1.096443563244   110.92868027   183.01160545
 H     60  57  55     1.095622519363   110.08327819   175.86364059
 H     60  57  55     1.094664047085   112.27590507    55.96676476
 H     60  57  55     1.096294012111   111.09711108   294.74943320
 H     61  57  55     1.096501978417   110.62875644    65.58801270
 H     61  57  55     1.096195243129   111.29149792   305.79710892
 H     61  57  55     1.095744281332   110.83970117   185.34729358
 H     50  44  40     1.095367592642   110.19498112   187.69360891
 H     50  44  40     1.092890331241   111.73386080    67.79102702
 H     50  44  40     1.096903099479   110.75874392   307.17533060

---------------------------
INTERNAL COORDINATES (A.U.)
---------------------------
 C      0   0   0     0.000000000000     0.00000000     0.00000000
 C      1   0   0     2.854618631517     0.00000000     0.00000000
 C      2   1   0     2.897928950407   111.74458098     0.00000000
 H      2   1   3     2.085054490941   109.36609705   241.47555934
 H      2   1   3     2.070252732162   110.68378790   122.89806712
 C      1   2   3     2.794095667116   114.19681046    50.46548430
 C      6   1   2     2.857438666021   114.43405189   312.08157342
 C      3   2   1     2.880846237098   110.33111512   305.02087585
 H      7   6   1     2.079964110551   108.37851059   289.94867690
 H      7   6   1     2.069416252479   110.20046737   172.74435927
 H      8   3   2     2.071796130019   109.70910861   179.15036336
 H      8   3   2     2.079743413348   108.64983135   296.60787339
 O      3   2   1     2.708960193969   111.20917754   180.30720556
 H      3   2   1     2.076976139896   108.98865256    65.11355207
 C      1   2   3     2.558909624836   120.87683607   232.68483930
 C      6   1   2     2.528381620493   123.37052338   129.88049171
 H     16   6   1     2.053085230454   121.40216937     0.67385536
 H     16   6   1     2.055025369173   120.96421129   181.33244716
 C     15   1   2     2.730037209240   126.44990871   175.24804708
 H     15   1   2     2.058206101477   116.17888526   357.93830610
 C     19  15   1     2.551922667904   126.42768960   176.18907578
 H     19  15   1     2.055294490546   115.90958305   355.43081430
 C     21  19  15     2.849541103593   125.72224876   357.20050970
 C     23  21  19     2.911151819062   111.83599682   127.59027896
 H     23  21  19     2.066302345984   112.34270435     3.46301499
 H     23  21  19     2.082310472212   107.72764243   246.25924492
 C     24  23  21     2.901092593196   112.71167210    50.71480367
 H     24  23  21     2.073569108792   109.04554189   288.60191753
 H     24  23  21     2.072916651343   109.13421755   172.64208524
 C     27  24  23     2.900569609668   111.83934471   306.35029681
 H     27  24  23     2.069212552901   108.91929118   182.85088833
 H     27  24  23     2.079678229354   109.21312869    66.34881743
 C     21  19  15     2.831008395526   122.79829605   177.56789738
 H     33  21  19     2.089910160266   106.25442568   124.38183428
 C     33  21  19     2.883506320050   121.09834418     2.21445852
 H     13   3   2     1.826547036380   107.54626235    62.71527181
 C     35  33  21     2.926796806405   103.54691146   196.51543665
 H     35  33  21     2.069508779025   112.02451143    74.56351766
 H     35  33  21     2.070580666503   110.81095640   314.96693338
 C     30  27  24     2.936803747018   116.06315342   166.24588923
 H     37  35  33     2.068369443011   111.97499494   249.05680333
 H     37  35  33     2.071936328336   110.94479097   130.49347261
 H     40  30  27     2.083257220383   106.29321129   320.85031450
 C     40  30  27     2.914501424675   118.91379619    81.63537942
 C     30  27  24     2.899764442300   111.08521150   294.19762522
 H     45  30  27     2.067932262083   111.39884819    66.32241689
 H     45  30  27     2.070442346323   110.66863931   306.17618051
 H     45  30  27     2.068516304100   111.59280646   186.29104360
 H     44  40  30     2.079139994949   108.30234886    61.40944587
 C     44  40  30     2.903251101702   113.51101870   300.64034131
 C     44  40  30     2.844781300402   109.36970280   178.60635813
 C     51  44  40     2.517477184286   125.41933233   241.67675871
 H     51  44  40     2.069071548443   115.54451459    62.31788092
 H     52  51  44     2.065962411235   118.51642711     1.31473833
 C     52  51  44     2.839879907905   125.21530755   179.56709758
 C     55  52  51     2.902829921837   110.02113353   241.10961279
 C     55  52  51     2.933103794816   112.84812306   115.44749294
 H     55  52  51     2.079614856968   107.69778170   358.45761601
 H     57  55  52     2.080811281571   105.86687850   178.78918649
 C     57  55  52     2.893645229826   113.64476974    60.68628841
 C     57  55  52     2.890638688081   110.99147267   295.68253292
 H     56  55  52     2.069461370301   110.43594038    62.85488125
 H     56  55  52     2.070179965896   111.38394948   303.44324028
 H     56  55  52     2.071978055832   110.92868027   183.01160545
 H     60  57  55     2.070426507753   110.08327819   175.86364059
 H     60  57  55     2.068615257640   112.27590507    55.96676476
 H     60  57  55     2.071695445148   111.09711108   294.74943320
 H     61  57  55     2.072088444511   110.62875644    65.58801270
 H     61  57  55     2.071508798821   111.29149792   305.79710892
 H     61  57  55     2.070656604528   110.83970117   185.34729358
 H     50  44  40     2.069944766066   110.19498112   187.69360891
 H     50  44  40     2.065263420456   111.73386080    67.79102702
 H     50  44  40     2.072846453464   110.75874392   307.17533060

---------------------
BASIS SET INFORMATION
---------------------
There are 3 groups of distinct atoms

 Group   1 Type C   : 7s4p contracted to 4s3p pattern {4111/211}
 Group   2 Type H   : 5s contracted to 3s pattern {311}
 Group   3 Type O   : 7s4p contracted to 4s3p pattern {4111/211}

Atom   0C    basis set group =>   1
Atom   1C    basis set group =>   1
Atom   2C    basis set group =>   1
Atom   3H    basis set group =>   2
Atom   4H    basis set group =>   2
Atom   5C    basis set group =>   1
Atom   6C    basis set group =>   1
Atom   7C    basis set group =>   1
Atom   8H    basis set group =>   2
Atom   9H    basis set group =>   2
Atom  10H    basis set group =>   2
Atom  11H    basis set group =>   2
Atom  12O    basis set group =>   3
Atom  13H    basis set group =>   2
Atom  14C    basis set group =>   1
Atom  15C    basis set group =>   1
Atom  16H    basis set group =>   2
Atom  17H    basis set group =>   2
Atom  18C    basis set group =>   1
Atom  19H    basis set group =>   2
Atom  20C    basis set group =>   1
Atom  21H    basis set group =>   2
Atom  22C    basis set group =>   1
Atom  23C    basis set group =>   1
Atom  24H    basis set group =>   2
Atom  25H    basis set group =>   2
Atom  26C    basis set group =>   1
Atom  27H    basis set group =>   2
Atom  28H    basis set group =>   2
Atom  29C    basis set group =>   1
Atom  30H    basis set group =>   2
Atom  31H    basis set group =>   2
Atom  32C    basis set group =>   1
Atom  33H    basis set group =>   2
Atom  34C    basis set group =>   1
Atom  35H    basis set group =>   2
Atom  36C    basis set group =>   1
Atom  37H    basis set group =>   2
Atom  38H    basis set group =>   2
Atom  39C    basis set group =>   1
Atom  40H    basis set group =>   2
Atom  41H    basis set group =>   2
Atom  42H    basis set group =>   2
Atom  43C    basis set group =>   1
Atom  44C    basis set group =>   1
Atom  45H    basis set group =>   2
Atom  46H    basis set group =>   2
Atom  47H    basis set group =>   2
Atom  48H    basis set group =>   2
Atom  49C    basis set group =>   1
Atom  50C    basis set group =>   1
Atom  51C    basis set group =>   1
Atom  52H    basis set group =>   2
Atom  53H    basis set group =>   2
Atom  54C    basis set group =>   1
Atom  55C    basis set group =>   1
Atom  56C    basis set group =>   1
Atom  57H    basis set group =>   2
Atom  58H    basis set group =>   2
Atom  59C    basis set group =>   1
Atom  60C    basis set group =>   1
Atom  61H    basis set group =>   2
Atom  62H    basis set group =>   2
Atom  63H    basis set group =>   2
Atom  64H    basis set group =>   2
Atom  65H    basis set group =>   2
Atom  66H    basis set group =>   2
Atom  67H    basis set group =>   2
Atom  68H    basis set group =>   2
Atom  69H    basis set group =>   2
Atom  70H    basis set group =>   2
Atom  71H    basis set group =>   2
Atom  72H    basis set group =>   2

-------------------------
BASIS SET IN INPUT FORMAT
-------------------------

 # Basis set for element : H 
 NewGTO H 
 S 3 
   1    1357.7500000000      0.0012928364
   2      54.3100000000      0.0588280685
   3       4.3448000000      0.9761499708
 S 1 
   1       0.6604910000      1.0000000000
 S 1 
   1       0.1366870000      1.0000000000
  end;

 # Basis set for element : C 
 NewGTO C 
 S 4 
   1  139534.0000000000      0.0001655246
   2    5581.3600000000      0.0074486101
   3     446.5090000000      0.1285821065
   4      67.4620000000      0.9218029311
 S 1 
   1      15.0674000000      1.0000000000
 S 1 
   1       3.9387600000      1.0000000000
 S 1 
   1       0.2999150000      1.0000000000
 P 2 
   1      28.3900000000      0.0816325586
   2       4.3676900000      0.9660360576
 P 1 
   1       0.8698170000      1.0000000000
 P 1 
   1       0.1889340000      1.0000000000
  end;

 # Basis set for element : O 
 NewGTO O 
 S 4 
   1  253789.0000000000      0.0001641076
   2   10151.6000000000      0.0074010921
   3     812.1250000000      0.1277711901
   4     122.6930000000      0.9223372164
 S 1 
   1      27.5608000000      1.0000000000
 S 1 
   1       7.3172600000      1.0000000000
 S 1 
   1       0.5792400000      1.0000000000
 P 2 
   1      53.4157000000      0.0793786106
   2       8.2177900000      0.9670506337
 P 1 
   1       1.6754400000      1.0000000000
 P 1 
   1       0.3506720000      1.0000000000
  end;

---------------------------------
AUXILIARY/J BASIS SET INFORMATION
---------------------------------
There are 3 groups of distinct atoms

 Group   1 Type C   : 12s5p4d2f1g contracted to 6s4p3d1f1g pattern {711111/2111/211/2/1}
 Group   2 Type H   : 5s2p1d contracted to 3s1p1d pattern {311/2/1}
 Group   3 Type O   : 12s5p4d2f1g contracted to 6s4p3d1f1g pattern {711111/2111/211/2/1}

Atom   0C    basis set group =>   1
Atom   1C    basis set group =>   1
Atom   2C    basis set group =>   1
Atom   3H    basis set group =>   2
Atom   4H    basis set group =>   2
Atom   5C    basis set group =>   1
Atom   6C    basis set group =>   1
Atom   7C    basis set group =>   1
Atom   8H    basis set group =>   2
Atom   9H    basis set group =>   2
Atom  10H    basis set group =>   2
Atom  11H    basis set group =>   2
Atom  12O    basis set group =>   3
Atom  13H    basis set group =>   2
Atom  14C    basis set group =>   1
Atom  15C    basis set group =>   1
Atom  16H    basis set group =>   2
Atom  17H    basis set group =>   2
Atom  18C    basis set group =>   1
Atom  19H    basis set group =>   2
Atom  20C    basis set group =>   1
Atom  21H    basis set group =>   2
Atom  22C    basis set group =>   1
Atom  23C    basis set group =>   1
Atom  24H    basis set group =>   2
Atom  25H    basis set group =>   2
Atom  26C    basis set group =>   1
Atom  27H    basis set group =>   2
Atom  28H    basis set group =>   2
Atom  29C    basis set group =>   1
Atom  30H    basis set group =>   2
Atom  31H    basis set group =>   2
Atom  32C    basis set group =>   1
Atom  33H    basis set group =>   2
Atom  34C    basis set group =>   1
Atom  35H    basis set group =>   2
Atom  36C    basis set group =>   1
Atom  37H    basis set group =>   2
Atom  38H    basis set group =>   2
Atom  39C    basis set group =>   1
Atom  40H    basis set group =>   2
Atom  41H    basis set group =>   2
Atom  42H    basis set group =>   2
Atom  43C    basis set group =>   1
Atom  44C    basis set group =>   1
Atom  45H    basis set group =>   2
Atom  46H    basis set group =>   2
Atom  47H    basis set group =>   2
Atom  48H    basis set group =>   2
Atom  49C    basis set group =>   1
Atom  50C    basis set group =>   1
Atom  51C    basis set group =>   1
Atom  52H    basis set group =>   2
Atom  53H    basis set group =>   2
Atom  54C    basis set group =>   1
Atom  55C    basis set group =>   1
Atom  56C    basis set group =>   1
Atom  57H    basis set group =>   2
Atom  58H    basis set group =>   2
Atom  59C    basis set group =>   1
Atom  60C    basis set group =>   1
Atom  61H    basis set group =>   2
Atom  62H    basis set group =>   2
Atom  63H    basis set group =>   2
Atom  64H    basis set group =>   2
Atom  65H    basis set group =>   2
Atom  66H    basis set group =>   2
Atom  67H    basis set group =>   2
Atom  68H    basis set group =>   2
Atom  69H    basis set group =>   2
Atom  70H    basis set group =>   2
Atom  71H    basis set group =>   2
Atom  72H    basis set group =>   2

-------------------------------------
AUXILIARY/J BASIS SET IN INPUT FORMAT
-------------------------------------

 # Auxiliary/J basis set for element : H 
 NewAuxJGTO H 
 S 3 
   1      15.6752927000      0.1007184237
   2       3.6063578000      0.3404257499
   3       1.2080016000      0.6491996172
 S 1 
   1       0.4726794000      1.0000000000
 S 1 
   1       0.2018100000      1.0000000000
 P 2 
   1       2.0281365000      0.5596620919
   2       0.5358730000      0.5596620919
 D 1 
   1       2.2165124000      1.0000000000
  end;

 # Auxiliary/J basis set for element : C 
 NewAuxJGTO C 
 S 7 
   1    1861.0916331000      0.0134602335
   2     642.9939764000      0.0299160374
   3     235.1105725000      0.1008649584
   4      90.7028894000      0.2370970548
   5      36.7794552000      0.3924037254
   6      15.6046273000      0.3195862154
   7       6.8907294000      0.0530104441
 S 1 
   1       3.1478850000     -1.0000000000
 S 1 
   1       1.4777287000      1.0000000000
 S 1 
   1       0.7076466000      1.0000000000
 S 1 
   1       0.3430122000      1.0000000000
 S 1 
   1       0.1669453000      1.0000000000
 P 2 
   1      13.5472892000     -0.6769313712
   2       5.4669419000     -0.3779500978
 P 1 
   1       2.1751721000      1.0000000000
 P 1 
   1       0.8582194000      1.0000000000
 P 1 
   1       0.3376720000      1.0000000000
 D 2 
   1       5.9287253000     -0.3533329857
   2       1.9809209000     -0.7456525731
 D 1 
   1       0.8055417000     -1.0000000000
 D 1 
   1       0.3531244000     -1.0000000000
 F 2 
   1       1.6755626000      0.6311076882
   2       0.5997536000      0.4968166032
 G 1 
   1       1.0024600000     -1.0000000000
  end;

 # Auxiliary/J basis set for element : O 
 NewAuxJGTO O 
 S 7 
   1    2876.8216605000      0.0168151159
   2    1004.7443032000      0.0340137548
   3     369.7579954000      0.1194951309
   4     142.9442404000      0.2664627624
   5      57.8366425000      0.4202764046
   6      24.3864983000      0.2765077335
   7      10.6622662000      0.0057008815
 S 1 
   1       4.8070437000     -1.0000000000
 S 1 
   1       2.2210770000      1.0000000000
 S 1 
   1       1.0447795000      1.0000000000
 S 1 
   1       0.4968425000      1.0000000000
 S 1 
   1       0.2371384000      1.0000000000
 P 2 
   1      64.2613382000     -0.2731534179
   2      16.3006076000     -0.8168011598
 P 1 
   1       4.3550542000      1.0000000000
 P 1 
   1       1.2019554000      1.0000000000
 P 1 
   1       0.3354196000      1.0000000000
 D 2 
   1       9.2146611000     -0.4661230638
   2       2.8435251000     -0.6600908911
 D 1 
   1       0.9955759000     -1.0000000000
 D 1 
   1       0.3649441000     -1.0000000000
 F 2 
   1       2.6420115000      0.5931563945
   2       0.7345613000      0.5931563945
 G 1 
   1       1.3931000000     -1.0000000000
  end;


Checking for AutoStart:
The File: inpJ.gbw exists
Trying to determine its content:
     ... Fine, the file contains calculation information
     ... Fine, the calculation information was read
     ... Fine, the file contains a basis set
     ... Fine, the basis set was read
     ... Fine, the file contains a geometry
     ... Fine, the geometry was read
     ... Fine, the file contains a set of orbitals
     ... Fine, the orbitals can be read
     => possible old guess file was deleted
     => GBW file was renamed to GES file
     => GES file is set as startup file
     => Guess is set to MORead
     ... now leaving AutoStart



           ************************************************************
           *        Program running with 4 parallel MPI-processes     *
           *              working on a common directory               *
           ************************************************************
------------------------------------------------------------------------------
                             ORCA STARTUP CALCULATIONS
                           -- RI-GTO INTEGRALS CHOSEN --
------------------------------------------------------------------------------
------------------------------------------------------------------------------
                   ___                                                        
                  /   \      - P O W E R E D   B Y -                         
                 /     \                                                     
                 |  |  |   _    _      __       _____    __    __             
                 |  |  |  | |  | |    /  \     |  _  \  |  |  /  |          
                  \  \/   | |  | |   /    \    | | | |  |  | /  /          
                 / \  \   | |__| |  /  /\  \   | |_| |  |  |/  /          
                |  |  |   |  __  | /  /__\  \  |    /   |      \           
                |  |  |   | |  | | |   __   |  |    \   |  |\   \          
                \     /   | |  | | |  |  |  |  | |\  \  |  | \   \       
                 \___/    |_|  |_| |__|  |__|  |_| \__\ |__|  \__/        
                                                                              
                      - O R C A' S   B I G   F R I E N D -                    
                                      &                                       
                       - I N T E G R A L  F E E D E R -                       
                                                                              
 v1 FN, 2020, v2 2021, v3 2022-2024                                           
------------------------------------------------------------------------------


----------------------
SHARK INTEGRAL PACKAGE
----------------------

Number of atoms                             ...     73
Number of basis functions                   ...    509
Number of shells                            ...    335
Maximum angular momentum                    ...      1
Integral batch strategy                     ... SHARK/LIBINT Hybrid
RI-J (if used) integral strategy            ... SPLIT-RIJ (Revised 2003 algorithm where possible)
Printlevel                                  ...      1
Contraction scheme used                     ... SEGMENTED contraction
Prescreening option                         ... SCHWARTZ
   Thresh                                   ... 3.000e-11
   Tcut                                     ... 1.000e-12
   Tpresel                                  ... 1.000e-12 
Coulomb Range Separation                    ... NOT USED
Exchange Range Separation                   ... NOT USED
Multipole approximations                    ... NOT USED
Finite Nucleus Model                        ... NOT USED
CABS basis                                  ... NOT available
Auxiliary Coulomb fitting basis             ... AVAILABLE
   # of basis functions in Aux-J            ...   1905
   # of shells in Aux-J                     ...    655
   Maximum angular momentum in Aux-J        ...      4
Auxiliary J/K fitting basis                 ... NOT available
Auxiliary Correlation fitting basis         ... NOT available
Auxiliary 'external' fitting basis          ... NOT available

Checking pre-screening integrals            ... done (  0.0 sec) Dimension = 335
Check shell pair data                       ... done (  0.0 sec)
Shell pair information
Shell pair cut-off parameter TPreSel        ...   1.0e-12
Total number of shell pairs                 ...     56280
Shell pairs after pre-screening             ...     21563
Total number of primitive shell pairs       ...    145865
Primitive shell pairs kept                  ...     37094
          la=0 lb=0:  10859 shell pairs
          la=1 lb=0:   8865 shell pairs
          la=1 lb=1:   1839 shell pairs

Calculating one electron integrals          ... done (  0.0 sec)
Calculating RI/J V-Matrix + Cholesky decomp.... done (  0.2 sec)
Calculating Nuclear repulsion               ... done (  0.0 sec) ENN=   2758.696134257779 Eh

Diagonalization of the overlap matrix:
Smallest eigenvalue                        ... 7.553e-03
Time for diagonalization                   ...    0.026 sec
Threshold for overlap eigenvalues          ... 1.000e-07
Number of eigenvalues below threshold      ... 0
Time for construction of square roots      ...    0.013 sec
Total time needed                          ...    0.040 sec

-------------------
DFT GRID GENERATION
-------------------

General Integration Accuracy     IntAcc      ... 4.388
Radial Grid Type                 RadialGrid  ... OptM3 with GC (2021)
Angular Grid (max. ang.)         AngularGrid ... 4 (Lebedev-302)
Angular grid pruning method      GridPruning ... 4 (adaptive)
Weight generation scheme         WeightScheme... mBecke (2022)
Basis function cutoff            BFCut       ... 1.0000e-11
Integration weight cutoff        WCut        ... 1.0000e-14
Partially contracted basis set               ... off
Rotationally invariant grid construction     ... off
Angular grids for H and He will be reduced by one unit

Total number of grid points                  ...   309954
Total number of batches                      ...     4876
Average number of points per batch           ...       63
Average number of grid points per atom       ...     4246

--------------------
COSX GRID GENERATION
--------------------

GRIDX 1
-------
General Integration Accuracy     IntAcc      ... 3.816
Radial Grid Type                 RadialGrid  ... OptM3 with GC (2021)
Angular Grid (max. ang.)         AngularGrid ... 1 (Lebedev-50)
Angular grid pruning method      GridPruning ... 4 (adaptive)
Weight generation scheme         WeightScheme... mBecke (2022)
Basis function cutoff            BFCut       ... 1.0000e-11
Integration weight cutoff        WCut        ... 1.0000e-14
Partially contracted basis set               ... on
Rotationally invariant grid construction     ... off
Angular grids for H and He will be reduced by one unit

Total number of grid points                  ...    39433
Total number of batches                      ...      356
Average number of points per batch           ...      110
Average number of grid points per atom       ...      540
UseSFitting                                  ... on

GRIDX 2
-------
General Integration Accuracy     IntAcc      ... 4.020
Radial Grid Type                 RadialGrid  ... OptM3 with GC (2021)
Angular Grid (max. ang.)         AngularGrid ... 2 (Lebedev-110)
Angular grid pruning method      GridPruning ... 4 (adaptive)
Weight generation scheme         WeightScheme... mBecke (2022)
Basis function cutoff            BFCut       ... 1.0000e-11
Integration weight cutoff        WCut        ... 1.0000e-14
Partially contracted basis set               ... on
Rotationally invariant grid construction     ... off
Angular grids for H and He will be reduced by one unit

Total number of grid points                  ...    81479
Total number of batches                      ...      678
Average number of points per batch           ...      120
Average number of grid points per atom       ...     1116
UseSFitting                                  ... on

GRIDX 3
-------
General Integration Accuracy     IntAcc      ... 4.338
Radial Grid Type                 RadialGrid  ... OptM3 with GC (2021)
Angular Grid (max. ang.)         AngularGrid ... 3 (Lebedev-194)
Angular grid pruning method      GridPruning ... 4 (adaptive)
Weight generation scheme         WeightScheme... mBecke (2022)
Basis function cutoff            BFCut       ... 1.0000e-11
Integration weight cutoff        WCut        ... 1.0000e-14
Partially contracted basis set               ... on
Rotationally invariant grid construction     ... off
Angular grids for H and He will be reduced by one unit

Total number of grid points                  ...   176452
Total number of batches                      ...     1421
Average number of points per batch           ...      124
Average number of grid points per atom       ...     2417
UseSFitting                                  ... on
Initializing property integral containers    ... done (  0.0 sec)

SHARK setup successfully completed in   3.7 seconds

Maximum memory used throughout the entire STARTUP-calculation: 85.1 MB


           ************************************************************
           *        Program running with 4 parallel MPI-processes     *
           *              working on a common directory               *
           ************************************************************
-------------------------------------------------------------------------------
                                 ORCA GUESS
                   Start orbitals & Density for SCF / CASSCF
-------------------------------------------------------------------------------

------------
SCF SETTINGS
------------
Hamiltonian:
 Density Functional     Method          .... DFT(GTOs)
 Exchange Functional    Exchange        .... PBE
   PBE kappa parameter   XKappa         ....  0.804000
   PBE mue parameter    XMuePBE         ....  0.219520
 Correlation Functional Correlation     .... PBE
   PBE beta parameter  CBetaPBE         ....  0.066725
 LDA part of GGA corr.  LDAOpt          .... PW91-LDA
 Gradients option       PostSCFGGA      .... off
 Hybrid DFT is turned on
   Fraction HF Exchange ScalHFX         ....  0.250000
   Scaling of DF-GGA-X  ScalDFX         ....  0.750000
   Scaling of DF-GGA-C  ScalDFC         ....  1.000000
   Scaling of DF-LDA-C  ScalLDAC        ....  1.000000
   Perturbative correction              ....  0.000000
   NL short-range parameter             ....  6.900000
 RI-approximation to the Coulomb term is turned on
   Number of AuxJ basis functions       .... 1905
   RIJ-COSX (HFX calculated with COS-X)).... on


General Settings:
 Integral files         IntName         .... inpJ
 Hartree-Fock type      HFTyp           .... RHF
 Total Charge           Charge          ....    0
 Multiplicity           Mult            ....    1
 Number of Electrons    NEL             ....  220
 Basis Dimension        Dim             ....  509
 Nuclear Repulsion      ENuc            ....   2758.6961342578 Eh

Convergence Acceleration:
 AO-DIIS                CNVDIIS         .... on
   Start iteration      DIISMaxIt       ....    12
   Startup error        DIISStart       ....  0.200000
   # of expansion vecs  DIISMaxEq       ....     5
   Bias factor          DIISBfac        ....   1.050
   Max. coefficient     DIISMaxC        ....  10.000
 MO-DIIS                CNVKDIIS        .... off
 Trust-Rad. Augm. Hess. CNVTRAH         .... auto
   Auto Start mean grad. ratio tolernc. ....  1.125000
   Auto Start start iteration           ....     1
   Auto Start num. interpolation iter.  ....    10
   Max. Number of Micro iterations      ....    24
   Max. Number of Macro iterations      .... Maxiter - #DIIS iter
   Number of Davidson start vectors     ....     2
   Converg. threshold    (grad. norm)   ....   1.000e-04
   Grad. Scal. Fac. for Micro threshold ....   0.100
   Minimum threshold for Micro iter.    ....   1.000e-02
   NR start threshold (gradient norm)   ....   1.000e-04
   Initial trust radius                 ....   0.400
   Minimum AH scaling param. (alpha)    ....   1.000
   Maximum AH scaling param. (alpha)    .... 1000.000
   Quad. conv. algorithm                .... NR
   White noise on init. David. guess    .... on
   Maximum white noise                  ....   0.010
   Pseudo random numbers                .... off
   Inactive MOs                         .... canonical
   Orbital update algorithm             .... Taylor
   Preconditioner                       .... Diag
   Full preconditioner red. dimension   ....   250
 SOSCF                  CNVSOSCF        .... off
 Level Shifting         CNVShift        .... on
   Level shift para.    LevelShift      ....    0.2500
   Turn off err/grad.   ShiftErr        ....    0.0010
 Zerner damping         CNVZerner       .... off
 Static damping         CNVDamp         .... on
   Fraction old density DampFac         ....    0.7000
   Max. Damping (<1)    DampMax         ....    0.9800
   Min. Damping (>=0)   DampMin         ....    0.0000
   Turn off err/grad.   DampErr         ....    0.1000

SCF Procedure:
 Maximum # iterations   MaxIter         ....   125
 SCF integral mode      SCFMode         .... Direct
   Integral package                     .... SHARK and LIBINT hybrid scheme
 Reset frequency        DirectResetFreq ....    20
 Integral Threshold     Thresh          ....  3.000e-11 Eh
 Primitive CutOff       TCut            ....  1.000e-12 Eh

Convergence Tolerance:
 Convergence Check Mode ConvCheckMode   .... Total+1el-Energy
 Convergence forced     ConvForced      .... 0
 Energy Change          TolE            ....  1.000e-07 Eh
 1-El. energy change                    ....  1.000e-04 Eh
 DIIS Error             TolErr          ....  1.000e-07

---------------------
INITIAL GUESS: MOREAD
---------------------
Guess MOs are being read from file: inpJ.ges
Input Geometry matches current geometry (good)
Input basis set matches current basis set (good)
Occupation numbers will be reassigned to an Aufbau configuration
MOs were renormalized
MOs were reorthogonalized (Cholesky)
                      ------------------
                      INITIAL GUESS DONE (   0.1 sec)
                      ------------------
             **** ENERGY FILE WAS UPDATED (inpJ.en.tmp) ****
Finished Guess after   0.2 sec
Maximum memory used throughout the entire GUESS-calculation: 36.4 MB


           ************************************************************
           *        Program running with 4 parallel MPI-processes     *
           *              working on a common directory               *
           ************************************************************

-------------------------------------------------------------------------------------------
                                      ORCA LEAN-SCF
                              memory conserving SCF solver
-------------------------------------------------------------------------------------------

--------------------
CPCM SOLVATION MODEL
--------------------
CPCM parameters:
  Epsilon                                         ...       4.8030
  Refrac                                          ...       1.4459
  Rsolv                                           ...       1.3000
  Surface type                                    ... GAUSSIAN VDW
  Discretization scheme                           ... Constant charge density
    Threshold for H atoms                         ...       5.0000 (charges/Ang^2)
    Threshold for non-H atoms                     ...       5.0000 (charges/Ang^2)
  Epsilon function type                           ...         CPCM
Solvent:                                          ... CHLOROFORM
Radii:
  Scheme                                          ... Element-dependent radii
  Radius for C  used is    3.8550 Bohr (=   2.0400 Ang.)
  Radius for H  used is    2.4944 Bohr (=   1.3200 Ang.)
  Radius for O  used is    3.4469 Bohr (=   1.8240 Ang.)
Calculating surface                               ...        done! (  0.0s)
Cavity surface points                             ...         5474
Cavity Volume                                     ...    3621.7891
Cavity Surface-area                               ...    1817.0150
Calculating surface distance matrix               ...        done! (  0.4s)
Performing Cholesky decomposition & store         ...        done! (  1.2s)
Overall time for CPCM initialization              ...                 1.6s

----------------------------------------D-I-I-S--------------------------------------------
Iteration    Energy (Eh)           Delta-E    RMSDP     MaxDP     DIISErr   Damp  Time(sec)
-------------------------------------------------------------------------------------------
               ***  Starting incremental Fock matrix formation  ***
    1    -1165.5102342761974796     0.00e+00  4.53e-08  5.64e-06  8.27e-06  0.700   6.1

  HOMO= 109 E= -5.921 eV LUMO=  5.982 eV gap=  11.903 eV
    2    -1165.5102343022385867    -2.60e-08  3.03e-08  3.35e-06  3.86e-06  0.700   2.1
                 **** Energy Check signals convergence ****

  HOMO= 109 E= -5.921 eV LUMO=  5.982 eV gap=  11.903 eV

               *****************************************************
               *                     SUCCESS                       *
               *           SCF CONVERGED AFTER   2 CYCLES          *
               *****************************************************

Recomputing exchange energy using gridx3       ... done (    8.081 sec)
Old exchange energy                            :    -42.067081863 Eh
New exchange energy                            :    -42.067128663 Eh
Exchange energy change after final integration :     -0.000046800 Eh
Total energy after final integration           :  -1165.510281102 Eh
             **** ENERGY FILE WAS UPDATED (inpJ.en.tmp) ****

----------------
TOTAL SCF ENERGY
----------------

Total Energy       :      -1165.51028110196671 Eh          -31715.14712 eV

Components:
Nuclear Repulsion  :       2758.69613425777925 Eh           75067.93819 eV
Electronic Energy  :      -3924.19093932380929 Eh         -106782.66418 eV
One Electron Energy:      -7059.48206209278396 Eh         -192098.27300 eV
Two Electron Energy:       3135.29112276897467 Eh           85315.60881 eV
CPCM Dielectric    :         -0.01542923620876 Eh              -0.41985 eV

Virial components:
Potential Energy   :      -2322.41120443690306 Eh          -63196.02170 eV
Kinetic Energy     :       1156.90092333493612 Eh           31480.87458 eV
Virial Ratio       :          2.00744174163351

DFT components:
N(Alpha)           :      110.000201774364 electrons
N(Beta)            :      110.000201774364 electrons
N(Total)           :      220.000403548728 electrons
E(X)               :     -125.744420981751 Eh       
E(C)               :       -7.324791455467 Eh       
E(XC)              :     -133.069212437217 Eh       

CPCM Solvation Model Properties:
Surface-charge          :         -0.03345474588729
Corrected charge        :         -0.00000000000000
Outlying charge corr.   :          0.00003894923497 Eh               0.00106 eV
Free-energy (cav+disp)  :  This term is not implemented in the current solvation scheme

---------------
SCF CONVERGENCE
---------------

  Last Energy change         ...    2.6041e-08  Tolerance :   1.0000e-07
  Last MAX-Density change    ...    3.3486e-06  Tolerance :   1.0000e-05
  Last RMS-Density change    ...    3.0284e-08  Tolerance :   1.0000e-06
  Last DIIS Error            ...    3.8646e-06  Tolerance :   1.0000e-07


----------------
ORBITAL ENERGIES
----------------

  NO   OCC          E(Eh)            E(eV) 
   0   2.0000     -19.215176      -522.8715 
   1   2.0000     -10.301406      -280.3155 
   2   2.0000     -10.269577      -279.4494 
   3   2.0000     -10.266837      -279.3748 
   4   2.0000     -10.261859      -279.2394 
   5   2.0000     -10.256255      -279.0869 
   6   2.0000     -10.253498      -279.0119 
   7   2.0000     -10.250170      -278.9213 
   8   2.0000     -10.249367      -278.8995 
   9   2.0000     -10.249291      -278.8974 
  10   2.0000     -10.248321      -278.8710 
  11   2.0000     -10.246120      -278.8111 
  12   2.0000     -10.245337      -278.7898 
  13   2.0000     -10.244928      -278.7787 
  14   2.0000     -10.244910      -278.7782 
  15   2.0000     -10.243935      -278.7517 
  16   2.0000     -10.243387      -278.7367 
  17   2.0000     -10.243128      -278.7297 
  18   2.0000     -10.242068      -278.7008 
  19   2.0000     -10.241142      -278.6756 
  20   2.0000     -10.239301      -278.6255 
  21   2.0000     -10.233943      -278.4797 
  22   2.0000     -10.233771      -278.4751 
  23   2.0000     -10.232652      -278.4446 
  24   2.0000     -10.226797      -278.2853 
  25   2.0000     -10.226181      -278.2685 
  26   2.0000     -10.223844      -278.2049 
  27   2.0000     -10.222460      -278.1673 
  28   2.0000     -10.220333      -278.1094 
  29   2.0000      -1.045960       -28.4620 
  30   2.0000      -0.900716       -24.5097 
  31   2.0000      -0.883682       -24.0462 
  32   2.0000      -0.859891       -23.3988 
  33   2.0000      -0.845717       -23.0131 
  34   2.0000      -0.822324       -22.3766 
  35   2.0000      -0.813742       -22.1430 
  36   2.0000      -0.795019       -21.6336 
  37   2.0000      -0.794808       -21.6278 
  38   2.0000      -0.776802       -21.1379 
  39   2.0000      -0.757497       -20.6125 
  40   2.0000      -0.741370       -20.1737 
  41   2.0000      -0.735338       -20.0096 
  42   2.0000      -0.713748       -19.4221 
  43   2.0000      -0.702186       -19.1074 
  44   2.0000      -0.699137       -19.0245 
  45   2.0000      -0.693522       -18.8717 
  46   2.0000      -0.668985       -18.2040 
  47   2.0000      -0.656323       -17.8595 
  48   2.0000      -0.630645       -17.1607 
  49   2.0000      -0.621747       -16.9186 
  50   2.0000      -0.619445       -16.8559 
  51   2.0000      -0.607634       -16.5346 
  52   2.0000      -0.596795       -16.2396 
  53   2.0000      -0.583083       -15.8665 
  54   2.0000      -0.563481       -15.3331 
  55   2.0000      -0.550292       -14.9742 
  56   2.0000      -0.540356       -14.7038 
  57   2.0000      -0.529815       -14.4170 
  58   2.0000      -0.515105       -14.0167 
  59   2.0000      -0.509473       -13.8635 
  60   2.0000      -0.497979       -13.5507 
  61   2.0000      -0.491690       -13.3796 
  62   2.0000      -0.480031       -13.0623 
  63   2.0000      -0.475972       -12.9519 
  64   2.0000      -0.473895       -12.8953 
  65   2.0000      -0.468003       -12.7350 
  66   2.0000      -0.464286       -12.6339 
  67   2.0000      -0.458491       -12.4762 
  68   2.0000      -0.456976       -12.4350 
  69   2.0000      -0.452981       -12.3263 
  70   2.0000      -0.448956       -12.2167 
  71   2.0000      -0.439472       -11.9586 
  72   2.0000      -0.433453       -11.7949 
  73   2.0000      -0.430704       -11.7201 
  74   2.0000      -0.430235       -11.7073 
  75   2.0000      -0.422075       -11.4853 
  76   2.0000      -0.416715       -11.3394 
  77   2.0000      -0.413784       -11.2596 
  78   2.0000      -0.407841       -11.0979 
  79   2.0000      -0.402915       -10.9639 
  80   2.0000      -0.402217       -10.9449 
  81   2.0000      -0.398991       -10.8571 
  82   2.0000      -0.396662       -10.7937 
  83   2.0000      -0.389423       -10.5967 
  84   2.0000      -0.387704       -10.5500 
  85   2.0000      -0.385219       -10.4823 
  86   2.0000      -0.377682       -10.2773 
  87   2.0000      -0.371487       -10.1087 
  88   2.0000      -0.367563       -10.0019 
  89   2.0000      -0.366693        -9.9782 
  90   2.0000      -0.363522        -9.8919 
  91   2.0000      -0.358097        -9.7443 
  92   2.0000      -0.350608        -9.5405 
  93   2.0000      -0.343407        -9.3446 
  94   2.0000      -0.340961        -9.2780 
  95   2.0000      -0.340015        -9.2523 
  96   2.0000      -0.337639        -9.1876 
  97   2.0000      -0.332637        -9.0515 
  98   2.0000      -0.330819        -9.0020 
  99   2.0000      -0.328869        -8.9490 
 100   2.0000      -0.326251        -8.8777 
 101   2.0000      -0.324701        -8.8356 
 102   2.0000      -0.316308        -8.6072 
 103   2.0000      -0.315880        -8.5955 
 104   2.0000      -0.311667        -8.4809 
 105   2.0000      -0.299069        -8.1381 
 106   2.0000      -0.280069        -7.6211 
 107   2.0000      -0.274816        -7.4781 
 108   2.0000      -0.258118        -7.0238 
 109   2.0000      -0.217606        -5.9214 
 110   0.0000      -0.030172        -0.8210 
 111   0.0000       0.021104         0.5743 
 112   0.0000       0.026515         0.7215 
 113   0.0000       0.080281         2.1845 
 114   0.0000       0.089050         2.4232 
 115   0.0000       0.101457         2.7608 
 116   0.0000       0.104002         2.8300 
 117   0.0000       0.107796         2.9333 
 118   0.0000       0.109469         2.9788 
 119   0.0000       0.116051         3.1579 
 120   0.0000       0.118515         3.2249 
*Only the first 10 virtual orbitals were printed.

                    ********************************
                    * MULLIKEN POPULATION ANALYSIS *
                    ********************************

-----------------------
MULLIKEN ATOMIC CHARGES
-----------------------
   0 C :    0.107669
   1 C :   -0.499876
   2 C :   -0.054876
   3 H :    0.207191
   4 H :    0.222186
   5 C :    0.135467
   6 C :   -0.475710
   7 C :   -0.451707
   8 H :    0.214189
   9 H :    0.224092
  10 H :    0.229132
  11 H :    0.204602
  12 O :   -0.487344
  13 H :    0.233865
  14 C :   -0.283433
  15 C :   -0.516644
  16 H :    0.201350
  17 H :    0.196730
  18 C :   -0.260214
  19 H :    0.217746
  20 C :    0.151216
  21 H :    0.219087
  22 C :   -0.480018
  23 C :   -0.427177
  24 H :    0.211663
  25 H :    0.206514
  26 C :   -0.397077
  27 H :    0.208045
  28 H :    0.216805
  29 C :    0.002771
  30 H :    0.221453
  31 H :    0.194094
  32 C :   -0.229068
  33 H :    0.226890
  34 C :   -0.433451
  35 H :    0.343197
  36 C :   -0.416374
  37 H :    0.207104
  38 H :    0.198055
  39 C :   -0.186577
  40 H :    0.206933
  41 H :    0.205998
  42 H :    0.209892
  43 C :   -0.251189
  44 C :   -0.626378
  45 H :    0.208566
  46 H :    0.200119
  47 H :    0.205330
  48 H :    0.219521
  49 C :   -0.621169
  50 C :   -0.176690
  51 C :   -0.179126
  52 H :    0.207260
  53 H :    0.211420
  54 C :   -0.241477
  55 C :   -0.616878
  56 C :   -0.198555
  57 H :    0.224942
  58 H :    0.218267
  59 C :   -0.619031
  60 C :   -0.606498
  61 H :    0.204700
  62 H :    0.199330
  63 H :    0.201827
  64 H :    0.202950
  65 H :    0.206761
  66 H :    0.196023
  67 H :    0.197306
  68 H :    0.197979
  69 H :    0.201317
  70 H :    0.203947
  71 H :    0.211527
  72 H :    0.193509
Sum of atomic charges:    0.0000000

--------------------------------
MULLIKEN REDUCED ORBITAL CHARGES
--------------------------------
  0 C s       :     3.355840  s :     3.355840
      pz      :     1.009907  p :     2.536491
      px      :     0.794158
      py      :     0.732425

  1 C s       :     3.383628  s :     3.383628
      pz      :     1.022515  p :     3.116248
      px      :     0.946164
      py      :     1.147570

  2 C s       :     3.306242  s :     3.306242
      pz      :     1.062937  p :     2.748633
      px      :     0.793705
      py      :     0.891992

  3 H s       :     0.792809  s :     0.792809

  4 H s       :     0.777814  s :     0.777814

  5 C s       :     3.345254  s :     3.345254
      pz      :     0.825721  p :     2.519278
      px      :     0.939454
      py      :     0.754103

  6 C s       :     3.368316  s :     3.368316
      pz      :     1.031957  p :     3.107395
      px      :     0.945805
      py      :     1.129633

  7 C s       :     3.340468  s :     3.340468
      pz      :     1.190893  p :     3.111239
      px      :     0.988277
      py      :     0.932069

  8 H s       :     0.785811  s :     0.785811

  9 H s       :     0.775908  s :     0.775908

 10 H s       :     0.770868  s :     0.770868

 11 H s       :     0.795398  s :     0.795398

 12 O s       :     3.685466  s :     3.685466
      pz      :     1.648301  p :     4.801878
      px      :     1.284427
      py      :     1.869151

 13 H s       :     0.766135  s :     0.766135

 14 C s       :     3.392441  s :     3.392441
      pz      :     1.008321  p :     2.890992
      px      :     0.805071
      py      :     1.077600

 15 C s       :     3.386772  s :     3.386772
      pz      :     0.999087  p :     3.129872
      px      :     1.012404
      py      :     1.118381

 16 H s       :     0.798650  s :     0.798650

 17 H s       :     0.803270  s :     0.803270

 18 C s       :     3.396813  s :     3.396813
      pz      :     1.030603  p :     2.863401
      px      :     0.754179
      py      :     1.078619

 19 H s       :     0.782254  s :     0.782254

 20 C s       :     3.350413  s :     3.350413
      pz      :     0.956925  p :     2.498371
      px      :     0.751642
      py      :     0.789805

 21 H s       :     0.780913  s :     0.780913

 22 C s       :     3.372415  s :     3.372415
      pz      :     1.096507  p :     3.107603
      px      :     1.125570
      py      :     0.885527

 23 C s       :     3.327111  s :     3.327111
      pz      :     1.088324  p :     3.100065
      px      :     0.899465
      py      :     1.112276

 24 H s       :     0.788337  s :     0.788337

 25 H s       :     0.793486  s :     0.793486

 26 C s       :     3.349603  s :     3.349603
      pz      :     1.177830  p :     3.047474
      px      :     0.957231
      py      :     0.912413

 27 H s       :     0.791955  s :     0.791955

 28 H s       :     0.783195  s :     0.783195

 29 C s       :     3.317476  s :     3.317476
      pz      :     0.868027  p :     2.679753
      px      :     0.906120
      py      :     0.905606

 30 H s       :     0.778547  s :     0.778547

 31 H s       :     0.805906  s :     0.805906

 32 C s       :     3.362665  s :     3.362665
      pz      :     1.069220  p :     2.866403
      px      :     0.871764
      py      :     0.925419

 33 H s       :     0.773110  s :     0.773110

 34 C s       :     3.344603  s :     3.344603
      pz      :     1.186947  p :     3.088848
      px      :     0.935958
      py      :     0.965943

 35 H s       :     0.656803  s :     0.656803

 36 C s       :     3.336183  s :     3.336183
      pz      :     1.163738  p :     3.080191
      px      :     0.941684
      py      :     0.974769

 37 H s       :     0.792896  s :     0.792896

 38 H s       :     0.801945  s :     0.801945

 39 C s       :     3.337392  s :     3.337392
      pz      :     1.054905  p :     2.849185
      px      :     0.865788
      py      :     0.928492

 40 H s       :     0.793067  s :     0.793067

 41 H s       :     0.794002  s :     0.794002

 42 H s       :     0.790108  s :     0.790108

 43 C s       :     3.346363  s :     3.346363
      pz      :     1.068107  p :     2.904826
      px      :     0.883095
      py      :     0.953624

 44 C s       :     3.366006  s :     3.366006
      pz      :     0.961484  p :     3.260372
      px      :     1.155850
      py      :     1.143038

 45 H s       :     0.791434  s :     0.791434

 46 H s       :     0.799881  s :     0.799881

 47 H s       :     0.794670  s :     0.794670

 48 H s       :     0.780479  s :     0.780479

 49 C s       :     3.347521  s :     3.347521
      pz      :     1.144600  p :     3.273647
      px      :     1.157769
      py      :     0.971279

 50 C s       :     3.334622  s :     3.334622
      pz      :     1.053336  p :     2.842068
      px      :     0.901875
      py      :     0.886856

 51 C s       :     3.340134  s :     3.340134
      pz      :     1.050428  p :     2.838992
      px      :     0.903391
      py      :     0.885173

 52 H s       :     0.792740  s :     0.792740

 53 H s       :     0.788580  s :     0.788580

 54 C s       :     3.338268  s :     3.338268
      pz      :     1.082679  p :     2.903209
      px      :     0.882610
      py      :     0.937919

 55 C s       :     3.343411  s :     3.343411
      pz      :     1.149050  p :     3.273467
      px      :     1.160456
      py      :     0.963961

 56 C s       :     3.311660  s :     3.311660
      pz      :     0.938295  p :     2.886895
      px      :     1.006619
      py      :     0.941981

 57 H s       :     0.775058  s :     0.775058

 58 H s       :     0.781733  s :     0.781733

 59 C s       :     3.344378  s :     3.344378
      pz      :     0.990492  p :     3.274653
      px      :     1.158858
      py      :     1.125303

 60 C s       :     3.340790  s :     3.340790
      pz      :     1.160614  p :     3.265709
      px      :     1.142939
      py      :     0.962155

 61 H s       :     0.795300  s :     0.795300

 62 H s       :     0.800670  s :     0.800670

 63 H s       :     0.798173  s :     0.798173

 64 H s       :     0.797050  s :     0.797050

 65 H s       :     0.793239  s :     0.793239

 66 H s       :     0.803977  s :     0.803977

 67 H s       :     0.802694  s :     0.802694

 68 H s       :     0.802021  s :     0.802021

 69 H s       :     0.798683  s :     0.798683

 70 H s       :     0.796053  s :     0.796053

 71 H s       :     0.788473  s :     0.788473

 72 H s       :     0.806491  s :     0.806491


------------------------
MULLIKEN OVERLAP CHARGES
------------------------
B(  0-C ,  1-C ) :   0.4961 B(  0-C ,  2-C ) :  -0.1307 B(  0-C ,  3-H ) :  -0.0876 
B(  0-C ,  4-H ) :  -0.0673 B(  0-C ,  5-C ) :   0.4216 B(  0-C ,  6-C ) :  -0.1563 
B(  0-C , 14-C ) :   0.9463 B(  0-C , 15-C ) :  -0.2026 B(  0-C , 18-C ) :  -0.1835 
B(  0-C , 19-H ) :  -0.0751 B(  1-C ,  2-C ) :   0.5269 B(  1-C ,  3-H ) :   0.7957 
B(  1-C ,  4-H ) :   0.8137 B(  1-C ,  5-C ) :  -0.1483 B(  1-C ,  7-C ) :  -0.1689 
B(  1-C , 12-O ) :  -0.0833 B(  1-C , 13-H ) :  -0.0845 B(  1-C , 14-C ) :  -0.1080 
B(  2-C ,  3-H ) :  -0.0820 B(  2-C ,  4-H ) :  -0.0580 B(  2-C ,  6-C ) :  -0.1288 
B(  2-C ,  7-C ) :   0.5343 B(  2-C , 10-H ) :  -0.0697 B(  2-C , 11-H ) :  -0.0825 
B(  2-C , 12-O ) :   0.6905 B(  2-C , 13-H ) :   0.7985 B(  2-C , 35-H ) :  -0.1132 
B(  5-C ,  6-C ) :   0.5390 B(  5-C ,  7-C ) :  -0.1711 B(  5-C ,  8-H ) :  -0.0881 
B(  5-C ,  9-H ) :  -0.0737 B(  5-C , 14-C ) :  -0.1963 B(  5-C , 15-C ) :   1.0584 
B(  5-C , 16-H ) :  -0.0994 B(  5-C , 17-H ) :  -0.0942 B(  6-C ,  7-C ) :   0.5412 
B(  6-C ,  8-H ) :   0.8036 B(  6-C ,  9-H ) :   0.8190 B(  6-C , 11-H ) :  -0.0739 
B(  6-C , 15-C ) :  -0.1289 B(  7-C ,  8-H ) :  -0.0770 B(  7-C , 10-H ) :   0.8058 
B(  7-C , 11-H ) :   0.7945 B(  7-C , 12-O ) :  -0.0901 B(  7-C , 13-H ) :  -0.0843 
B( 12-O , 35-H ) :   0.6599 B( 14-C , 18-C ) :   0.6128 B( 14-C , 19-H ) :   0.8251 
B( 14-C , 20-C ) :  -0.1951 B( 14-C , 21-H ) :  -0.0733 B( 15-C , 16-H ) :   0.8143 
B( 15-C , 17-H ) :   0.8068 B( 18-C , 19-H ) :  -0.0609 B( 18-C , 20-C ) :   0.9214 
B( 18-C , 21-H ) :   0.8317 B( 18-C , 22-C ) :  -0.1498 B( 18-C , 32-C ) :  -0.1484 
B( 20-C , 21-H ) :  -0.0845 B( 20-C , 22-C ) :   0.5329 B( 20-C , 23-C ) :  -0.1707 
B( 20-C , 24-H ) :  -0.0667 B( 20-C , 25-H ) :  -0.0928 B( 20-C , 29-C ) :  -0.1248 
B( 20-C , 32-C ) :   0.5179 B( 20-C , 33-H ) :  -0.0918 B( 20-C , 34-C ) :  -0.0986 
[...]
        0.0000         2.9172        0.0000
        0.0000         0.0000        2.9172

 Diagonalized JT*J matrix:
 
 J[55,60](FC)             2.917            2.917            2.917  iso=      2.917
                ---------------  ---------------  ---------------  ---------------
 J[55,60](Total)          2.917            2.917            2.917  iso=      2.917



-----------------------------------------------------------
 NUCLEUS A = C   56 NUCLEUS B = C   59 
 ( 13C  gnA =  1.405  13C  gnB =  1.405) r(AB) =     1.5313
-----------------------------------------------------------

Fermi-contact contribution to J (Hz):
       26.3652         0.0000        0.0000
        0.0000        26.3652        0.0000
        0.0000         0.0000       26.3652

Total spin-spin coupling tensor J (Hz):
       26.3652         0.0000        0.0000
        0.0000        26.3652        0.0000
        0.0000         0.0000       26.3652

 Diagonalized JT*J matrix:
 
 J[56,59](FC)            26.365           26.365           26.365  iso=     26.365
                ---------------  ---------------  ---------------  ---------------
 J[56,59](Total)         26.365           26.365           26.365  iso=     26.365



-----------------------------------------------------------
 NUCLEUS A = C   56 NUCLEUS B = C   60 
 ( 13C  gnA =  1.405  13C  gnB =  1.405) r(AB) =     1.5297
-----------------------------------------------------------

Fermi-contact contribution to J (Hz):
       27.3540         0.0000        0.0000
        0.0000        27.3540        0.0000
        0.0000         0.0000       27.3540

Total spin-spin coupling tensor J (Hz):
       27.3540         0.0000        0.0000
        0.0000        27.3540        0.0000
        0.0000         0.0000       27.3540

 Diagonalized JT*J matrix:
 
 J[56,60](FC)            27.354           27.354           27.354  iso=     27.354
                ---------------  ---------------  ---------------  ---------------
 J[56,60](Total)         27.354           27.354           27.354  iso=     27.354



-----------------------------------------------------------
 NUCLEUS A = C   59 NUCLEUS B = C   60 
 ( 13C  gnA =  1.405  13C  gnB =  1.405) r(AB) =     2.5119
-----------------------------------------------------------

Fermi-contact contribution to J (Hz):
       -0.9306         0.0000        0.0000
        0.0000        -0.9306        0.0000
        0.0000         0.0000       -0.9306

Total spin-spin coupling tensor J (Hz):
       -0.9306         0.0000        0.0000
        0.0000        -0.9306        0.0000
        0.0000         0.0000       -0.9306

 Diagonalized JT*J matrix:
 
 J[59,60](FC)            -0.931           -0.931           -0.931  iso=     -0.931
                ---------------  ---------------  ---------------  ---------------
 J[59,60](Total)         -0.931           -0.931           -0.931  iso=     -0.931



-----------------------------------------------------------------------------
                SUMMARY OF ISOTROPIC COUPLING CONSTANTS J (Hz)                
-----------------------------------------------------------------------------
                  0 C        1 C        2 C        5 C        6 C        7 C  
      0 C        0.000     32.393     -2.388     42.194     -0.177      0.886
      1 C       32.393      0.000     25.321     -1.180      0.382     -0.385
      2 C       -2.388     25.321      0.000      2.021     -1.358     25.817
      5 C       42.194     -1.180      2.021      0.000     30.995     -2.892
      6 C       -0.177      0.382     -1.358     30.995      0.000     23.078
      7 C        0.886     -0.385     25.817     -2.892     23.078      0.000
     14 C       70.220     -0.379      3.570     -3.182      2.734     -0.706
     15 C       -3.281      2.726     -0.836     64.309     -0.892      2.835
     18 C       -2.633      4.230     -1.075      3.284     -1.015      0.207
     20 C        6.947     -1.153      1.259     -1.504      0.782     -0.146
     22 C       -0.943      0.333     -0.381      0.446     -0.236      0.046
     23 C        0.794     -0.270      0.292     -0.332      0.188      0.000
     26 C       -0.078      0.030      0.000      0.042      0.000      0.000
     29 C        1.131     -0.362      0.000     -0.489      0.258      0.000
     32 C       -1.151      0.556     -0.414      0.514     -0.276      0.058
     34 C        0.021     -0.015      0.016     -0.017      0.008     -0.002
     36 C       -0.014      0.000      0.000      0.015     -0.008      0.000
     39 C       -0.078      0.000      0.000      0.033      0.000      0.000
     43 C        0.000      0.000      0.000      0.000      0.000      0.000
     44 C        0.005     -0.002      0.003     -0.005      0.004     -0.000
     49 C        0.000      0.000      0.000      0.000      0.000      0.000
     50 C        0.000      0.000      0.000      0.000      0.000      0.000
     51 C        0.000      0.000      0.000      0.000      0.000      0.000
     54 C        0.000      0.000      0.000      0.000      0.000      0.000
     55 C        0.000      0.000      0.000      0.000      0.000      0.000
     56 C        0.000      0.000      0.000      0.000      0.000      0.000
     59 C        0.000      0.000      0.000      0.000      0.000      0.000
     60 C        0.000      0.000      0.000      0.000      0.000      0.000
                 14 C       15 C       18 C       20 C       22 C       23 C  
      0 C       70.220     -3.281     -2.633      6.947     -0.943      0.794
      1 C       -0.379      2.726      4.230     -1.153      0.333     -0.270
      2 C        3.570     -0.836     -1.075      1.259     -0.381      0.292
      5 C       -3.182     64.309      3.284     -1.504      0.446     -0.332
      6 C        2.734     -0.892     -1.015      0.782     -0.236      0.188
      7 C       -0.706      2.835      0.207     -0.146      0.046      0.000
     14 C        0.000      3.063     54.434     -2.778      3.875     -0.892
     15 C        3.063      0.000     -1.125      1.070     -0.276      0.237
     18 C       54.434     -1.125      0.000     70.032     -2.167      2.463
     20 C       -2.778      1.070     70.032      0.000     32.229     -2.869
     22 C        3.875     -0.276     -2.167     32.229      0.000     24.451
     23 C       -0.892      0.237      2.463     -2.869     24.451      0.000
     26 C        0.116     -0.021     -0.366      1.021     -1.920     25.406
     29 C       -1.161      0.343      2.398     -2.372      1.108     -2.193
     32 C        4.407     -0.337     -1.327     36.939     -0.212      1.521
     34 C        0.065      0.004      2.457     -1.347      1.616     -0.252
     36 C        0.011     -0.014     -0.151      3.408      0.073      0.177
     39 C        0.265     -0.023     -0.043      2.903     -0.335      2.527
     43 C        0.012      0.000      0.300      0.194      0.001     -0.112
     44 C        0.005      0.002     -0.077      0.702     -0.135      0.613
     49 C        0.000      0.000     -0.010     -0.050      0.136      0.043
     50 C        0.000      0.000      0.023      0.129     -0.006      0.114
     51 C        0.000      0.000      0.017      0.048      0.000     -0.003
     54 C        0.000      0.000      0.000      0.000      0.000      0.000
     55 C        0.000      0.000      0.000      0.000      0.000      0.000
     56 C        0.000      0.000      0.000      0.000      0.000      0.000
     59 C        0.000      0.000      0.000      0.000      0.000      0.000
     60 C        0.000      0.000      0.000      0.000      0.000      0.000
                 26 C       29 C       32 C       34 C       36 C       39 C  
      0 C       -0.078      1.131     -1.151      0.021     -0.014     -0.078
      1 C        0.030     -0.362      0.556     -0.015      0.000      0.000
      2 C        0.000      0.000     -0.414      0.016      0.000      0.000
      5 C        0.042     -0.489      0.514     -0.017      0.015      0.033
      6 C        0.000      0.258     -0.276      0.008     -0.008      0.000
      7 C        0.000      0.000      0.058     -0.002      0.000      0.000
     14 C        0.116     -1.161      4.407      0.065      0.011      0.265
     15 C       -0.021      0.343     -0.337      0.004     -0.014     -0.023
     18 C       -0.366      2.398     -1.327      2.457     -0.151     -0.043
     20 C        1.021     -2.372     36.939     -1.347      3.408      2.903
     22 C       -1.920      1.108     -0.212      1.616      0.073     -0.335
     23 C       25.406     -2.193      1.521     -0.252      0.177      2.527
     26 C        0.000     27.812     -0.931      2.295      3.028     -0.602
     29 C       27.812      0.000     23.360      0.780      0.786     28.323
     32 C       -0.931     23.360      0.000     27.905      1.170      3.378
     34 C        2.295      0.780     27.905      0.000     25.923      0.215
     36 C        3.028      0.786      1.170     25.923      0.000     27.039
     39 C       -0.602     28.323      3.378      0.215     27.039      0.000
     43 C       -0.022     -0.618      2.722      1.839      0.376     28.803
     44 C       -0.569     27.225     -0.969      0.796      0.298     -1.173
     49 C        0.352      0.073     -0.032      0.047      3.224     -1.250
     50 C       -0.118      3.515     -0.088     -0.042      0.638     -1.968
     51 C       -0.022      0.225      0.123      0.066     -0.015      3.221
     54 C       -0.001      0.081     -0.017     -0.003     -0.030     -0.560
     55 C       -0.007      0.121      0.035     -0.006     -0.028      0.953
     56 C        0.000      0.003      0.000      0.005      0.043      0.544
     59 C        0.000      0.000      0.000     -0.000     -0.002     -0.014
     60 C        0.000     -0.001      0.000      0.000     -0.001      0.023
                 43 C       44 C       49 C       50 C       51 C       54 C  
      0 C        0.000      0.005      0.000      0.000      0.000      0.000
      1 C        0.000     -0.002      0.000      0.000      0.000      0.000
      2 C        0.000      0.003      0.000      0.000      0.000      0.000
      5 C        0.000     -0.005      0.000      0.000      0.000      0.000
      6 C        0.000      0.004      0.000      0.000      0.000      0.000
      7 C        0.000     -0.000      0.000      0.000      0.000      0.000
     14 C        0.012      0.005      0.000      0.000      0.000      0.000
     15 C        0.000      0.002      0.000      0.000      0.000      0.000
     18 C        0.300     -0.077     -0.010      0.023      0.017      0.000
     20 C        0.194      0.702     -0.050      0.129      0.048      0.000
     22 C        0.001     -0.135      0.136     -0.006      0.000      0.000
     23 C       -0.112      0.613      0.043      0.114     -0.003      0.000
     26 C       -0.022     -0.569      0.352     -0.118     -0.022     -0.001
     29 C       -0.618     27.225      0.073      3.515      0.225      0.081
     32 C        2.722     -0.969     -0.032     -0.088      0.123     -0.017
     34 C        1.839      0.796      0.047     -0.042      0.066     -0.003
     36 C        0.376      0.298      3.224      0.638     -0.015     -0.030
     39 C       28.803     -1.173     -1.250     -1.968      3.221     -0.560
     43 C        0.000      1.434     25.854     35.880     -0.326      4.049
     44 C        1.434      0.000     -0.096     -0.165     -0.007      0.001
     49 C       25.854     -0.096      0.000     -2.960      3.534     -0.759
     50 C       35.880     -0.165     -2.960      0.000     69.059     -0.538
     51 C       -0.326     -0.007      3.534     69.059      0.000     35.754
     54 C        4.049      0.001     -0.759     -0.538     35.754      0.000
     55 C       -0.619     -0.003      0.888      3.670     -2.309     26.653
     56 C       -0.544     -0.000      1.034      3.021     -2.706     25.550
     59 C        0.004      0.000     -0.011     -0.067      1.678     -1.627
     60 C       -0.013     -0.000     -0.042     -0.097      0.587     -0.370
                 55 C       56 C       59 C       60 C  
      0 C        0.000      0.000      0.000      0.000
      1 C        0.000      0.000      0.000      0.000
      2 C        0.000      0.000      0.000      0.000
      5 C        0.000      0.000      0.000      0.000
      6 C        0.000      0.000      0.000      0.000
      7 C        0.000      0.000      0.000      0.000
     14 C        0.000      0.000      0.000      0.000
     15 C        0.000      0.000      0.000      0.000
     18 C        0.000      0.000      0.000      0.000
     20 C        0.000      0.000      0.000      0.000
     22 C        0.000      0.000      0.000      0.000
     23 C        0.000      0.000      0.000      0.000
     26 C       -0.007      0.000      0.000      0.000
     29 C        0.121      0.003      0.000     -0.001
     32 C        0.035      0.000      0.000      0.000
     34 C       -0.006      0.005     -0.000      0.000
     36 C       -0.028      0.043     -0.002     -0.001
     39 C        0.953      0.544     -0.014      0.023
     43 C       -0.619     -0.544      0.004     -0.013
     44 C       -0.003     -0.000      0.000     -0.000
     49 C        0.888      1.034     -0.011     -0.042
     50 C        3.670      3.021     -0.067     -0.097
     51 C       -2.309     -2.706      1.678      0.587
     54 C       26.653     25.550     -1.627     -0.370
     55 C        0.000     -0.815      1.021      2.917
     56 C       -0.815      0.000     26.365     27.354
     59 C        1.021     26.365      0.000     -0.931
     60 C        2.917     27.354     -0.931      0.000

NMR spin-spin coupling calculation done in   0.3 sec 

Maximum memory used throughout the entire PROP-calculation: 33.9 MB

--------------------------------
SUGGESTED CITATIONS FOR THIS RUN
--------------------------------

Below you find a list of papers that are relevant to this ORCA run
We neither can nor want to force you to cite these papers, but we appreciate if you do
You receive ORCA, which is the product of decades of hard work by many enthusiastic individuals, for free
The only thing we kindly ask in return is that you cite our papers,
We deeply appreciate it, if you show your appreciation for ORCA by not just citing the generic ORCA reference.

Please note that relegating all ORCA citations to the supporting information does *not* help us.
SI sections are not indexed - citations you put there will not count into any citation statistics
But we need these citations in order to attract the funding resources that allow us to do what we are doing

Therefore, if you are a happy ORCA user, please consider citing a few of the papers listed below in the main body of your paper

In addition to the list printed below, the program has created the file inpJ.bibtex that contains the list in bibtex format
You can import this file easily into all common literature databanks and citation aid programs


List of essential papers. We consider these as the minimum necessary citations

  1. Neese,F.
     Software update: the ORCA program system, version 5.0
     WIRES Comput. Molec. Sci., 2022 12(1)e1606
     doi.org/10.1002/wcms.1606

List of papers to cite with high priority. The work reported in these papers was absolutely
necessary for this run to complete.
Our perspective: the developers of density functionals and basis sets usually get cited in chemistry papers
Good! But without the algorithms to do something with them, the functionals or basis sets would not do anything.
Hence, in our opinion, the algorithm design and method developments papers are equally worthy of getting cited

  1. Neese,F.
     An improvement of the resolution of the identity approximation for the formation of the Coulomb matrix
     J. Comp. Chem., 2003 24(14)1740-1747
     doi.org/10.1002/jcc.10318
  2. Neese,F.; Wennmohs,F.; Hansen,A.; Becker,U.
     Efficient, approximate and parallel Hartree-Fock and hybrid DFT calculations. A 'chain-of-spheres' algorithm for the Hartree-Fock exchange
     Chem. Phys., 2009 356(1-3)98-109
     doi.org/10.1016/j.chemphys.2008.10.036
  3. Stoychev,G.L.; Auer,A.A.; Izsak,R.; Neese,F.
     Self-Consistent Field Calculation of Nuclear Magnetic Resonance Chemical Shielding Constants Using Gauge-Including Atomic Orbitals and Approximate Two-Electron Integrals
     J. Chem. Theory Comput., 2018 14(2)619-637
     doi.org/10.1021/acs.jctc.7b01006
  4. Garcia-Rates,M.; Neese,F.
     Effect of the Solute Cavity on the Solvation Energy and its Derivatives within the Framework of the Gaussian Charge Scheme
     J. Comput. Chem., 2020 41 922-939
     doi.org/10.1002/jcc.26139
  5. Helmich-Paris,B.; de Souza,B.; Neese,F.; Izsák,R.
     An improved chain of spheres for exchange algorithm
     J. Chem. Phys., 2021 155 104109
     doi.org/doi: 10.1063/5.0058766.
  6. Neese,F.
     The SHARK Integral Generation and Digestion System
     J. Comp. Chem., 2022  1-16
     doi.org/10.1002/jcc.26942
  7. Grimme,S.; Bannwarth,C.; Dohm,S.; Hansen,A.; Pisarek,J.; Pracht,P.; Seibert,J.; Neese,F.
     Fully Automated Quantum-Chemistry-Based Computation of Spin-Spin-Coupled Nuclear Magnetic Resonance Spectra
     Angew. Chem., Int. Ed., 2017 56 14763-14769
     doi.org/10.1002/anie.201708266
  8. Caldeweyher,E.; Bannwarth,C.; Grimme,S.
     Extension of the D3 dispersion coefficient model
     J. Chem. Phys., 2017 147 034112-XXXX
     doi.org/10.1063/1.4993215
  9. Caldeweyher,E.; Ehlert,S.; Hansen,A.; Neugebauer,H.; Spicher,S.; Bannwarth,C.; Grimme,S.
     A generally applicable atomic-charge dependent London dispersion correction
     J. Chem. Phys., 2019 150 154122-XXXX
     doi.org/10.1063/1.5090222
 10. Caldeweyher,E.; Mewes,J.; Ehlert,S.; Grimme,S.
     Extension and evaluation of the D4 London-dispersion model for periodic systems
     Phys. Chem. Chem. Phys., 2020 22(16)8499-8512
     doi.org/10.1039/D0CP00502A

List of suggested additional citations. These are papers that are important in the 'surrounding' of 
of this run, or papers that preceded the highly important papers. If you like your results we are grateful for a citation.

  1. Izsak,R.; Neese,F.
     An overlap fitted chain of spheres exchange method
     J. Chem. Phys., 2011 135 144105
     doi.org/10.1063/1.3646921
  2. Izsak,R.; Hansen,A.; Neese,F.
     The resolution of identity and chain of spheres approximations for the LPNO-CCSD singles Fock term
     Molec. Phys., 2012 110 2413-2417
     doi.org/10.1080/00268976.2012.687466
  3. Neese,F.
     The ORCA program system
     WIRES Comput. Molec. Sci., 2012 2(1)73-78
     doi.org/10.1002/wcms.81
  4. Izsak,R.; Neese,F.; Klopper,W.
     Robust fitting techniques in the chain of spheres approximation to the Fock exchange: The role of the complementary space
     J. Chem. Phys., 2013 139 
     doi.org/10.1063/1.4819264
  5. Neese,F.
     Software update: the ORCA program system, version 4.0
     WIRES Comput. Molec. Sci., 2018 8(1)1-6
     doi.org/10.1002/wcms.1327
  6. Neese,F.; Wennmohs,F.; Becker,U.; Riplinger,C.
     The ORCA quantum chemistry program package
     J. Chem. Phys., 2020 152 Art. No. L224108
     doi.org/10.1063/5.0004608

Timings for individual modules:

Sum of individual times          ...      137.196 sec (=   2.287 min)
Startup calculation              ...        3.880 sec (=   0.065 min)   2.8 %
SCF iterations                   ...       19.041 sec (=   0.317 min)  13.9 %
Property integrals               ...        0.741 sec (=   0.012 min)   0.5 %
SCF Response                     ...      112.958 sec (=   1.883 min)  82.3 %
Property calculations            ...        0.574 sec (=   0.010 min)   0.4 %
                             ****ORCA TERMINATED NORMALLY****
TOTAL RUN TIME: 0 days 0 hours 2 minutes 17 seconds 455 msec
