
                                 *****************
                                 * O   R   C   A *
                                 *****************

                                            #,                                       
                                            ###                                      
                                            ####                                     
                                            #####                                    
                                            ######                                   
                                           ########,                                 
                                     ,,################,,,,,                         
                               ,,#################################,,                 
                          ,,##########################################,,             
                       ,#########################################, ''#####,          
                    ,#############################################,,   '####,        
                  ,##################################################,,,,####,       
                ,###########''''           ''''###############################       
              ,#####''   ,,,,##########,,,,          '''####'''          '####       
            ,##' ,,,,###########################,,,                        '##       
           ' ,,###''''                  '''############,,,                           
         ,,##''                                '''############,,,,        ,,,,,,###''
      ,#''                                            '''#######################'''  
     '                                                          ''''####''''         
             ,#######,   #######,   ,#######,      ##                                
            ,#'     '#,  ##    ##  ,#'     '#,    #''#        ,####,   ,####,        
            ##       ##  ##   ,#'  ##            #'  '#       #'       #'  '#        
            ##       ##  #######   ##           ,######,      #####,   #    #        
            '#,     ,#'  ##    ##  '#,     ,#' ,#      #,     #,   #   #,  ,#        
             '#######'   ##     ##  '#######'  #'      '#     '####' # '####'        



                #########################################################
                #                        -***-                          #
                #          Department of theory and spectroscopy        #
                #                                                       #
                #                      Frank Neese                      #
                #                                                       #
                #     Directorship, Architecture, Infrastructure        #
                #                    SHARK, DRIVERS                     #
                #        Core code/Algorithms in most modules           #
                #                                                       #
                #        Max Planck Institute fuer Kohlenforschung      #
                #                Kaiser Wilhelm Platz 1                 #
                #                 D-45470 Muelheim/Ruhr                 #
                #                      Germany                          #
                #                                                       #
                #                  All rights reserved                  #
                #                        -***-                          #
                #########################################################


                         Program Version 6.0.0  -   RELEASE  -


 With contributions from (in alphabetic order):
   Daniel Aravena         : Magnetic Suceptibility
   Michael Atanasov       : Ab Initio Ligand Field Theory (pilot matlab implementation)
   Alexander A. Auer      : GIAO ZORA, VPT2 properties, NMR spectrum
   Ute Becker             : All parallelization in ORCA, NUMFREQ, NUMCALC
   Giovanni Bistoni       : ED, misc. LED, open-shell LED, HFLD
   Martin Brehm           : Molecular dynamics
   Dmytro Bykov           : pre 5.0 version of the SCF Hessian
   Marcos Casanova-Páez   : Triplet and SCS-CIS(D). UHF-(DLPNO)-IP/EA/STEOM-CCSD. UHF-CVS-IP/STEOM-CCSD
   Vijay G. Chilkuri      : MRCI spin determinant printing, contributions to CSF-ICE
   Pauline Colinet        : FMM embedding
   Dipayan Datta          : RHF DLPNO-CCSD density
   Achintya Kumar Dutta   : EOM-CC, STEOM-CC
   Nicolas Foglia         : Exact transition moments, OPA infrastructure, MCD improvements
   Dmitry Ganyushin       : Spin-Orbit,Spin-Spin,Magnetic field MRCI
   Miquel Garcia          : C-PCM and meta-GGA Hessian, CCSD/C-PCM, Gaussian charge scheme
   Tiago L. C. Gouveia    : GS-ROHF, GS-ROCIS
   Yang Guo               : DLPNO-NEVPT2, F12-NEVPT2, CIM, IAO-localization
   Andreas Hansen         : Spin unrestricted coupled pair/coupled cluster methods
   Ingolf Harden          : AUTO-CI MPn and infrastructure 
   Benjamin Helmich-Paris : MC-RPA, TRAH-(SCF,CASSCF), AVAS, COSX integrals, SCF dyn. polar.
   Lee Huntington         : MR-EOM, pCC
   Robert Izsak           : Overlap fitted RIJCOSX, COSX-SCS-MP3, EOM
   Riya Kayal             : Wick's Theorem for AUTO-CI, AUTO-CI UHF-CCSDT
   Emily Kempfer          : AUTO-CI, RHF CISDT and CCSDT
   Christian Kollmar      : KDIIS, OOCD, Brueckner-CCSD(T), CCSD density, CASPT2, CASPT2-K, improved NEVPT2
   Axel Koslowski         : Symmetry handling
   Simone Kossmann        : Meta GGA functionals, TD-DFT gradient, OOMP2, (MP2 Hessian; deprecated post 5.0)
   Lucas Lang             : DCDCAS
   Marvin Lechner         : AUTO-CI (C++ implementation), FIC-MRCC
   Spencer Leger          : CASSCF response
   Dagmar Lenk            : GEPOL surface, SMD, ORCA-2-JSON
   Dimitrios Liakos       : Extrapolation schemes; Compound Job, initial MDCI parallelization
   Dimitrios Manganas     : Further ROCIS development; embedding schemes. LFT, Crystal Embedding
   Dimitrios Pantazis     : SARC Basis sets
   Anastasios Papadopoulos: AUTO-CI, single reference methods and gradients
   Taras Petrenko         : pre 6.0 DFT Hessian and TD-DFT gradient, (ASA, deprecated), ECA, 1-Electron XAS/XES, NRVS
   Peter Pinski           : DLPNO-MP2, DLPNO-MP2 Gradient
   Christoph Reimann      : Effective Core Potentials
   Marius Retegan         : Local ZFS, SOC
   Christoph Riplinger    : Optimizer, TS searches, QM/MM, DLPNO-CCSD(T), (RO)-DLPNO pert. Triples
   Michael Roemelt        : Original ROCIS implementation
   Masaaki Saitow         : Open-shell DLPNO-CCSD energy and density
   Barbara Sandhoefer     : DKH picture change effects
   Kantharuban Sivalingam : CASSCF convergence/infrastructure, NEVPT2 and variants, FIC-MRCI
   Bernardo de Souza      : ESD, SOC TD-DFT
   Georgi Stoychev        : AutoAux, RI-MP2 NMR, DLPNO-MP2 response, X2C
   Van Anh Tran           : RI-MP2 g-tensors
   Willem Van den Heuvel  : Paramagnetic NMR
   Zikuan Wang            : NOTCH, Electric field optimization 
   Frank Wennmohs         : Technical directorship and infrastructure
   Hang Xu                : AUTO-CI-Response properties 


 We gratefully acknowledge several colleagues who have allowed us to
 interface, adapt or use parts of their codes:
   Stefan Grimme, W. Hujo, H. Kruse, P. Pracht,  : VdW corrections, initial TS optimization,
                  C. Bannwarth, S. Ehlert,         DFT functionals, gCP, sTDA/sTD-DF
                  L. Wittmann, M. Mueller
   Ed Valeev, F. Pavosevic, A. Kumar             : LibInt (2-el integral package), F12 methods
   Garnet Chan, S. Sharma, J. Yang, R. Olivares  : DMRG
   Ulf Ekstrom                                   : XCFun DFT Library
   Mihaly Kallay                                 : mrcc  (arbitrary order and MRCC methods)
   Frank Weinhold                                : gennbo (NPA and NBO analysis)
   Simon Mueller                                 : openCOSMO-RS
   Christopher J. Cramer and Donald G. Truhlar   : smd solvation model
   Lars Goerigk                                  : TD-DFT with DH, B97 family of functionals
   V. Asgeirsson, H. Jonsson                     : NEB implementation
   FAccTs GmbH                                   : IRC, NEB, NEB-TS, DLPNO-Multilevel, CI-OPT
                                                   MM, QMMM, 2- and 3-layer-ONIOM, Crystal-QMMM,
                                                   LR-CPCM, SF, NACMEs, symmetry and pop. for TD-DFT,
                                                   nearIR, NL-DFT gradient (VV10), updates on ESD,
                                                   ML-optimized integration grids, MBIS, APM,
                                                   GOAT, DOCKER, SOLVATOR, interface openCOSMO-RS
   S Lehtola, MJT Oliveira, MAL Marques          : LibXC Library
   Liviu Ungur et al                             : ANISO software


 Your calculation uses the libint2 library for the computation of 2-el integrals
 For citations please refer to: http://libint.valeyev.net

 Your ORCA version has been built with support for libXC version: 6.2.2
 For citations please refer to: https://libxc.gitlab.io

 This ORCA versions uses:
   CBLAS   interface :  Fast vector & matrix operations
   LAPACKE interface :  Fast linear algebra routines
   SCALAPACK package :  Parallel linear algebra routines
   Shared memory     :  Shared parallel matrices
   BLAS/LAPACK       :  OpenBLAS 0.3.27  USE64BITINT DYNAMIC_ARCH NO_AFFINITY Zen SINGLE_THREADED
        Core in use  :  Zen
   Copyright (c) 2011-2014, The OpenBLAS Project


NOTE: MaxCore=8000 MB was set to SCF,MP2,MDCI,CIPSI,MRCI and CIS
      => If you want to overwrite this, your respective input block should be placed after the MaxCore statement
Your calculation utilizes the atom-pairwise dispersion correction
based on EEQ partial charges (D4)


================================================================================

----- Orbital basis set information -----
Your calculation utilizes the basis: def2-SVP
   F. Weigend and R. Ahlrichs, Phys. Chem. Chem. Phys. 7, 3297 (2005).

----- AuxJ basis set information -----
Your calculation utilizes the auxiliary basis: def2/J
   F. Weigend, Phys. Chem. Chem. Phys. 8, 1057 (2006).

================================================================================
                                        WARNINGS
                       Please study these warnings very carefully!
================================================================================

WARNING: Old DensityContainer found on disk!
         Will remove this file - 
         If you want to keep old densities, please start your calculation with a different basename. 


================================================================================
                                       INPUT FILE
================================================================================
NAME = inpS
|  1> ! wb97x-d4
|  2> ! def2-svp
|  3> ! def2/J RIJCOSX
|  4> ! DEFGRID2
|  5> ! scfconv7
|  6> ! smallprint printgap noloewdin
|  7> ! NOSOSCF
|  8> %MaxCore 8000
|  9> %output
| 10>        print[P_BondOrder_M] 1
| 11>        print[P_Mayer] 1
| 12>        print[P_basis] 2
| 13> end
| 14> %pal
| 15>     nprocs 4
| 16> end
| 17> ! CPCM(chloroform)
| 18> *xyz 0 1
| 19> C   -5.1689377700   0.0063993000  -0.4132372400
| 20> C   -6.5642456000  -0.5494681200  -0.5716961300
| 21> C   -7.5185013300   0.1082638900   0.4335754300
| 22> H   -6.5671460500  -1.6368823100  -0.4357676800
| 23> H   -6.9393772300  -0.3325716100  -1.5828027500
| 24> C   -5.0992597900   1.4818353000  -0.5027327200
| 25> C   -6.0885270000   2.2050412100   0.3844691200
| 26> C   -7.5054491400   1.6273999400   0.2557066300
| 27> H   -6.0877780200   3.2765110000   0.1576895000
| 28> H   -5.7582931500   2.0975819400   1.4289077000
| 29> H   -7.9085220900   1.8613466300  -0.7390836000
| 30> H   -8.1682788400   2.0883828800   0.9972091900
| 31> O   -7.1809525900  -0.2729831500   1.7774472300
| 32> H   -8.5360403300  -0.2694091400   0.2739107500
| 33> C   -4.1197251700  -0.8025576900  -0.1328099900
| 34> C   -4.2646347100   2.1282097700  -1.3236604200
| 35> H   -3.5731885700   1.5898670800  -1.9664729100
| 36> H   -4.2624481100   3.2144476400  -1.3766505200
| 37> C   -2.7648152100  -0.3818309800   0.1401404000
| 38> H   -4.3357317300  -1.8688687200  -0.0816985100
| 39> C   -1.7075296100  -1.1903327600   0.3683836100
| 40> H   -2.5996621600   0.6924643400   0.1782978300
| 41> C   -1.7354697700  -2.6977303600   0.3548136300
| 42> C   -0.6699470300  -3.2801213000  -0.5927354500
| 43> H   -2.7199578900  -3.0928493900   0.0905403500
| 44> H   -1.5121961100  -3.0471794700   1.3755906600
| 45> C    0.7263735900  -2.7003141500  -0.3338246900
| 46> H   -0.9675597500  -3.0837565500  -1.6306633400
| 47> H   -0.6428635200  -4.3705105400  -0.4769511700
| 48> C    0.7247002600  -1.1657198900  -0.3789160200
| 49> H    1.4274520700  -3.1206997400  -1.0621732400
| 50> H    1.0704097400  -3.0171140300   0.6624762700
| 51> C   -0.3337721200  -0.6673126900   0.6559587000
| 52> H   -0.0204476400  -1.1235775400   1.6133835500
| 53> C   -0.0666550700   0.8298796500   0.7600922500
| 54> H   -6.2166179600  -0.2476359000   1.8560253500
| 55> C    1.4759392600   0.9249823100   0.6635940700
| 56> H   -0.4591176900   1.2586145600   1.6882621500
| 57> H   -0.5404924400   1.3662560500  -0.0697550700
| 58> C    1.9958180700  -0.4680916100   0.1854050900
| 59> H    1.9155022800   1.1936789300   1.6277021100
| 60> H    1.7828002100   1.7038134000  -0.0445154500
| 61> H    2.2928189900  -1.0571358900   1.0679830700
| 62> C    3.2177617300  -0.3405513500  -0.7334768000
| 63> C    0.3892439600  -0.6543425600  -1.7871347500
| 64> H    0.5214335700   0.4293892200  -1.8657794700
| 65> H   -0.6482604200  -0.8760878600  -2.0562531200
| 66> H    1.0373937500  -1.1218006200  -2.5359664600
| 67> H    2.9241896900   0.2924314300  -1.5864184000
| 68> C    3.7195576900  -1.6781450300  -1.3083585200
| 69> C    4.4045924400   0.3348927700  -0.0804456100
| 70> C    4.6437775100   0.4618707200   1.2249134000
| 71> H    5.1565607300   0.6813263500  -0.7914161500
| 72> H    3.8959392500   0.1085770300   1.9322391000
| 73> C    5.8866309200   1.0438898600   1.8532468900
| 74> C    6.7405431700   1.8431192300   0.8676406100
| 75> C    6.7125598000  -0.0663321000   2.5651540100
| 76> H    5.5512452800   1.7313468800   2.6494790000
| 77> H    7.0652229200  -0.7515179800   1.7777838600
| 78> C    5.8650747600  -0.8696865800   3.5569943000
| 79> C    7.9331064800   0.5114622200   3.2888927600
| 80> H    7.2336037400   1.1833846300   0.1433346800
| 81> H    7.5175251000   2.4092981500   1.3872244100
| 82> H    6.1247926800   2.5567316700   0.3105614100
| 83> H    5.0660710200  -1.4293145500   3.0623125700
| 84> H    5.4053849000  -0.2039682400   4.2993796400
| 85> H    6.4904194600  -1.5893505400   4.0962853400
| 86> H    8.6499776000   0.9676723700   2.6007699400
| 87> H    8.4582322500  -0.2771961200   3.8388370400
| 88> H    7.6228416400   1.2753067400   4.0139446000
| 89> H    3.0083816400  -2.1192183300  -2.0113229900
| 90> H    3.9029398400  -2.3958491500  -0.4999009000
| 91> H    4.6647372300  -1.5298308000  -1.8428028600
| 92> *
| 93> %eprnmr
| 94>  Nuclei = all C { shift }
| 95>  origin giao
| 96>  giao_2el giao_2el_same_as_scf
| 97>  giao_1el giao_1el_analytic
| 98> end
| 99> 
|100>                          ****END OF INPUT****
================================================================================

                       ****************************
                       * Single Point Calculation *
                       ****************************

---------------------------------
CARTESIAN COORDINATES (ANGSTROEM)
---------------------------------
  C     -5.168938    0.006399   -0.413237
  C     -6.564246   -0.549468   -0.571696
  C     -7.518501    0.108264    0.433575
  H     -6.567146   -1.636882   -0.435768
  H     -6.939377   -0.332572   -1.582803
  C     -5.099260    1.481835   -0.502733
  C     -6.088527    2.205041    0.384469
  C     -7.505449    1.627400    0.255707
  H     -6.087778    3.276511    0.157690
  H     -5.758293    2.097582    1.428908
  H     -7.908522    1.861347   -0.739084
  H     -8.168279    2.088383    0.997209
  O     -7.180953   -0.272983    1.777447
  H     -8.536040   -0.269409    0.273911
  C     -4.119725   -0.802558   -0.132810
  C     -4.264635    2.128210   -1.323660
  H     -3.573189    1.589867   -1.966473
  H     -4.262448    3.214448   -1.376651
  C     -2.764815   -0.381831    0.140140
  H     -4.335732   -1.868869   -0.081699
  C     -1.707530   -1.190333    0.368384
  H     -2.599662    0.692464    0.178298
  C     -1.735470   -2.697730    0.354814
  C     -0.669947   -3.280121   -0.592735
  H     -2.719958   -3.092849    0.090540
  H     -1.512196   -3.047179    1.375591
  C      0.726374   -2.700314   -0.333825
  H     -0.967560   -3.083757   -1.630663
  H     -0.642864   -4.370511   -0.476951
  C      0.724700   -1.165720   -0.378916
  H      1.427452   -3.120700   -1.062173
  H      1.070410   -3.017114    0.662476
  C     -0.333772   -0.667313    0.655959
  H     -0.020448   -1.123578    1.613384
  C     -0.066655    0.829880    0.760092
  H     -6.216618   -0.247636    1.856025
  C      1.475939    0.924982    0.663594
  H     -0.459118    1.258615    1.688262
  H     -0.540492    1.366256   -0.069755
  C      1.995818   -0.468092    0.185405
  H      1.915502    1.193679    1.627702
  H      1.782800    1.703813   -0.044515
  H      2.292819   -1.057136    1.067983
  C      3.217762   -0.340551   -0.733477
  C      0.389244   -0.654343   -1.787135
  H      0.521434    0.429389   -1.865779
  H     -0.648260   -0.876088   -2.056253
  H      1.037394   -1.121801   -2.535966
  H      2.924190    0.292431   -1.586418
  C      3.719558   -1.678145   -1.308359
  C      4.404592    0.334893   -0.080446
  C      4.643778    0.461871    1.224913
  H      5.156561    0.681326   -0.791416
  H      3.895939    0.108577    1.932239
  C      5.886631    1.043890    1.853247
  C      6.740543    1.843119    0.867641
  C      6.712560   -0.066332    2.565154
  H      5.551245    1.731347    2.649479
  H      7.065223   -0.751518    1.777784
  C      5.865075   -0.869687    3.556994
  C      7.933106    0.511462    3.288893
  H      7.233604    1.183385    0.143335
  H      7.517525    2.409298    1.387224
  H      6.124793    2.556732    0.310561
  H      5.066071   -1.429315    3.062313
  H      5.405385   -0.203968    4.299380
  H      6.490419   -1.589351    4.096285
  H      8.649978    0.967672    2.600770
  H      8.458232   -0.277196    3.838837
  H      7.622842    1.275307    4.013945
  H      3.008382   -2.119218   -2.011323
  H      3.902940   -2.395849   -0.499901
  H      4.664737   -1.529831   -1.842803

----------------------------
CARTESIAN COORDINATES (A.U.)
----------------------------
  NO LB      ZA    FRAG     MASS         X           Y           Z
   0 C     6.0000    0    12.011   -9.767877    0.012093   -0.780905
   1 C     6.0000    0    12.011  -12.404626   -1.038344   -1.080349
   2 C     6.0000    0    12.011  -14.207908    0.204589    0.819339
   3 H     1.0000    0     1.008  -12.410108   -3.093259   -0.823482
   4 H     1.0000    0     1.008  -13.113523   -0.628469   -2.991064
   5 C     6.0000    0    12.011   -9.636204    2.800263   -0.950027
   6 C     6.0000    0    12.011  -11.505649    4.166924    0.726541
   7 C     6.0000    0    12.011  -14.183243    3.075340    0.483216
   8 H     1.0000    0     1.008  -11.504233    6.191708    0.297990
   9 H     1.0000    0     1.008  -10.881597    3.963855    2.700244
  10 H     1.0000    0     1.008  -14.944941    3.517435   -1.396666
  11 H     1.0000    0     1.008  -15.435810    3.946472    1.884452
  12 O     8.0000    0    15.999  -13.570034   -0.515863    3.358888
  13 H     1.0000    0     1.008  -16.130778   -0.509109    0.517616
  14 C     6.0000    0    12.011   -7.785152   -1.516614   -0.250975
  15 C     6.0000    0    12.011   -8.058992    4.021734   -2.501356
  16 H     1.0000    0     1.008   -6.752348    3.004413   -3.716095
  17 H     1.0000    0     1.008   -8.054860    6.074426   -2.601492
  18 C     6.0000    0    12.011   -5.224744   -0.721556    0.264827
  19 H     1.0000    0     1.008   -8.193346   -3.531650   -0.154388
  20 C     6.0000    0    12.011   -3.226763   -2.249403    0.696144
  21 H     1.0000    0     1.008   -4.912650    1.308568    0.336934
  22 C     6.0000    0    12.011   -3.279563   -5.097972    0.670501
  23 C     6.0000    0    12.011   -1.266016   -6.198531   -1.120108
  24 H     1.0000    0     1.008   -5.139976   -5.844638    0.171096
  25 H     1.0000    0     1.008   -2.857637   -5.758335    2.599490
  26 C     6.0000    0    12.011    1.372647   -5.102854   -0.630837
  27 H     1.0000    0     1.008   -1.828423   -5.827455   -3.081507
  28 H     1.0000    0     1.008   -1.214836   -8.259068   -0.901307
  29 C     6.0000    0    12.011    1.369485   -2.202891   -0.716048
  30 H     1.0000    0     1.008    2.697493   -5.897268   -2.007217
  31 H     1.0000    0     1.008    2.022781   -5.701519    1.251899
  32 C     6.0000    0    12.011   -0.630738   -1.261038    1.239582
  33 H     1.0000    0     1.008   -0.038640   -2.123254    3.048853
  34 C     6.0000    0    12.011   -0.125960    1.568245    1.436366
  35 H     1.0000    0     1.008  -11.747705   -0.467964    3.507380
  36 C     6.0000    0    12.011    2.789121    1.747963    1.254011
  37 H     1.0000    0     1.008   -0.867607    2.378437    3.190353
  38 H     1.0000    0     1.008   -1.021383    2.581850   -0.131818
  39 C     6.0000    0    12.011    3.771550   -0.884565    0.350365
  40 H     1.0000    0     1.008    3.619775    2.255726    3.075911
  41 H     1.0000    0     1.008    3.369004    3.219741   -0.084122
  42 H     1.0000    0     1.008    4.332800   -1.997697    2.018196
  43 C     6.0000    0    12.011    6.080688   -0.643549   -1.386070
  44 C     6.0000    0    12.011    0.735564   -1.236528   -3.377195
  45 H     1.0000    0     1.008    0.985367    0.811428   -3.525812
  46 H     1.0000    0     1.008   -1.225035   -1.655566   -3.885755
  47 H     1.0000    0     1.008    1.960390   -2.119896   -4.792282
  48 H     1.0000    0     1.008    5.525918    0.552615   -2.997896
  49 C     6.0000    0    12.011    7.028945   -3.171235   -2.472439
  50 C     6.0000    0    12.011    8.323473    0.632856   -0.152020
  51 C     6.0000    0    12.011    8.775468    0.872809    2.314751
  52 H     1.0000    0     1.008    9.744488    1.287520   -1.495560
  53 H     1.0000    0     1.008    7.362258    0.205181    3.651403
  54 C     6.0000    0    12.011   11.124120    1.972666    3.502129
  55 C     6.0000    0    12.011   12.737781    3.482991    1.639603
  56 C     6.0000    0    12.011   12.684900   -0.125350    4.847439
  57 H     1.0000    0     1.008   10.490333    3.271771    5.006790
  58 H     1.0000    0     1.008   13.351336   -1.420163    3.359525
  59 C     6.0000    0    12.011   11.083385   -1.643469    6.721745
  60 C     6.0000    0    12.011   14.991399    0.966524    6.215107
  61 H     1.0000    0     1.008   13.669530    2.236273    0.270863
  62 H     1.0000    0     1.008   14.206064    4.552914    2.621474
  63 H     1.0000    0     1.008   11.574181    4.831523    0.586876
  64 H     1.0000    0     1.008    9.573487   -2.701013    5.786932
  65 H     1.0000    0     1.008   10.214697   -0.385444    8.124650
  66 H     1.0000    0     1.008   12.265115   -3.003437    7.740857
  67 H     1.0000    0     1.008   16.346089    1.828636    4.914743
  68 H     1.0000    0     1.008   15.983743   -0.523825    7.254351
  69 H     1.0000    0     1.008   14.405083    2.409980    7.585256
  70 H     1.0000    0     1.008    5.685017   -4.004742   -3.800850
  71 H     1.0000    0     1.008    7.375487   -4.527499   -0.944676
  72 H     1.0000    0     1.008    8.815076   -2.890961   -3.482393

--------------------------------
INTERNAL COORDINATES (ANGSTROEM)
--------------------------------
 C      0   0   0     0.000000000000     0.00000000     0.00000000
 C      1   0   0     1.510291941612     0.00000000     0.00000000
 C      2   1   0     1.534205431017   110.37095225     0.00000000
 H      2   1   3     1.095880731076   110.77143661   237.88881492
 H      2   1   3     1.100047468469   109.81101399   118.70426427
 C      1   2   3     1.479789124143   113.83639714   305.60348919
 C      6   1   2     1.512879210624   114.22809945    50.32975007
 C      3   2   1     1.529569223045   110.13811349    56.86740893
 H      7   6   1     1.095206404246   110.23033766   188.57396717
 H      7   6   1     1.100660636975   108.27729204    71.88006352
 H      8   3   2     1.098547431150   108.28115018    64.63941613
 H      8   3   2     1.096209162824   109.50184926   181.60321564
 O      3   2   1     1.437108163020   110.66505113   292.82901084
 H      3   2   1     1.097048469371   109.50898720   177.27180320
 C      1   2   3     1.354214877415   121.17504992   121.75435557
 C      6   1   2     1.337281297357   123.26018322   232.23183814
 H     16   6   1     1.086792764835   121.38253261   359.05017532
 H     16   6   1     1.087531812013   120.92667717   178.46538679
 C     15   1   2     1.444746995019   126.28216030   184.98444942
 H     15   1   2     1.089169605732   116.16053435     3.05212958
 C     19  15   1     1.350415836378   126.28704328   182.76864297
 H     19  15   1     1.087585377781   115.89298455     3.83611234
 C     21  19  15     1.507717586746   125.63000082     1.28441462
 C     23  21  19     1.540249062801   111.76198367   126.40841168
 H     23  21  19     1.093241177788   112.34649092     2.55138323
 H     23  21  19     1.101794696259   107.75830789   244.97382055
 C     24  23  21     1.533923852958   112.51755986    51.13978906
 H     24  23  21     1.097463781174   109.06036549   289.04393160
 H     24  23  21     1.096853778184   109.14912434   173.03592634
 C     27  24  23     1.535257493354   111.83140034   305.91913157
 H     27  24  23     1.094863776771   108.99419345   182.29894817
 H     27  24  23     1.100608304244   109.18009492    65.80171141
 C     21  19  15     1.497818102221   122.78407920   180.54019267
 H     33  21  19     1.105898813866   106.38007493   124.98385028
 C     33  21  19     1.524395033314   121.11696009     2.41405259
 H     13   3   2     0.967862739567   107.63768462    42.04033731
 C     35  33  21     1.548532751230   103.33346597   195.18393306
 H     35  33  21     1.095143777965   112.30900089    73.46367799
 H     35  33  21     1.095841261405   110.68517675   313.72572801
 C     30  27  24     1.555919027182   115.88930975   166.48516185
 H     37  35  33     1.093122973386   111.14378600   251.43479612
 H     37  35  33     1.096430846748   111.26424616   133.04396525
 H     40  30  27     1.101874131225   105.72506245   321.37210938
 C     40  30  27     1.534195800380   118.08151156    82.34606266
 C     30  27  24     1.535290752389   111.10729651   294.68976542
 H     45  30  27     1.094592917919   111.67192300   187.94561790
 H     45  30  27     1.094536894610   111.41716253    67.97097084
 H     45  30  27     1.095154837472   110.83555698   307.87610493
 H     44  40  30     1.101980542232   107.40640689    63.04318377
 C     44  40  30     1.539949684320   114.26223099   304.19649523
 C     44  40  30     1.513684785071   113.77787172   180.83180582
 C     51  44  40     1.333152295308   127.27184395    21.01105247
 H     51  44  40     1.091307309269   113.63160804   196.51793825
 H     52  51  44     1.088295980142   118.82805771   355.77192550
 C     52  51  44     1.509381943953   126.30374959   174.85517706
 C     55  52  51     1.529494509878   113.13829318    15.62340586
 C     55  52  51     1.556137224923   110.63246377   249.30006573
 H     55  52  51     1.104113334246   106.86815608   134.35110695
 H     57  55  52     1.101727152915   106.65767029    65.29317527
 C     57  55  52     1.532108506088   112.12735552   306.93092999
 C     57  55  52     1.532115613306   111.70765520   183.67877561
 H     56  55  52     1.096803331668   111.23614994   288.99770087
 H     56  55  52     1.092806851288   111.17947153   168.82297580
 H     56  55  52     1.094864656262   110.76141032    49.10986503
 H     60  57  55     1.093755208141   112.30753142    64.23221795
 H     60  57  55     1.098012599493   110.57111109   303.42989233
 H     60  57  55     1.095357035384   110.33044008   184.36037069
 H     61  57  55     1.093409767223   112.48024458   296.20062998
 H     61  57  55     1.095526249195   110.33465722   176.07238452
 H     61  57  55     1.097917525300   110.43833037    57.06039977
 H     50  44  40     1.092920891990   112.24819915    67.55433629
 H     50  44  40     1.096508978595   110.35155389   306.27335286
 H     50  44  40     1.095897908664   110.21485421   187.45705189

---------------------------
INTERNAL COORDINATES (A.U.)
---------------------------
 C      0   0   0     0.000000000000     0.00000000     0.00000000
 C      1   0   0     2.854038151914     0.00000000     0.00000000
 C      2   1   0     2.899228097796   110.37095225     0.00000000
 H      2   1   3     2.070914457174   110.77143661   237.88881492
 H      2   1   3     2.078788449719   109.81101399   118.70426427
 C      1   2   3     2.796396180586   113.83639714   305.60348919
 C      6   1   2     2.858927381783   114.22809945    50.32975007
 C      3   2   1     2.890466934430   110.13811349    56.86740893
 H      7   6   1     2.069640164141   110.23033766   188.57396717
 H      7   6   1     2.079947170271   108.27729204    71.88006352
 H      8   3   2     2.075953789997   108.28115018    64.63941613
 H      8   3   2     2.071535103233   109.50184926   181.60321564
 O      3   2   1     2.715740852931   110.66505113   292.82901084
 H      3   2   1     2.073121162749   109.50898720   177.27180320
 C      1   2   3     2.559095244795   121.17504992   121.75435557
 C      6   1   2     2.527095416019   123.26018322   232.23183814
 H     16   6   1     2.053740689865   121.38253261   359.05017532
 H     16   6   1     2.055137286631   120.92667717   178.46538679
 C     15   1   2     2.730176153391   126.28216030   184.98444942
 H     15   1   2     2.058232268225   116.16053435     3.05212958
 C     19  15   1     2.551916097665   126.28704328   182.76864297
 H     19  15   1     2.055238511263   115.89298455     3.83611234
 C     21  19  15     2.849173326247   125.63000082     1.28441462
 C     23  21  19     2.910648906723   111.76198367   126.40841168
 H     23  21  19     2.065926424345   112.34649092     2.55138323
 H     23  21  19     2.082090231737   107.75830789   244.97382055
 C     24  23  21     2.898695992379   112.51755986    51.13978906
 H     24  23  21     2.073905988316   109.06036549   289.04393160
 H     24  23  21     2.072753249725   109.14912434   173.03592634
 C     27  24  23     2.901216207489   111.83140034   305.91913157
 H     27  24  23     2.068992692048   108.99419345   182.29894817
 H     27  24  23     2.079848275741   109.18009492    65.80171141
 C     21  19  15     2.830466011628   122.78407920   180.54019267
 H     33  21  19     2.089845890035   106.38007493   124.98385028
 C     33  21  19     2.880689132872   121.11696009     2.41405259
 H     13   3   2     1.828995513009   107.63768462    42.04033731
 C     35  33  21     2.926302809231   103.33346597   195.18393306
 H     35  33  21     2.069521817622   112.30900089    73.46367799
 H     35  33  21     2.070839870305   110.68517675   313.72572801
 C     30  27  24     2.940260847931   115.88930975   166.48516185
 H     37  35  33     2.065703050397   111.14378600   251.43479612
 H     37  35  33     2.071954025137   111.26424616   133.04396525
 H     40  30  27     2.082240342067   105.72506245   321.37210938
 C     40  30  27     2.899209898531   118.08151156    82.34606266
 C     30  27  24     2.901279057957   111.10729651   294.68976542
 H     45  30  27     2.068480842996   111.67192300   187.94561790
 H     45  30  27     2.068374974286   111.41716253    67.97097084
 H     45  30  27     2.069542717060   110.83555698   307.87610493
 H     44  40  30     2.082441429728   107.40640689    63.04318377
 C     44  40  30     2.910083163384   114.26223099   304.19649523
 C     44  40  30     2.860449696867   113.77787172   180.83180582
 C     51  44  40     2.519292732941   127.27184395    21.01105247
 H     51  44  40     2.062271942466   113.63160804   196.51793825
 H     52  51  44     2.056581355117   118.82805771   355.77192550
 C     52  51  44     2.852318505556   126.30374959   174.85517706
 C     55  52  51     2.890325747005   113.13829318    15.62340586
 C     55  52  51     2.940673181905   110.63246377   249.30006573
 H     55  52  51     2.086471822536   106.86815608   134.35110695
 H     57  55  52     2.081962593314   106.65767029    65.29317527
 C     57  55  52     2.895265483958   112.12735552   306.93092999
 C     57  55  52     2.895278914652   111.70765520   183.67877561
 H     56  55  52     2.072657919626   111.23614994   288.99770087
 H     56  55  52     2.065105666207   111.17947153   168.82297580
 H     56  55  52     2.068994354044   110.76141032    49.10986503
 H     60  57  55     2.066897800937   112.30753142    64.23221795
 H     60  57  55     2.074943104637   110.57111109   303.42989233
 H     60  57  55     2.069924815740   110.33044008   184.36037069
 H     61  57  55     2.066245012205   112.48024458   296.20062998
 H     61  57  55     2.070244583500   110.33465722   176.07238452
 H     61  57  55     2.074763440450   110.43833037    57.06039977
 H     50  44  40     2.065321171903   112.24819915    67.55433629
 H     50  44  40     2.072101672930   110.35155389   306.27335286
 H     50  44  40     2.070946918111   110.21485421   187.45705189

---------------------
BASIS SET INFORMATION
---------------------
There are 3 groups of distinct atoms

 Group   1 Type C   : 7s4p1d contracted to 3s2p1d pattern {511/31/1}
 Group   2 Type H   : 4s1p contracted to 2s1p pattern {31/1}
 Group   3 Type O   : 7s4p1d contracted to 3s2p1d pattern {511/31/1}

Atom   0C    basis set group =>   1
Atom   1C    basis set group =>   1
Atom   2C    basis set group =>   1
Atom   3H    basis set group =>   2
Atom   4H    basis set group =>   2
Atom   5C    basis set group =>   1
Atom   6C    basis set group =>   1
Atom   7C    basis set group =>   1
Atom   8H    basis set group =>   2
Atom   9H    basis set group =>   2
Atom  10H    basis set group =>   2
Atom  11H    basis set group =>   2
Atom  12O    basis set group =>   3
Atom  13H    basis set group =>   2
Atom  14C    basis set group =>   1
Atom  15C    basis set group =>   1
Atom  16H    basis set group =>   2
Atom  17H    basis set group =>   2
Atom  18C    basis set group =>   1
Atom  19H    basis set group =>   2
Atom  20C    basis set group =>   1
Atom  21H    basis set group =>   2
Atom  22C    basis set group =>   1
Atom  23C    basis set group =>   1
Atom  24H    basis set group =>   2
Atom  25H    basis set group =>   2
Atom  26C    basis set group =>   1
Atom  27H    basis set group =>   2
Atom  28H    basis set group =>   2
Atom  29C    basis set group =>   1
Atom  30H    basis set group =>   2
Atom  31H    basis set group =>   2
Atom  32C    basis set group =>   1
Atom  33H    basis set group =>   2
Atom  34C    basis set group =>   1
Atom  35H    basis set group =>   2
Atom  36C    basis set group =>   1
Atom  37H    basis set group =>   2
Atom  38H    basis set group =>   2
Atom  39C    basis set group =>   1
Atom  40H    basis set group =>   2
Atom  41H    basis set group =>   2
Atom  42H    basis set group =>   2
Atom  43C    basis set group =>   1
Atom  44C    basis set group =>   1
Atom  45H    basis set group =>   2
Atom  46H    basis set group =>   2
Atom  47H    basis set group =>   2
Atom  48H    basis set group =>   2
Atom  49C    basis set group =>   1
Atom  50C    basis set group =>   1
Atom  51C    basis set group =>   1
Atom  52H    basis set group =>   2
Atom  53H    basis set group =>   2
Atom  54C    basis set group =>   1
Atom  55C    basis set group =>   1
Atom  56C    basis set group =>   1
Atom  57H    basis set group =>   2
Atom  58H    basis set group =>   2
Atom  59C    basis set group =>   1
Atom  60C    basis set group =>   1
Atom  61H    basis set group =>   2
Atom  62H    basis set group =>   2
Atom  63H    basis set group =>   2
Atom  64H    basis set group =>   2
Atom  65H    basis set group =>   2
Atom  66H    basis set group =>   2
Atom  67H    basis set group =>   2
Atom  68H    basis set group =>   2
Atom  69H    basis set group =>   2
Atom  70H    basis set group =>   2
Atom  71H    basis set group =>   2
Atom  72H    basis set group =>   2

-------------------------
BASIS SET IN INPUT FORMAT
-------------------------

 # Basis set for element : H 
 NewGTO H 
 S 3 
   1      13.0107010000      0.0334854848
   2       1.9622572000      0.2347218709
   3       0.4445379600      0.8137702853
 S 1 
   1       0.1219496200      1.0000000000
 P 1 
   1       0.8000000000      1.0000000000
  end;

 # Basis set for element : C 
 NewGTO C 
 S 5 
   1    1238.4016938000      0.0055173650
   2     186.2900499200      0.0410888285
   3      42.2511763460      0.1822538213
   4      11.6765579320      0.4682845944
   5       3.5930506482      0.4457581734
 S 1 
   1       0.4024514736      1.0000000000
 S 1 
   1       0.1309018267      1.0000000000
 P 3 
   1       9.4680970621      0.0568883320
   2       2.0103545142      0.3129405934
   3       0.5477100471      0.7606501651
 P 1 
   1       0.1526861379      1.0000000000
 D 1 
   1       0.8000000000      1.0000000000
  end;

 # Basis set for element : O 
 NewGTO O 
 S 5 
   1    2266.1767785000     -0.0053893504
   2     340.8701019100     -0.0402347214
   3      77.3631351670     -0.1800818421
   4      21.4796449400     -0.4682885766
   5       6.6589433124     -0.4469261716
 S 1 
   1       0.8097597567      1.0000000000
 S 1 
   1       0.2553077223      1.0000000000
 P 3 
   1      17.7215043170      0.0626302488
   2       3.8635505440      0.3333113849
   3       1.0480920883      0.7414863830
 P 1 
   1       0.2764154441      1.0000000000
 D 1 
   1       1.2000000000      1.0000000000
  end;

---------------------------------
AUXILIARY/J BASIS SET INFORMATION
---------------------------------
There are 3 groups of distinct atoms

 Group   1 Type C   : 12s5p4d2f1g contracted to 6s4p3d1f1g pattern {711111/2111/211/2/1}
 Group   2 Type H   : 5s2p1d contracted to 3s1p1d pattern {311/2/1}
 Group   3 Type O   : 12s5p4d2f1g contracted to 6s4p3d1f1g pattern {711111/2111/211/2/1}

Atom   0C    basis set group =>   1
Atom   1C    basis set group =>   1
Atom   2C    basis set group =>   1
Atom   3H    basis set group =>   2
Atom   4H    basis set group =>   2
Atom   5C    basis set group =>   1
Atom   6C    basis set group =>   1
Atom   7C    basis set group =>   1
Atom   8H    basis set group =>   2
Atom   9H    basis set group =>   2
Atom  10H    basis set group =>   2
Atom  11H    basis set group =>   2
Atom  12O    basis set group =>   3
Atom  13H    basis set group =>   2
Atom  14C    basis set group =>   1
Atom  15C    basis set group =>   1
Atom  16H    basis set group =>   2
Atom  17H    basis set group =>   2
Atom  18C    basis set group =>   1
Atom  19H    basis set group =>   2
Atom  20C    basis set group =>   1
Atom  21H    basis set group =>   2
Atom  22C    basis set group =>   1
Atom  23C    basis set group =>   1
Atom  24H    basis set group =>   2
Atom  25H    basis set group =>   2
Atom  26C    basis set group =>   1
Atom  27H    basis set group =>   2
Atom  28H    basis set group =>   2
Atom  29C    basis set group =>   1
Atom  30H    basis set group =>   2
Atom  31H    basis set group =>   2
Atom  32C    basis set group =>   1
Atom  33H    basis set group =>   2
Atom  34C    basis set group =>   1
Atom  35H    basis set group =>   2
Atom  36C    basis set group =>   1
Atom  37H    basis set group =>   2
Atom  38H    basis set group =>   2
Atom  39C    basis set group =>   1
Atom  40H    basis set group =>   2
Atom  41H    basis set group =>   2
Atom  42H    basis set group =>   2
Atom  43C    basis set group =>   1
Atom  44C    basis set group =>   1
Atom  45H    basis set group =>   2
Atom  46H    basis set group =>   2
Atom  47H    basis set group =>   2
Atom  48H    basis set group =>   2
Atom  49C    basis set group =>   1
Atom  50C    basis set group =>   1
Atom  51C    basis set group =>   1
Atom  52H    basis set group =>   2
Atom  53H    basis set group =>   2
Atom  54C    basis set group =>   1
Atom  55C    basis set group =>   1
Atom  56C    basis set group =>   1
Atom  57H    basis set group =>   2
Atom  58H    basis set group =>   2
Atom  59C    basis set group =>   1
Atom  60C    basis set group =>   1
Atom  61H    basis set group =>   2
Atom  62H    basis set group =>   2
Atom  63H    basis set group =>   2
Atom  64H    basis set group =>   2
Atom  65H    basis set group =>   2
Atom  66H    basis set group =>   2
Atom  67H    basis set group =>   2
Atom  68H    basis set group =>   2
Atom  69H    basis set group =>   2
Atom  70H    basis set group =>   2
Atom  71H    basis set group =>   2
Atom  72H    basis set group =>   2

-------------------------------------
AUXILIARY/J BASIS SET IN INPUT FORMAT
-------------------------------------

 # Auxiliary/J basis set for element : H 
 NewAuxJGTO H 
 S 3 
   1      15.6752927000      0.1007184237
   2       3.6063578000      0.3404257499
   3       1.2080016000      0.6491996172
 S 1 
   1       0.4726794000      1.0000000000
 S 1 
   1       0.2018100000      1.0000000000
 P 2 
   1       2.0281365000      0.5596620919
   2       0.5358730000      0.5596620919
 D 1 
   1       2.2165124000      1.0000000000
  end;

 # Auxiliary/J basis set for element : C 
 NewAuxJGTO C 
 S 7 
   1    1861.0916331000      0.0134602335
   2     642.9939764000      0.0299160374
   3     235.1105725000      0.1008649584
   4      90.7028894000      0.2370970548
   5      36.7794552000      0.3924037254
   6      15.6046273000      0.3195862154
   7       6.8907294000      0.0530104441
 S 1 
   1       3.1478850000     -1.0000000000
 S 1 
   1       1.4777287000      1.0000000000
 S 1 
   1       0.7076466000      1.0000000000
 S 1 
   1       0.3430122000      1.0000000000
 S 1 
   1       0.1669453000      1.0000000000
 P 2 
   1      13.5472892000     -0.6769313712
   2       5.4669419000     -0.3779500978
 P 1 
   1       2.1751721000      1.0000000000
 P 1 
   1       0.8582194000      1.0000000000
 P 1 
   1       0.3376720000      1.0000000000
 D 2 
   1       5.9287253000     -0.3533329857
   2       1.9809209000     -0.7456525731
 D 1 
   1       0.8055417000     -1.0000000000
 D 1 
   1       0.3531244000     -1.0000000000
 F 2 
   1       1.6755626000      0.6311076882
   2       0.5997536000      0.4968166032
 G 1 
   1       1.0024600000     -1.0000000000
  end;

 # Auxiliary/J basis set for element : O 
 NewAuxJGTO O 
 S 7 
   1    2876.8216605000      0.0168151159
   2    1004.7443032000      0.0340137548
   3     369.7579954000      0.1194951309
   4     142.9442404000      0.2664627624
   5      57.8366425000      0.4202764046
   6      24.3864983000      0.2765077335
   7      10.6622662000      0.0057008815
 S 1 
   1       4.8070437000     -1.0000000000
 S 1 
   1       2.2210770000      1.0000000000
 S 1 
   1       1.0447795000      1.0000000000
 S 1 
   1       0.4968425000      1.0000000000
 S 1 
   1       0.2371384000      1.0000000000
 P 2 
   1      64.2613382000     -0.2731534179
   2      16.3006076000     -0.8168011598
 P 1 
   1       4.3550542000      1.0000000000
 P 1 
   1       1.2019554000      1.0000000000
 P 1 
   1       0.3354196000      1.0000000000
 D 2 
   1       9.2146611000     -0.4661230638
   2       2.8435251000     -0.6600908911
 D 1 
   1       0.9955759000     -1.0000000000
 D 1 
   1       0.3649441000     -1.0000000000
 F 2 
   1       2.6420115000      0.5931563945
   2       0.7345613000      0.5931563945
 G 1 
   1       1.3931000000     -1.0000000000
  end;


Checking for AutoStart:
The File: inpS.gbw exists
Trying to determine its content:
     ... Fine, the file contains calculation information
     ... Fine, the calculation information was read
     ... Fine, the file contains a basis set
     ... Fine, the basis set was read
     ... Fine, the file contains a geometry
     ... Fine, the geometry was read
     ... Fine, the file contains a set of orbitals
     ... Fine, the orbitals can be read
     => possible old guess file was deleted
     => GBW file was renamed to GES file
     => GES file is set as startup file
     => Guess is set to MORead
     ... now leaving AutoStart



           ************************************************************
           *        Program running with 4 parallel MPI-processes     *
           *              working on a common directory               *
           ************************************************************
------------------------------------------------------------------------------
                             ORCA STARTUP CALCULATIONS
                           -- RI-GTO INTEGRALS CHOSEN --
------------------------------------------------------------------------------
------------------------------------------------------------------------------
                   ___                                                        
                  /   \      - P O W E R E D   B Y -                         
                 /     \                                                     
                 |  |  |   _    _      __       _____    __    __             
                 |  |  |  | |  | |    /  \     |  _  \  |  |  /  |          
                  \  \/   | |  | |   /    \    | | | |  |  | /  /          
                 / \  \   | |__| |  /  /\  \   | |_| |  |  |/  /          
                |  |  |   |  __  | /  /__\  \  |    /   |      \           
                |  |  |   | |  | | |   __   |  |    \   |  |\   \          
                \     /   | |  | | |  |  |  |  | |\  \  |  | \   \       
                 \___/    |_|  |_| |__|  |__|  |_| \__\ |__|  \__/        
                                                                              
                      - O R C A' S   B I G   F R I E N D -                    
                                      &                                       
                       - I N T E G R A L  F E E D E R -                       
                                                                              
 v1 FN, 2020, v2 2021, v3 2022-2024                                           
------------------------------------------------------------------------------


----------------------
SHARK INTEGRAL PACKAGE
----------------------

Number of atoms                             ...     73
Number of basis functions                   ...    626
Number of shells                            ...    306
Maximum angular momentum                    ...      2
Integral batch strategy                     ... SHARK/LIBINT Hybrid
RI-J (if used) integral strategy            ... SPLIT-RIJ (Revised 2003 algorithm where possible)
Printlevel                                  ...      1
Contraction scheme used                     ... SEGMENTED contraction
Prescreening option                         ... SCHWARTZ
   Thresh                                   ... 3.000e-11
   Tcut                                     ... 1.000e-12
   Tpresel                                  ... 1.000e-12 
Coulomb Range Separation                    ... NOT USED
Exchange Range Separation                   ... Long Range
   Mu parameter                             ... 3.000e-01
   Scaling (regular/separated)              ... 1.670e-01 8.330e-01
Multipole approximations                    ... NOT USED
Finite Nucleus Model                        ... NOT USED
CABS basis                                  ... NOT available
Auxiliary Coulomb fitting basis             ... AVAILABLE
   # of basis functions in Aux-J            ...   1905
   # of shells in Aux-J                     ...    655
   Maximum angular momentum in Aux-J        ...      4
Auxiliary J/K fitting basis                 ... NOT available
Auxiliary Correlation fitting basis         ... NOT available
Auxiliary 'external' fitting basis          ... NOT available

Checking pre-screening integrals            ... done (  0.0 sec) Dimension = 306
Check shell pair data                       ... done (  0.0 sec)
Shell pair information
Shell pair cut-off parameter TPreSel        ...   1.0e-12
Total number of shell pairs                 ...     46971
Shell pairs after pre-screening             ...     27675
Total number of primitive shell pairs       ...    162105
Primitive shell pairs kept                  ...     61080
          la=0 lb=0:   9692 shell pairs
          la=1 lb=0:  10604 shell pairs
          la=1 lb=1:   2939 shell pairs
          la=2 lb=0:   2771 shell pairs
          la=2 lb=1:   1474 shell pairs
          la=2 lb=2:    195 shell pairs

Calculating one electron integrals          ... done (  0.1 sec)
Calculating RI/J V-Matrix + Cholesky decomp.... done (  0.2 sec)
Calculating Nuclear repulsion               ... done (  0.0 sec) ENN=   2790.882068974634 Eh

Diagonalization of the overlap matrix:
Smallest eigenvalue                        ... 4.512e-04
Time for diagonalization                   ...    0.043 sec
Threshold for overlap eigenvalues          ... 1.000e-07
Number of eigenvalues below threshold      ... 0
Time for construction of square roots      ...    0.024 sec
Total time needed                          ...    0.070 sec

-------------------
DFT GRID GENERATION
-------------------

General Integration Accuracy     IntAcc      ... 4.388
Radial Grid Type                 RadialGrid  ... OptM3 with GC (2021)
Angular Grid (max. ang.)         AngularGrid ... 4 (Lebedev-302)
Angular grid pruning method      GridPruning ... 4 (adaptive)
Weight generation scheme         WeightScheme... mBecke (2022)
Basis function cutoff            BFCut       ... 1.0000e-11
Integration weight cutoff        WCut        ... 1.0000e-14
Partially contracted basis set               ... off
Rotationally invariant grid construction     ... off
Angular grids for H and He will be reduced by one unit

Total number of grid points                  ...   309821
Total number of batches                      ...     4878
Average number of points per batch           ...       63
Average number of grid points per atom       ...     4244

--------------------
COSX GRID GENERATION
--------------------

GRIDX 1
-------
General Integration Accuracy     IntAcc      ... 3.816
Radial Grid Type                 RadialGrid  ... OptM3 with GC (2021)
Angular Grid (max. ang.)         AngularGrid ... 1 (Lebedev-50)
Angular grid pruning method      GridPruning ... 4 (adaptive)
Weight generation scheme         WeightScheme... mBecke (2022)
Basis function cutoff            BFCut       ... 1.0000e-11
Integration weight cutoff        WCut        ... 1.0000e-14
Partially contracted basis set               ... on
Rotationally invariant grid construction     ... off
Angular grids for H and He will be reduced by one unit

Total number of grid points                  ...    39335
Total number of batches                      ...      349
Average number of points per batch           ...      112
Average number of grid points per atom       ...      539
UseSFitting                                  ... on

GRIDX 2
-------
General Integration Accuracy     IntAcc      ... 4.020
Radial Grid Type                 RadialGrid  ... OptM3 with GC (2021)
Angular Grid (max. ang.)         AngularGrid ... 2 (Lebedev-110)
Angular grid pruning method      GridPruning ... 4 (adaptive)
Weight generation scheme         WeightScheme... mBecke (2022)
Basis function cutoff            BFCut       ... 1.0000e-11
Integration weight cutoff        WCut        ... 1.0000e-14
Partially contracted basis set               ... on
Rotationally invariant grid construction     ... off
Angular grids for H and He will be reduced by one unit

Total number of grid points                  ...    81334
Total number of batches                      ...      676
Average number of points per batch           ...      120
Average number of grid points per atom       ...     1114
UseSFitting                                  ... on

GRIDX 3
-------
General Integration Accuracy     IntAcc      ... 4.338
Radial Grid Type                 RadialGrid  ... OptM3 with GC (2021)
Angular Grid (max. ang.)         AngularGrid ... 3 (Lebedev-194)
Angular grid pruning method      GridPruning ... 4 (adaptive)
Weight generation scheme         WeightScheme... mBecke (2022)
Basis function cutoff            BFCut       ... 1.0000e-11
Integration weight cutoff        WCut        ... 1.0000e-14
Partially contracted basis set               ... on
Rotationally invariant grid construction     ... off
Angular grids for H and He will be reduced by one unit

Total number of grid points                  ...   176214
Total number of batches                      ...     1419
Average number of points per batch           ...      124
Average number of grid points per atom       ...     2414
UseSFitting                                  ... on
Initializing property integral containers    ... done (  0.0 sec)

SHARK setup successfully completed in   4.4 seconds

Maximum memory used throughout the entire STARTUP-calculation: 95.9 MB


           ************************************************************
           *        Program running with 4 parallel MPI-processes     *
           *              working on a common directory               *
           ************************************************************
-------------------------------------------------------------------------------
                                 ORCA GUESS
                   Start orbitals & Density for SCF / CASSCF
-------------------------------------------------------------------------------

------------
SCF SETTINGS
------------
Hamiltonian:
 Density Functional     Method          .... DFT(GTOs)
 Exchange Functional    Exchange        .... WB97X-V
 Correlation Functional Correlation     .... WB97X-V
 Gradients option       PostSCFGGA      .... off
 Hybrid DFT is turned on
   Fraction HF Exchange ScalHFX         ....  0.167000
   Scaling of DF-GGA-X  ScalDFX         ....  0.000000
   Scaling of DF-GGA-C  ScalDFC         ....  1.000000
   Scaling of DF-LDA-C  ScalLDAC        ....  1.000000
   Perturbative correction              ....  0.000000
 Long-range corrected/Screened/Range-Separated Hybrid DFT is turned on
   Amount of maximum screened exact exchange              ....  0.833000
   Range separation parameter mu (erf(mu*r12)/r12)        ....  0.300000
 RI-approximation to the Coulomb term is turned on
   Number of AuxJ basis functions       .... 1905
   RIJ-COSX (HFX calculated with COS-X)).... on


General Settings:
 Integral files         IntName         .... inpS
 Hartree-Fock type      HFTyp           .... RHF
 Total Charge           Charge          ....    0
 Multiplicity           Mult            ....    1
 Number of Electrons    NEL             ....  220
 Basis Dimension        Dim             ....  626
 Nuclear Repulsion      ENuc            ....   2790.8820689746 Eh

Convergence Acceleration:
 AO-DIIS                CNVDIIS         .... on
   Start iteration      DIISMaxIt       ....    12
   Startup error        DIISStart       ....  0.200000
   # of expansion vecs  DIISMaxEq       ....     5
   Bias factor          DIISBfac        ....   1.050
   Max. coefficient     DIISMaxC        ....  10.000
 MO-DIIS                CNVKDIIS        .... off
 Trust-Rad. Augm. Hess. CNVTRAH         .... auto
   Auto Start mean grad. ratio tolernc. ....  1.125000
   Auto Start start iteration           ....     1
   Auto Start num. interpolation iter.  ....    10
   Max. Number of Micro iterations      ....    24
   Max. Number of Macro iterations      .... Maxiter - #DIIS iter
   Number of Davidson start vectors     ....     2
   Converg. threshold    (grad. norm)   ....   1.000e-04
   Grad. Scal. Fac. for Micro threshold ....   0.100
   Minimum threshold for Micro iter.    ....   1.000e-02
   NR start threshold (gradient norm)   ....   1.000e-04
   Initial trust radius                 ....   0.400
   Minimum AH scaling param. (alpha)    ....   1.000
   Maximum AH scaling param. (alpha)    .... 1000.000
   Quad. conv. algorithm                .... NR
   White noise on init. David. guess    .... on
   Maximum white noise                  ....   0.010
   Pseudo random numbers                .... off
   Inactive MOs                         .... canonical
   Orbital update algorithm             .... Taylor
   Preconditioner                       .... Diag
   Full preconditioner red. dimension   ....   250
 SOSCF                  CNVSOSCF        .... off
 Level Shifting         CNVShift        .... on
   Level shift para.    LevelShift      ....    0.2500
   Turn off err/grad.   ShiftErr        ....    0.0010
 Zerner damping         CNVZerner       .... off
 Static damping         CNVDamp         .... on
   Fraction old density DampFac         ....    0.7000
   Max. Damping (<1)    DampMax         ....    0.9800
   Min. Damping (>=0)   DampMin         ....    0.0000
   Turn off err/grad.   DampErr         ....    0.1000

SCF Procedure:
 Maximum # iterations   MaxIter         ....   125
 SCF integral mode      SCFMode         .... Direct
   Integral package                     .... SHARK and LIBINT hybrid scheme
 Reset frequency        DirectResetFreq ....    20
 Integral Threshold     Thresh          ....  3.000e-11 Eh
 Primitive CutOff       TCut            ....  1.000e-12 Eh

Convergence Tolerance:
 Convergence Check Mode ConvCheckMode   .... Total+1el-Energy
 Convergence forced     ConvForced      .... 0
 Energy Change          TolE            ....  1.000e-07 Eh
 1-El. energy change                    ....  1.000e-04 Eh
 DIIS Error             TolErr          ....  1.000e-07

---------------------
INITIAL GUESS: MOREAD
---------------------
Guess MOs are being read from file: inpS.ges
Input Geometry matches current geometry (good)
Input basis set matches current basis set (good)
Occupation numbers will be reassigned to an Aufbau configuration
MOs were renormalized
MOs were reorthogonalized (Cholesky)
                      ------------------
                      INITIAL GUESS DONE (   0.2 sec)
                      ------------------
             **** ENERGY FILE WAS UPDATED (inpS.en.tmp) ****
Finished Guess after   0.3 sec
Maximum memory used throughout the entire GUESS-calculation: 52.6 MB


           ************************************************************
           *        Program running with 4 parallel MPI-processes     *
           *              working on a common directory               *
           ************************************************************

-------------------------------------------------------------------------------------------
                                      ORCA LEAN-SCF
                              memory conserving SCF solver
-------------------------------------------------------------------------------------------

--------------------
CPCM SOLVATION MODEL
--------------------
CPCM parameters:
  Epsilon                                         ...       4.8030
  Refrac                                          ...       1.4459
  Rsolv                                           ...       1.3000
  Surface type                                    ... GAUSSIAN VDW
  Discretization scheme                           ... Constant charge density
    Threshold for H atoms                         ...       5.0000 (charges/Ang^2)
    Threshold for non-H atoms                     ...       5.0000 (charges/Ang^2)
  Epsilon function type                           ...         CPCM
Solvent:                                          ... CHLOROFORM
Radii:
  Scheme                                          ... Element-dependent radii
  Radius for C  used is    3.8550 Bohr (=   2.0400 Ang.)
  Radius for H  used is    2.4944 Bohr (=   1.3200 Ang.)
  Radius for O  used is    3.4469 Bohr (=   1.8240 Ang.)
Calculating surface                               ...        done! (  0.0s)
Cavity surface points                             ...         5365
Cavity Volume                                     ...    3596.5455
Cavity Surface-area                               ...    1785.2390
Calculating surface distance matrix               ...        done! (  0.2s)
Performing Cholesky decomposition & store         ...        done! (  0.9s)
Overall time for CPCM initialization              ...                 1.1s

----------------------------------------D-I-I-S--------------------------------------------
Iteration    Energy (Eh)           Delta-E    RMSDP     MaxDP     DIISErr   Damp  Time(sec)
-------------------------------------------------------------------------------------------
               ***  Starting incremental Fock matrix formation  ***
    1    -1168.3589812591667396     0.00e+00  3.13e-08  2.11e-06  4.26e-06  0.700  23.6

  HOMO= 109 E= -7.967 eV LUMO=  8.075 eV gap=  16.042 eV
    2    -1168.3589812540890307     5.08e-09  2.66e-08  1.35e-06  2.59e-06  0.700   4.7
                 **** Energy Check signals convergence ****

  HOMO= 109 E= -7.967 eV LUMO=  8.075 eV gap=  16.042 eV

               *****************************************************
               *                     SUCCESS                       *
               *           SCF CONVERGED AFTER   2 CYCLES          *
               *****************************************************

Recomputing exchange energy using gridx3       ... done (   40.758 sec)
Old exchange energy                            :    -56.782603391 Eh
New exchange energy                            :    -56.782666103 Eh
Exchange energy change after final integration :     -0.000062712 Eh
Total energy after final integration           :  -1168.359043966 Eh
             **** ENERGY FILE WAS UPDATED (inpS.en.tmp) ****

----------------
TOTAL SCF ENERGY
----------------

Total Energy       :      -1168.35904396582805 Eh          -31792.66589 eV

Components:
Nuclear Repulsion  :       2790.88206897463351 Eh           75943.76200 eV
Electronic Energy  :      -3959.23169921881617 Eh         -107736.17174 eV
One Electron Energy:      -7126.79197923918764 Eh         -193929.86896 eV
Two Electron Energy:       3167.56028002037147 Eh           86193.69722 eV
CPCM Dielectric    :         -0.00935100990650 Eh              -0.25445 eV

Virial components:
Potential Energy   :      -2321.66564004272914 Eh          -63175.73386 eV
Kinetic Energy     :       1153.30659607690086 Eh           31383.06796 eV
Virial Ratio       :          2.01305155796397

DFT components:
N(Alpha)           :      110.000089621204 electrons
N(Beta)            :      110.000089621204 electrons
N(Total)           :      220.000179242408 electrons
E(X)               :     -111.769326514492 Eh       
E(C)               :       -8.952774553454 Eh       
E(XC)              :     -120.722101067946 Eh       

CPCM Solvation Model Properties:
Surface-charge          :         -0.04187514715991
Corrected charge        :         -0.00000000000000
Outlying charge corr.   :          0.00006152055281 Eh               0.00167 eV
Free-energy (cav+disp)  :  This term is not implemented in the current solvation scheme

---------------
SCF CONVERGENCE
---------------

  Last Energy change         ...   -5.0777e-09  Tolerance :   1.0000e-07
  Last MAX-Density change    ...    1.3489e-06  Tolerance :   1.0000e-05
  Last RMS-Density change    ...    2.6632e-08  Tolerance :   1.0000e-06
  Last DIIS Error            ...    2.5855e-06  Tolerance :   1.0000e-07


----------------
ORBITAL ENERGIES
----------------

  NO   OCC          E(Eh)            E(eV) 
   0   2.0000     -19.212199      -522.7905 
   1   2.0000     -10.330254      -281.1005 
   2   2.0000     -10.294202      -280.1195 
   3   2.0000     -10.292006      -280.0597 
   4   2.0000     -10.287779      -279.9447 
   5   2.0000     -10.286742      -279.9165 
   6   2.0000     -10.285324      -279.8779 
   7   2.0000     -10.284088      -279.8443 
   8   2.0000     -10.283258      -279.8217 
   9   2.0000     -10.282936      -279.8129 
  10   2.0000     -10.282902      -279.8120 
  11   2.0000     -10.282651      -279.8052 
  12   2.0000     -10.279220      -279.7118 
  13   2.0000     -10.277999      -279.6786 
  14   2.0000     -10.277535      -279.6660 
  15   2.0000     -10.277125      -279.6548 
  16   2.0000     -10.276926      -279.6494 
  17   2.0000     -10.276827      -279.6467 
  18   2.0000     -10.273748      -279.5629 
  19   2.0000     -10.273103      -279.5453 
  20   2.0000     -10.271821      -279.5105 
  21   2.0000     -10.271683      -279.5067 
  22   2.0000     -10.270859      -279.4843 
  23   2.0000     -10.270573      -279.4765 
  24   2.0000     -10.269998      -279.4609 
  25   2.0000     -10.268505      -279.4202 
  26   2.0000     -10.268487      -279.4197 
  27   2.0000     -10.268394      -279.4172 
  28   2.0000     -10.267054      -279.3808 
  29   2.0000      -1.130765       -30.7697 
  30   2.0000      -0.998702       -27.1761 
  31   2.0000      -0.977243       -26.5921 
  32   2.0000      -0.957731       -26.0612 
  33   2.0000      -0.942737       -25.6532 
  34   2.0000      -0.917716       -24.9723 
  35   2.0000      -0.911033       -24.7905 
  36   2.0000      -0.890098       -24.2208 
  37   2.0000      -0.887958       -24.1626 
  38   2.0000      -0.873892       -23.7798 
  39   2.0000      -0.853403       -23.2223 
  40   2.0000      -0.833561       -22.6823 
  41   2.0000      -0.828945       -22.5567 
  42   2.0000      -0.809483       -22.0272 
  43   2.0000      -0.799320       -21.7506 
  44   2.0000      -0.797497       -21.7010 
  45   2.0000      -0.791559       -21.5394 
  46   2.0000      -0.760425       -20.6922 
  47   2.0000      -0.758467       -20.6389 
  48   2.0000      -0.724450       -19.7133 
  49   2.0000      -0.713061       -19.4034 
  50   2.0000      -0.704475       -19.1697 
  51   2.0000      -0.699515       -19.0348 
  52   2.0000      -0.688913       -18.7463 
  53   2.0000      -0.678778       -18.4705 
  54   2.0000      -0.658394       -17.9158 
  55   2.0000      -0.631275       -17.1779 
  56   2.0000      -0.621317       -16.9069 
  57   2.0000      -0.619653       -16.8616 
  58   2.0000      -0.607335       -16.5264 
  59   2.0000      -0.605288       -16.4707 
  60   2.0000      -0.590092       -16.0572 
  61   2.0000      -0.585945       -15.9444 
  62   2.0000      -0.571205       -15.5433 
  63   2.0000      -0.569117       -15.4865 
  64   2.0000      -0.562975       -15.3193 
  65   2.0000      -0.558826       -15.2064 
  66   2.0000      -0.555608       -15.1189 
  67   2.0000      -0.551571       -15.0090 
  68   2.0000      -0.549579       -14.9548 
  69   2.0000      -0.539487       -14.6802 
  70   2.0000      -0.538399       -14.6506 
  71   2.0000      -0.532057       -14.4780 
  72   2.0000      -0.529869       -14.4185 
  73   2.0000      -0.523289       -14.2394 
  74   2.0000      -0.519655       -14.1405 
  75   2.0000      -0.508966       -13.8497 
  76   2.0000      -0.507837       -13.8190 
  77   2.0000      -0.503187       -13.6924 
  78   2.0000      -0.498266       -13.5585 
  79   2.0000      -0.492387       -13.3985 
  80   2.0000      -0.488711       -13.2985 
  81   2.0000      -0.487876       -13.2758 
  82   2.0000      -0.483004       -13.1432 
  83   2.0000      -0.477894       -13.0042 
  84   2.0000      -0.476262       -12.9597 
  85   2.0000      -0.467461       -12.7203 
  86   2.0000      -0.462377       -12.5819 
  87   2.0000      -0.459888       -12.5142 
  88   2.0000      -0.454101       -12.3567 
  89   2.0000      -0.452346       -12.3090 
  90   2.0000      -0.448451       -12.2030 
  91   2.0000      -0.447157       -12.1677 
  92   2.0000      -0.442015       -12.0278 
  93   2.0000      -0.434853       -11.8329 
  94   2.0000      -0.428793       -11.6680 
  95   2.0000      -0.423322       -11.5192 
  96   2.0000      -0.420051       -11.4302 
  97   2.0000      -0.419598       -11.4178 
  98   2.0000      -0.419066       -11.4034 
  99   2.0000      -0.414707       -11.2848 
 100   2.0000      -0.410775       -11.1778 
 101   2.0000      -0.407560       -11.0903 
 102   2.0000      -0.405967       -11.0469 
 103   2.0000      -0.400574       -10.9002 
 104   2.0000      -0.392341       -10.6762 
 105   2.0000      -0.381160       -10.3719 
 106   2.0000      -0.372568       -10.1381 
 107   2.0000      -0.355149        -9.6641 
 108   2.0000      -0.336683        -9.1616 
 109   2.0000      -0.292780        -7.9669 
 110   0.0000       0.046766         1.2726 
 111   0.0000       0.099637         2.7113 
 112   0.0000       0.109042         2.9672 
 113   0.0000       0.130180         3.5424 
 114   0.0000       0.142815         3.8862 
 115   0.0000       0.144483         3.9316 
 116   0.0000       0.151913         4.1338 
 117   0.0000       0.154032         4.1914 
 118   0.0000       0.160743         4.3741 
 119   0.0000       0.163136         4.4392 
 120   0.0000       0.169283         4.6064 
*Only the first 10 virtual orbitals were printed.

                    ********************************
                    * MULLIKEN POPULATION ANALYSIS *
                    ********************************

-----------------------
MULLIKEN ATOMIC CHARGES
-----------------------
   0 C :   -0.173833
   1 C :    0.140887
   2 C :    0.068605
   3 H :    0.017550
   4 H :    0.030334
   5 C :   -0.172114
   6 C :    0.096301
   7 C :    0.024085
   8 H :    0.013664
   9 H :    0.027297
  10 H :    0.019753
  11 H :    0.022642
  12 O :   -0.359426
  13 H :    0.018151
  14 C :   -0.007678
  15 C :   -0.044537
  16 H :    0.034713
  17 H :    0.029302
  18 C :   -0.061336
  19 H :   -0.004110
  20 C :   -0.113370
  21 H :    0.002210
  22 C :    0.114429
  23 C :   -0.001127
  24 H :    0.014716
  25 H :    0.017351
  26 C :    0.106911
  27 H :    0.012939
  28 H :    0.015297
  29 C :   -0.420300
  30 H :    0.008934
  31 H :   -0.002458
  32 C :   -0.037430
  33 H :    0.010302
  34 C :    0.109774
  35 H :    0.179244
  36 C :    0.069840
  37 H :    0.007687
  38 H :    0.015179
  39 C :   -0.038989
  40 H :    0.010581
  41 H :    0.000609
  42 H :   -0.000727
  43 C :    0.002750
  44 C :    0.094207
  45 H :    0.020382
  46 H :    0.024053
  47 H :    0.016867
  48 H :    0.006648
  49 C :    0.050726
  50 C :   -0.097982
  51 C :   -0.082724
  52 H :    0.009596
  53 H :    0.026564
  54 C :   -0.044526
  55 C :    0.043914
  56 C :   -0.178952
  57 H :    0.004525
  58 H :    0.007012
  59 C :    0.027441
  60 C :    0.033054
  61 H :    0.020265
  62 H :    0.024453
  63 H :    0.020423
  64 H :    0.024399
  65 H :    0.013750
  66 H :    0.018331
  67 H :    0.024174
  68 H :    0.018579
  69 H :    0.012985
  70 H :    0.031055
  71 H :    0.013316
  72 H :    0.012865
Sum of atomic charges:    0.0000000

--------------------------------
MULLIKEN REDUCED ORBITAL CHARGES
--------------------------------
  0 C s       :     3.101931  s :     3.101931
      pz      :     1.015845  p :     3.028827
      px      :     0.997756
      py      :     1.015227
      dz2     :     0.003958  d :     0.043074
      dxz     :     0.006864
      dyz     :     0.005611
      dx2y2   :     0.014496
      dxy     :     0.012146

  1 C s       :     2.940899  s :     2.940899
      pz      :     0.986961  p :     2.883811
      px      :     0.933624
      py      :     0.963227
      dz2     :     0.007462  d :     0.034403
      dxz     :     0.008078
      dyz     :     0.003463
      dx2y2   :     0.009718
      dxy     :     0.005682

  2 C s       :     3.085193  s :     3.085193
      pz      :     0.755691  p :     2.775522
      px      :     1.032544
      py      :     0.987287
      dz2     :     0.021412  d :     0.070680
      dxz     :     0.012827
      dyz     :     0.016428
      dx2y2   :     0.012156
      dxy     :     0.007856

  3 H s       :     0.959796  s :     0.959796
      pz      :     0.004249  p :     0.022653
      px      :     0.003511
      py      :     0.014893

  4 H s       :     0.946362  s :     0.946362
      pz      :     0.013524  p :     0.023305
      px      :     0.005070
      py      :     0.004711

  5 C s       :     3.109441  s :     3.109441
      pz      :     0.984262  p :     3.017844
      px      :     0.991940
      py      :     1.041642
      dz2     :     0.009620  d :     0.044829
      dxz     :     0.005786
      dyz     :     0.009132
      dx2y2   :     0.011218
      dxy     :     0.009073

  6 C s       :     2.954416  s :     2.954416
      pz      :     0.999645  p :     2.913844
      px      :     0.942677
      py      :     0.971522
      dz2     :     0.008813  d :     0.035440
      dxz     :     0.007737
      dyz     :     0.003253
      dx2y2   :     0.009220
      dxy     :     0.006417

  7 C s       :     3.002211  s :     3.002211
      pz      :     0.987918  p :     2.938925
      px      :     0.984874
      py      :     0.966133
      dz2     :     0.006915  d :     0.034778
      dxz     :     0.007549
      dyz     :     0.003956
      dx2y2   :     0.008878
      dxy     :     0.007481

  8 H s       :     0.963507  s :     0.963507
      pz      :     0.004719  p :     0.022829
      px      :     0.003596
      py      :     0.014514

  9 H s       :     0.949317  s :     0.949317
      pz      :     0.013939  p :     0.023386
      px      :     0.004842
      py      :     0.004605

 10 H s       :     0.957420  s :     0.957420
      pz      :     0.013174  p :     0.022826
      px      :     0.005222
      py      :     0.004431

 11 H s       :     0.954734  s :     0.954734
      pz      :     0.009462  p :     0.022624
      px      :     0.007695
      py      :     0.005467

 12 O s       :     3.713261  s :     3.713261
      pz      :     1.456749  p :     4.634033
      px      :     1.315347
      py      :     1.861938
      dz2     :     0.004858  d :     0.012132
      dxz     :     0.001360
      dyz     :     0.002079
      dx2y2   :     0.003220
      dxy     :     0.000615

 13 H s       :     0.961500  s :     0.961500
      pz      :     0.002069  p :     0.020349
      px      :     0.013444
      py      :     0.004837

 14 C s       :     3.193695  s :     3.193695
      pz      :     0.991107  p :     2.777603
      px      :     0.882985
      py      :     0.903511
      dz2     :     0.003250  d :     0.036380
      dxz     :     0.008113
      dyz     :     0.002728
      dx2y2   :     0.012306
      dxy     :     0.009983

 15 C s       :     3.122468  s :     3.122468
      pz      :     0.997547  p :     2.895805
      px      :     0.979825
      py      :     0.918433
      dz2     :     0.005272  d :     0.026263
      dxz     :     0.004174
      dyz     :     0.004782
      dx2y2   :     0.006875
      dxy     :     0.005160

 16 H s       :     0.940739  s :     0.940739
      pz      :     0.008399  p :     0.024548
      px      :     0.009159
      py      :     0.006990

 17 H s       :     0.946083  s :     0.946083
      pz      :     0.004370  p :     0.024615
      px      :     0.004279
      py      :     0.015966

 18 C s       :     3.201130  s :     3.201130
      pz      :     1.029727  p :     2.825055
      px      :     0.891345
      py      :     0.903984
      dz2     :     0.002998  d :     0.035151
      dxz     :     0.007193
      dyz     :     0.002797
      dx2y2   :     0.012675
      dxy     :     0.009488

 19 H s       :     0.979741  s :     0.979741
      pz      :     0.004418  p :     0.024369
      px      :     0.004122
      py      :     0.015828

 20 C s       :     3.099514  s :     3.099514
      pz      :     0.955538  p :     2.969768
      px      :     0.976401
      py      :     1.037829
      dz2     :     0.003649  d :     0.044088
      dxz     :     0.007710
      dyz     :     0.006576
      dx2y2   :     0.014301
      dxy     :     0.011852

 21 H s       :     0.973263  s :     0.973263
      pz      :     0.004585  p :     0.024527
      px      :     0.003791
      py      :     0.016150

 22 C s       :     2.924680  s :     2.924680
      pz      :     0.998479  p :     2.925360
      px      :     0.974541
      py      :     0.952340
      dz2     :     0.009012  d :     0.035531
      dxz     :     0.005004
      dyz     :     0.005792
      dx2y2   :     0.009287
      dxy     :     0.006436

 23 C s       :     3.000735  s :     3.000735
      pz      :     1.013234  p :     2.963898
      px      :     0.963674
      py      :     0.986990
      dz2     :     0.009864  d :     0.036494
      dxz     :     0.008158
      dyz     :     0.002609
      dx2y2   :     0.010248
      dxy     :     0.005615

 24 H s       :     0.962046  s :     0.962046
      pz      :     0.005017  p :     0.023238
      px      :     0.012937
      py      :     0.005284

 25 H s       :     0.959361  s :     0.959361
      pz      :     0.013276  p :     0.023288
      px      :     0.004870
      py      :     0.005142

 26 C s       :     2.969335  s :     2.969335
      pz      :     0.967526  p :     2.888426
      px      :     0.980187
      py      :     0.940712
      dz2     :     0.006762  d :     0.035329
      dxz     :     0.007336
      dyz     :     0.005296
      dx2y2   :     0.008581
      dxy     :     0.007355

 27 H s       :     0.964209  s :     0.964209
      pz      :     0.013507  p :     0.022852
      px      :     0.004380
      py      :     0.004965

 28 H s       :     0.962057  s :     0.962057
      pz      :     0.004423  p :     0.022645
      px      :     0.003735
      py      :     0.014487

 29 C s       :     3.260345  s :     3.260345
      pz      :     1.042669  p :     3.108969
      px      :     1.004143
      py      :     1.062158
      dz2     :     0.011194  d :     0.050985
      dxz     :     0.011191
      dyz     :     0.009223
      dx2y2   :     0.010846
      dxy     :     0.008531

 30 H s       :     0.967999  s :     0.967999
      pz      :     0.009274  p :     0.023067
      px      :     0.008505
      py      :     0.005288

 31 H s       :     0.979927  s :     0.979927
      pz      :     0.012919  p :     0.022530
      px      :     0.005025
      py      :     0.004586

 32 C s       :     3.031422  s :     3.031422
      pz      :     0.988286  p :     2.962200
      px      :     0.944888
      py      :     1.029026
      dz2     :     0.008142  d :     0.043808
      dxz     :     0.007942
      dyz     :     0.007920
      dx2y2   :     0.010946
      dxy     :     0.008858

 33 H s       :     0.968404  s :     0.968404
      pz      :     0.012002  p :     0.021294
      px      :     0.004417
      py      :     0.004876

 34 C s       :     2.905939  s :     2.905939
      pz      :     0.985444  p :     2.949324
      px      :     0.990675
      py      :     0.973204
      dz2     :     0.005539  d :     0.034963
      dxz     :     0.006584
      dyz     :     0.007506
      dx2y2   :     0.009356
      dxy     :     0.005978

 35 H s       :     0.751966  s :     0.751966
[...]
 Total          138.543          176.396          190.776  iso=     168.572

 Orientation: 
  X           0.2729626   -0.5195577    0.8096612
  Y          -0.1192994   -0.8534068   -0.5074096
  Z           0.9545989    0.0419117   -0.2949310

 --------------
 Nucleus  39C :
 --------------

Diamagnetic contribution to the shielding tensor (ppm) : 
           264.905          5.054        -6.163
             3.525        270.586         5.484
            -5.765          3.418       258.095

Paramagnetic contribution to the shielding tensor (ppm): 
          -100.929         -4.911         8.058
             6.350       -124.724         5.153
            16.689          3.237      -126.798

Total shielding tensor (ppm): 
           163.976          0.143         1.896
             9.876        145.862        10.637
            10.924          6.655       131.297


 Diagonalized sT*s matrix:
 
 sDSO           258.304          269.818          265.464  iso=     264.529
 sPSO          -131.420         -122.884          -98.147  iso=    -117.484
        ---------------  ---------------  ---------------
 Total          126.884          146.933          167.317  iso=     147.045

 Orientation: 
  X          -0.0982964   -0.3585749   -0.9283113
  Y          -0.3957477    0.8699804   -0.2941390
  Z           0.9130835    0.3384643   -0.2274212

 --------------
 Nucleus  43C :
 --------------

Diamagnetic contribution to the shielding tensor (ppm) : 
           260.422          2.350        -6.932
            -2.775        255.140         8.542
            -2.930          7.909       242.173

Paramagnetic contribution to the shielding tensor (ppm): 
           -90.089         -8.717        -1.749
             0.348        -95.254        -5.073
            -0.010         -8.328       -93.096

Total shielding tensor (ppm): 
           170.333         -6.367        -8.681
            -2.427        159.887         3.469
            -2.940         -0.419       149.078


 Diagonalized sT*s matrix:
 
 sDSO           240.273          255.033          262.430  iso=     252.578
 sPSO           -92.691          -96.724          -89.024  iso=     -92.813
        ---------------  ---------------  ---------------
 Total          147.583          158.309          173.405  iso=     159.766

 Orientation: 
  X           0.2487566   -0.3294511    0.9108140
  Y          -0.0429757   -0.9432019   -0.3294288
  Z           0.9676121    0.0428047   -0.2487861

 --------------
 Nucleus  44C :
 --------------

Diamagnetic contribution to the shielding tensor (ppm) : 
           249.788          0.502         1.608
            -0.707        256.788        -3.449
             0.623          0.805       270.240

Paramagnetic contribution to the shielding tensor (ppm): 
           -70.222         -4.330        -1.947
            -2.509        -77.587        -0.723
            -0.208         -4.947       -77.175

Total shielding tensor (ppm): 
           179.567         -3.827        -0.338
            -3.217        179.201        -4.172
             0.415         -4.143       193.065


 Diagonalized sT*s matrix:
 
 sDSO           254.237          252.633          269.947  iso=     258.939
 sPSO           -78.916          -70.405          -75.663  iso=     -74.994
        ---------------  ---------------  ---------------
 Total          175.320          182.228          194.284  iso=     183.944

 Orientation: 
  X           0.6282814    0.7748082    0.0702483
  Y           0.7578959   -0.5891693   -0.2801309
  Z           0.1756596   -0.2292419    0.9573880

 --------------
 Nucleus  49C :
 --------------

Diamagnetic contribution to the shielding tensor (ppm) : 
           245.936         -5.686        -4.766
           -18.092        256.154         4.285
            -7.458          6.874       244.517

Paramagnetic contribution to the shielding tensor (ppm): 
           -76.270         -0.081         1.499
            16.526        -73.328         6.486
             8.468          1.262       -71.772

Total shielding tensor (ppm): 
           169.666         -5.767        -3.267
            -1.566        182.826        10.771
             1.010          8.136       172.745


 Diagonalized sT*s matrix:
 
 sDSO           242.252          242.013          262.342  iso=     248.869
 sPSO           -75.544          -72.692          -73.134  iso=     -73.790
        ---------------  ---------------  ---------------
 Total          166.708          169.320          189.208  iso=     175.079

 Orientation: 
  X           0.3667811    0.9127849   -0.1797091
  Y           0.5321161   -0.0473869    0.8453443
  Z          -0.7631016    0.4056824    0.5030881

 --------------
 Nucleus  50C :
 --------------

Diamagnetic contribution to the shielding tensor (ppm) : 
           266.981         13.458         2.314
            18.541        232.880         1.321
             0.578          2.309       273.016

Paramagnetic contribution to the shielding tensor (ppm): 
          -259.440        -90.197        31.595
           -89.819       -103.656        21.744
            22.102         17.743      -215.644

Total shielding tensor (ppm): 
             7.541        -76.739        33.909
           -71.278        129.224        23.065
            22.679         20.052        57.372


 Diagonalized sT*s matrix:
 
 sDSO           272.591          273.352          226.934  iso=     257.626
 sPSO          -308.481         -207.975          -62.284  iso=    -192.913
        ---------------  ---------------  ---------------
 Total          -35.890           65.377          164.650  iso=      64.712

 Orientation: 
  X           0.9021222   -0.1675460   -0.3976228
  Y           0.4028324   -0.0031484    0.9152683
  Z          -0.1546014   -0.9858592    0.0646527

 --------------
 Nucleus  51C :
 --------------

Diamagnetic contribution to the shielding tensor (ppm) : 
           269.141         12.084         1.782
             9.877        265.426        -3.596
             5.337         -7.302       283.829

Paramagnetic contribution to the shielding tensor (ppm): 
          -259.533        -91.397        36.992
           -95.832       -136.539         1.928
            24.298         15.426      -228.286

Total shielding tensor (ppm): 
             9.607        -79.312        38.773
           -85.955        128.887        -1.668
            29.636          8.124        55.544


 Diagonalized sT*s matrix:
 
 sDSO           277.328          281.794          259.274  iso=     272.799
 sPSO          -319.419         -218.152          -86.787  iso=    -208.119
        ---------------  ---------------  ---------------
 Total          -42.091           63.642          172.487  iso=      64.679

 Orientation: 
  X           0.8672039    0.1292355    0.4808905
  Y           0.4464108    0.2261077   -0.8657902
  Z          -0.2206238    0.9654913    0.1383893

 --------------
 Nucleus  54C :
 --------------

Diamagnetic contribution to the shielding tensor (ppm) : 
           257.113          7.194         1.236
            13.172        238.242        -0.644
            -4.155        -13.494       252.408

Paramagnetic contribution to the shielding tensor (ppm): 
          -101.154        -14.533         7.429
           -19.851        -74.814        -4.252
            11.266         14.176       -97.617

Total shielding tensor (ppm): 
           155.959         -7.338         8.665
            -6.679        163.428        -4.895
             7.111          0.681       154.792


 Diagonalized sT*s matrix:
 
 sDSO           260.813          245.238          241.713  iso=     249.255
 sPSO          -114.084          -87.948          -71.553  iso=     -91.195
        ---------------  ---------------  ---------------
 Total          146.729          157.290          170.161  iso=     158.060

 Orientation: 
  X          -0.7277262   -0.3802375    0.5708188
  Y          -0.2160948   -0.6627582   -0.7169760
  Z           0.6509360   -0.6451132    0.4001391

 --------------
 Nucleus  55C :
 --------------

Diamagnetic contribution to the shielding tensor (ppm) : 
           250.596          6.766        -3.197
            27.829        234.838         3.343
           -15.974         -6.591       240.060

Paramagnetic contribution to the shielding tensor (ppm): 
           -71.168         -4.082        -1.402
           -28.770        -53.090       -12.580
            11.910         -2.081       -59.996

Total shielding tensor (ppm): 
           179.428          2.684        -4.599
            -0.941        181.747        -9.237
            -4.064         -8.673       180.063


 Diagonalized sT*s matrix:
 
 sDSO           239.874          234.721          250.898  iso=     241.831
 sPSO           -68.848          -55.535          -59.871  iso=     -61.418
        ---------------  ---------------  ---------------
 Total          171.026          179.186          191.027  iso=     180.413

 Orientation: 
  X           0.3171970    0.9003707   -0.2978568
  Y           0.5940328   -0.4334596   -0.6776709
  Z           0.7392639   -0.0380185    0.6723418

 --------------
 Nucleus  56C :
 --------------

Diamagnetic contribution to the shielding tensor (ppm) : 
           248.155          2.131         5.253
             4.294        235.264        -8.041
            15.382        -10.081       241.146

Paramagnetic contribution to the shielding tensor (ppm): 
           -90.308        -11.981         1.040
           -13.732        -72.196         2.211
            -9.782          5.973       -77.277

Total shielding tensor (ppm): 
           157.847         -9.850         6.293
            -9.437        163.069        -5.830
             5.600         -4.107       163.869


 Diagonalized sT*s matrix:
 
 sDSO           245.888          227.612          251.066  iso=     241.522
 sPSO           -95.687          -68.465          -75.627  iso=     -79.927
        ---------------  ---------------  ---------------
 Total          150.200          159.147          175.438  iso=     161.595

 Orientation: 
  X           0.8188857   -0.2061465    0.5356582
  Y           0.5525165    0.5358291   -0.6384455
  Z          -0.1554079    0.8187740    0.5526822

 --------------
 Nucleus  59C :
 --------------

Diamagnetic contribution to the shielding tensor (ppm) : 
           241.679          3.074        -9.008
            -6.286        240.513       -13.563
            13.261         -8.484       262.189

Paramagnetic contribution to the shielding tensor (ppm): 
           -64.405          5.481         4.204
            12.689        -66.897         3.842
           -23.288         -4.212       -85.954

Total shielding tensor (ppm): 
           177.274          8.554        -4.804
             6.403        173.616        -9.721
           -10.026        -12.696       176.235


 Diagonalized sT*s matrix:
 
 sDSO           238.564          251.764          254.053  iso=     248.127
 sPSO           -74.970          -81.399          -60.887  iso=     -72.419
        ---------------  ---------------  ---------------
 Total          163.594          170.365          193.166  iso=     175.708

 Orientation: 
  X          -0.0827407    0.8277245   -0.5550010
  Y           0.7652151   -0.3040067   -0.5674732
  Z           0.6384355    0.4716482    0.6082335

 --------------
 Nucleus  60C :
 --------------

Diamagnetic contribution to the shielding tensor (ppm) : 
           248.116          4.688        12.368
             4.675        218.928         9.269
            16.208          0.828       226.611

Paramagnetic contribution to the shielding tensor (ppm): 
           -64.370          3.124        -1.903
             5.387        -47.637        -8.299
            -0.026          2.673       -56.175

Total shielding tensor (ppm): 
           183.746          7.812        10.465
            10.063        171.291         0.970
            16.182          3.501       170.436


 Diagonalized sT*s matrix:
 
 sDSO           221.280          217.303          255.072  iso=     231.218
 sPSO           -60.107          -48.234          -59.841  iso=     -56.061
        ---------------  ---------------  ---------------
 Total          161.173          169.069          195.231  iso=     175.158

 Orientation: 
  X           0.5675033    0.0979739    0.8175213
  Y          -0.3484728   -0.8710071    0.3462851
  Z          -0.7459938    0.4814019    0.4601581



--------------------------------
CHEMICAL SHIELDING SUMMARY (ppm)
--------------------------------


  Nucleus  Element    Isotropic     Anisotropy
  -------  -------  ------------   ------------
      0       C           61.476        151.861 
      1       C          154.353         11.945 
      2       C          132.257         50.532 
      5       C           50.681        177.584 
      6       C          167.858         31.979 
      7       C          164.821         17.482 
     14       C           71.973        132.926 
     15       C           84.184        119.116 
     18       C           80.184        133.948 
     20       C           51.649        176.010 
     22       C          169.237          7.009 
     23       C          174.364         12.794 
     26       C          158.710         23.906 
     29       C          154.342         16.656 
     32       C          143.115         27.752 
     34       C          174.233         23.193 
     36       C          168.572         33.307 
     39       C          147.045         30.409 
     43       C          159.766         20.460 
     44       C          183.944         15.510 
     49       C          175.079         21.194 
     50       C           64.712        149.906 
     51       C           64.679        161.711 
     54       C          158.060         18.151 
     55       C          180.413         15.921 
     56       C          161.595         20.765 
     59       C          175.708         26.186 
     60       C          175.158         30.110 


NMR shielding tensor and spin rotation calculation done in   1.0 sec 

Maximum memory used throughout the entire PROP-calculation: 52.0 MB

--------------------------------
SUGGESTED CITATIONS FOR THIS RUN
--------------------------------

Below you find a list of papers that are relevant to this ORCA run
We neither can nor want to force you to cite these papers, but we appreciate if you do
You receive ORCA, which is the product of decades of hard work by many enthusiastic individuals, for free
The only thing we kindly ask in return is that you cite our papers,
We deeply appreciate it, if you show your appreciation for ORCA by not just citing the generic ORCA reference.

Please note that relegating all ORCA citations to the supporting information does *not* help us.
SI sections are not indexed - citations you put there will not count into any citation statistics
But we need these citations in order to attract the funding resources that allow us to do what we are doing

Therefore, if you are a happy ORCA user, please consider citing a few of the papers listed below in the main body of your paper

In addition to the list printed below, the program has created the file inpS.bibtex that contains the list in bibtex format
You can import this file easily into all common literature databanks and citation aid programs


List of essential papers. We consider these as the minimum necessary citations

  1. Neese,F.
     Software update: the ORCA program system, version 5.0
     WIRES Comput. Molec. Sci., 2022 12(1)e1606
     doi.org/10.1002/wcms.1606

List of papers to cite with high priority. The work reported in these papers was absolutely
necessary for this run to complete.
Our perspective: the developers of density functionals and basis sets usually get cited in chemistry papers
Good! But without the algorithms to do something with them, the functionals or basis sets would not do anything.
Hence, in our opinion, the algorithm design and method developments papers are equally worthy of getting cited

  1. Neese,F.
     An improvement of the resolution of the identity approximation for the formation of the Coulomb matrix
     J. Comp. Chem., 2003 24(14)1740-1747
     doi.org/10.1002/jcc.10318
  2. Neese,F.; Wennmohs,F.; Hansen,A.; Becker,U.
     Efficient, approximate and parallel Hartree-Fock and hybrid DFT calculations. A 'chain-of-spheres' algorithm for the Hartree-Fock exchange
     Chem. Phys., 2009 356(1-3)98-109
     doi.org/10.1016/j.chemphys.2008.10.036
  3. Stoychev,G.L.; Auer,A.A.; Izsak,R.; Neese,F.
     Self-Consistent Field Calculation of Nuclear Magnetic Resonance Chemical Shielding Constants Using Gauge-Including Atomic Orbitals and Approximate Two-Electron Integrals
     J. Chem. Theory Comput., 2018 14(2)619-637
     doi.org/10.1021/acs.jctc.7b01006
  4. Garcia-Rates,M.; Neese,F.
     Effect of the Solute Cavity on the Solvation Energy and its Derivatives within the Framework of the Gaussian Charge Scheme
     J. Comput. Chem., 2020 41 922-939
     doi.org/10.1002/jcc.26139
  5. Helmich-Paris,B.; de Souza,B.; Neese,F.; Izsák,R.
     An improved chain of spheres for exchange algorithm
     J. Chem. Phys., 2021 155 104109
     doi.org/doi: 10.1063/5.0058766.
  6. Neese,F.
     The SHARK Integral Generation and Digestion System
     J. Comp. Chem., 2022  1-16
     doi.org/10.1002/jcc.26942
  7. Caldeweyher,E.; Bannwarth,C.; Grimme,S.
     Extension of the D3 dispersion coefficient model
     J. Chem. Phys., 2017 147 034112-XXXX
     doi.org/10.1063/1.4993215
  8. Caldeweyher,E.; Ehlert,S.; Hansen,A.; Neugebauer,H.; Spicher,S.; Bannwarth,C.; Grimme,S.
     A generally applicable atomic-charge dependent London dispersion correction
     J. Chem. Phys., 2019 150 154122-XXXX
     doi.org/10.1063/1.5090222
  9. Caldeweyher,E.; Mewes,J.; Ehlert,S.; Grimme,S.
     Extension and evaluation of the D4 London-dispersion model for periodic systems
     Phys. Chem. Chem. Phys., 2020 22(16)8499-8512
     doi.org/10.1039/D0CP00502A

List of suggested additional citations. These are papers that are important in the 'surrounding' of 
of this run, or papers that preceded the highly important papers. If you like your results we are grateful for a citation.

  1. Izsak,R.; Neese,F.
     An overlap fitted chain of spheres exchange method
     J. Chem. Phys., 2011 135 144105
     doi.org/10.1063/1.3646921
  2. Izsak,R.; Hansen,A.; Neese,F.
     The resolution of identity and chain of spheres approximations for the LPNO-CCSD singles Fock term
     Molec. Phys., 2012 110 2413-2417
     doi.org/10.1080/00268976.2012.687466
  3. Neese,F.
     The ORCA program system
     WIRES Comput. Molec. Sci., 2012 2(1)73-78
     doi.org/10.1002/wcms.81
  4. Izsak,R.; Neese,F.; Klopper,W.
     Robust fitting techniques in the chain of spheres approximation to the Fock exchange: The role of the complementary space
     J. Chem. Phys., 2013 139 
     doi.org/10.1063/1.4819264
  5. Neese,F.
     Software update: the ORCA program system, version 4.0
     WIRES Comput. Molec. Sci., 2018 8(1)1-6
     doi.org/10.1002/wcms.1327
  6. Neese,F.; Wennmohs,F.; Becker,U.; Riplinger,C.
     The ORCA quantum chemistry program package
     J. Chem. Phys., 2020 152 Art. No. L224108
     doi.org/10.1063/5.0004608

Timings for individual modules:

Sum of individual times          ...      177.158 sec (=   2.953 min)
Startup calculation              ...        4.601 sec (=   0.077 min)   2.6 %
SCF iterations                   ...       71.692 sec (=   1.195 min)  40.5 %
Property integrals               ...       60.839 sec (=   1.014 min)  34.3 %
SCF Response                     ...       38.715 sec (=   0.645 min)  21.9 %
Property calculations            ...        1.311 sec (=   0.022 min)   0.7 %
                             ****ORCA TERMINATED NORMALLY****
TOTAL RUN TIME: 0 days 0 hours 2 minutes 57 seconds 460 msec
