
                                 *****************
                                 * O   R   C   A *
                                 *****************

                                            #,                                       
                                            ###                                      
                                            ####                                     
                                            #####                                    
                                            ######                                   
                                           ########,                                 
                                     ,,################,,,,,                         
                               ,,#################################,,                 
                          ,,##########################################,,             
                       ,#########################################, ''#####,          
                    ,#############################################,,   '####,        
                  ,##################################################,,,,####,       
                ,###########''''           ''''###############################       
              ,#####''   ,,,,##########,,,,          '''####'''          '####       
            ,##' ,,,,###########################,,,                        '##       
           ' ,,###''''                  '''############,,,                           
         ,,##''                                '''############,,,,        ,,,,,,###''
      ,#''                                            '''#######################'''  
     '                                                          ''''####''''         
             ,#######,   #######,   ,#######,      ##                                
            ,#'     '#,  ##    ##  ,#'     '#,    #''#        ,####,   ,####,        
            ##       ##  ##   ,#'  ##            #'  '#       #'       #'  '#        
            ##       ##  #######   ##           ,######,      #####,   #    #        
            '#,     ,#'  ##    ##  '#,     ,#' ,#      #,     #,   #   #,  ,#        
             '#######'   ##     ##  '#######'  #'      '#     '####' # '####'        



                #########################################################
                #                        -***-                          #
                #          Department of theory and spectroscopy        #
                #                                                       #
                #                      Frank Neese                      #
                #                                                       #
                #     Directorship, Architecture, Infrastructure        #
                #                    SHARK, DRIVERS                     #
                #        Core code/Algorithms in most modules           #
                #                                                       #
                #        Max Planck Institute fuer Kohlenforschung      #
                #                Kaiser Wilhelm Platz 1                 #
                #                 D-45470 Muelheim/Ruhr                 #
                #                      Germany                          #
                #                                                       #
                #                  All rights reserved                  #
                #                        -***-                          #
                #########################################################


                         Program Version 6.0.0  -   RELEASE  -


 With contributions from (in alphabetic order):
   Daniel Aravena         : Magnetic Suceptibility
   Michael Atanasov       : Ab Initio Ligand Field Theory (pilot matlab implementation)
   Alexander A. Auer      : GIAO ZORA, VPT2 properties, NMR spectrum
   Ute Becker             : All parallelization in ORCA, NUMFREQ, NUMCALC
   Giovanni Bistoni       : ED, misc. LED, open-shell LED, HFLD
   Martin Brehm           : Molecular dynamics
   Dmytro Bykov           : pre 5.0 version of the SCF Hessian
   Marcos Casanova-Páez   : Triplet and SCS-CIS(D). UHF-(DLPNO)-IP/EA/STEOM-CCSD. UHF-CVS-IP/STEOM-CCSD
   Vijay G. Chilkuri      : MRCI spin determinant printing, contributions to CSF-ICE
   Pauline Colinet        : FMM embedding
   Dipayan Datta          : RHF DLPNO-CCSD density
   Achintya Kumar Dutta   : EOM-CC, STEOM-CC
   Nicolas Foglia         : Exact transition moments, OPA infrastructure, MCD improvements
   Dmitry Ganyushin       : Spin-Orbit,Spin-Spin,Magnetic field MRCI
   Miquel Garcia          : C-PCM and meta-GGA Hessian, CCSD/C-PCM, Gaussian charge scheme
   Tiago L. C. Gouveia    : GS-ROHF, GS-ROCIS
   Yang Guo               : DLPNO-NEVPT2, F12-NEVPT2, CIM, IAO-localization
   Andreas Hansen         : Spin unrestricted coupled pair/coupled cluster methods
   Ingolf Harden          : AUTO-CI MPn and infrastructure 
   Benjamin Helmich-Paris : MC-RPA, TRAH-(SCF,CASSCF), AVAS, COSX integrals, SCF dyn. polar.
   Lee Huntington         : MR-EOM, pCC
   Robert Izsak           : Overlap fitted RIJCOSX, COSX-SCS-MP3, EOM
   Riya Kayal             : Wick's Theorem for AUTO-CI, AUTO-CI UHF-CCSDT
   Emily Kempfer          : AUTO-CI, RHF CISDT and CCSDT
   Christian Kollmar      : KDIIS, OOCD, Brueckner-CCSD(T), CCSD density, CASPT2, CASPT2-K, improved NEVPT2
   Axel Koslowski         : Symmetry handling
   Simone Kossmann        : Meta GGA functionals, TD-DFT gradient, OOMP2, (MP2 Hessian; deprecated post 5.0)
   Lucas Lang             : DCDCAS
   Marvin Lechner         : AUTO-CI (C++ implementation), FIC-MRCC
   Spencer Leger          : CASSCF response
   Dagmar Lenk            : GEPOL surface, SMD, ORCA-2-JSON
   Dimitrios Liakos       : Extrapolation schemes; Compound Job, initial MDCI parallelization
   Dimitrios Manganas     : Further ROCIS development; embedding schemes. LFT, Crystal Embedding
   Dimitrios Pantazis     : SARC Basis sets
   Anastasios Papadopoulos: AUTO-CI, single reference methods and gradients
   Taras Petrenko         : pre 6.0 DFT Hessian and TD-DFT gradient, (ASA, deprecated), ECA, 1-Electron XAS/XES, NRVS
   Peter Pinski           : DLPNO-MP2, DLPNO-MP2 Gradient
   Christoph Reimann      : Effective Core Potentials
   Marius Retegan         : Local ZFS, SOC
   Christoph Riplinger    : Optimizer, TS searches, QM/MM, DLPNO-CCSD(T), (RO)-DLPNO pert. Triples
   Michael Roemelt        : Original ROCIS implementation
   Masaaki Saitow         : Open-shell DLPNO-CCSD energy and density
   Barbara Sandhoefer     : DKH picture change effects
   Kantharuban Sivalingam : CASSCF convergence/infrastructure, NEVPT2 and variants, FIC-MRCI
   Bernardo de Souza      : ESD, SOC TD-DFT
   Georgi Stoychev        : AutoAux, RI-MP2 NMR, DLPNO-MP2 response, X2C
   Van Anh Tran           : RI-MP2 g-tensors
   Willem Van den Heuvel  : Paramagnetic NMR
   Zikuan Wang            : NOTCH, Electric field optimization 
   Frank Wennmohs         : Technical directorship and infrastructure
   Hang Xu                : AUTO-CI-Response properties 


 We gratefully acknowledge several colleagues who have allowed us to
 interface, adapt or use parts of their codes:
   Stefan Grimme, W. Hujo, H. Kruse, P. Pracht,  : VdW corrections, initial TS optimization,
                  C. Bannwarth, S. Ehlert,         DFT functionals, gCP, sTDA/sTD-DF
                  L. Wittmann, M. Mueller
   Ed Valeev, F. Pavosevic, A. Kumar             : LibInt (2-el integral package), F12 methods
   Garnet Chan, S. Sharma, J. Yang, R. Olivares  : DMRG
   Ulf Ekstrom                                   : XCFun DFT Library
   Mihaly Kallay                                 : mrcc  (arbitrary order and MRCC methods)
   Frank Weinhold                                : gennbo (NPA and NBO analysis)
   Simon Mueller                                 : openCOSMO-RS
   Christopher J. Cramer and Donald G. Truhlar   : smd solvation model
   Lars Goerigk                                  : TD-DFT with DH, B97 family of functionals
   V. Asgeirsson, H. Jonsson                     : NEB implementation
   FAccTs GmbH                                   : IRC, NEB, NEB-TS, DLPNO-Multilevel, CI-OPT
                                                   MM, QMMM, 2- and 3-layer-ONIOM, Crystal-QMMM,
                                                   LR-CPCM, SF, NACMEs, symmetry and pop. for TD-DFT,
                                                   nearIR, NL-DFT gradient (VV10), updates on ESD,
                                                   ML-optimized integration grids, MBIS, APM,
                                                   GOAT, DOCKER, SOLVATOR, interface openCOSMO-RS
   S Lehtola, MJT Oliveira, MAL Marques          : LibXC Library
   Liviu Ungur et al                             : ANISO software


 Your calculation uses the libint2 library for the computation of 2-el integrals
 For citations please refer to: http://libint.valeyev.net

 Your ORCA version has been built with support for libXC version: 6.2.2
 For citations please refer to: https://libxc.gitlab.io

 This ORCA versions uses:
   CBLAS   interface :  Fast vector & matrix operations
   LAPACKE interface :  Fast linear algebra routines
   SCALAPACK package :  Parallel linear algebra routines
   Shared memory     :  Shared parallel matrices
   BLAS/LAPACK       :  OpenBLAS 0.3.27  USE64BITINT DYNAMIC_ARCH NO_AFFINITY Zen SINGLE_THREADED
        Core in use  :  Zen
   Copyright (c) 2011-2014, The OpenBLAS Project


NOTE: MaxCore=8000 MB was set to SCF,MP2,MDCI,CIPSI,MRCI and CIS
      => If you want to overwrite this, your respective input block should be placed after the MaxCore statement
Your calculation utilizes the atom-pairwise dispersion correction
based on EEQ partial charges (D4)


================================================================================

----- Orbital basis set information -----
Your calculation utilizes the basis: pcJ-0
   F. Jensen, Theor. Chem. Acc. 126, 371 (2010).

----- AuxJ basis set information -----
Your calculation utilizes the auxiliary basis: def2/J
   F. Weigend, Phys. Chem. Chem. Phys. 8, 1057 (2006).

================================================================================
                                        WARNINGS
                       Please study these warnings very carefully!
================================================================================

WARNING: Old DensityContainer found on disk!
         Will remove this file - 
         If you want to keep old densities, please start your calculation with a different basename. 


================================================================================
                                       INPUT FILE
================================================================================
NAME = inpJ
|  1> ! pbe0
|  2> ! D4
|  3> ! pcJ-0
|  4> ! def2/J RIJCOSX
|  5> ! DEFGRID2
|  6> ! scfconv7
|  7> ! smallprint printgap noloewdin
|  8> ! NOSOSCF
|  9> %MaxCore 8000
| 10> %output
| 11>        print[P_BondOrder_M] 1
| 12>        print[P_Mayer] 1
| 13>        print[P_basis] 2
| 14> end
| 15> %pal
| 16>     nprocs 4
| 17> end
| 18> ! CPCM(chloroform)
| 19> *xyz 0 1
| 20> C   -5.1689377700   0.0063993000  -0.4132372400
| 21> C   -6.5642456000  -0.5494681200  -0.5716961300
| 22> C   -7.5185013300   0.1082638900   0.4335754300
| 23> H   -6.5671460500  -1.6368823100  -0.4357676800
| 24> H   -6.9393772300  -0.3325716100  -1.5828027500
| 25> C   -5.0992597900   1.4818353000  -0.5027327200
| 26> C   -6.0885270000   2.2050412100   0.3844691200
| 27> C   -7.5054491400   1.6273999400   0.2557066300
| 28> H   -6.0877780200   3.2765110000   0.1576895000
| 29> H   -5.7582931500   2.0975819400   1.4289077000
| 30> H   -7.9085220900   1.8613466300  -0.7390836000
| 31> H   -8.1682788400   2.0883828800   0.9972091900
| 32> O   -7.1809525900  -0.2729831500   1.7774472300
| 33> H   -8.5360403300  -0.2694091400   0.2739107500
| 34> C   -4.1197251700  -0.8025576900  -0.1328099900
| 35> C   -4.2646347100   2.1282097700  -1.3236604200
| 36> H   -3.5731885700   1.5898670800  -1.9664729100
| 37> H   -4.2624481100   3.2144476400  -1.3766505200
| 38> C   -2.7648152100  -0.3818309800   0.1401404000
| 39> H   -4.3357317300  -1.8688687200  -0.0816985100
| 40> C   -1.7075296100  -1.1903327600   0.3683836100
| 41> H   -2.5996621600   0.6924643400   0.1782978300
| 42> C   -1.7354697700  -2.6977303600   0.3548136300
| 43> C   -0.6699470300  -3.2801213000  -0.5927354500
| 44> H   -2.7199578900  -3.0928493900   0.0905403500
| 45> H   -1.5121961100  -3.0471794700   1.3755906600
| 46> C    0.7263735900  -2.7003141500  -0.3338246900
| 47> H   -0.9675597500  -3.0837565500  -1.6306633400
| 48> H   -0.6428635200  -4.3705105400  -0.4769511700
| 49> C    0.7247002600  -1.1657198900  -0.3789160200
| 50> H    1.4274520700  -3.1206997400  -1.0621732400
| 51> H    1.0704097400  -3.0171140300   0.6624762700
| 52> C   -0.3337721200  -0.6673126900   0.6559587000
| 53> H   -0.0204476400  -1.1235775400   1.6133835500
| 54> C   -0.0666550700   0.8298796500   0.7600922500
| 55> H   -6.2166179600  -0.2476359000   1.8560253500
| 56> C    1.4759392600   0.9249823100   0.6635940700
| 57> H   -0.4591176900   1.2586145600   1.6882621500
| 58> H   -0.5404924400   1.3662560500  -0.0697550700
| 59> C    1.9958180700  -0.4680916100   0.1854050900
| 60> H    1.9155022800   1.1936789300   1.6277021100
| 61> H    1.7828002100   1.7038134000  -0.0445154500
| 62> H    2.2928189900  -1.0571358900   1.0679830700
| 63> C    3.2177617300  -0.3405513500  -0.7334768000
| 64> C    0.3892439600  -0.6543425600  -1.7871347500
| 65> H    0.5214335700   0.4293892200  -1.8657794700
| 66> H   -0.6482604200  -0.8760878600  -2.0562531200
| 67> H    1.0373937500  -1.1218006200  -2.5359664600
| 68> H    2.9241896900   0.2924314300  -1.5864184000
| 69> C    3.7195576900  -1.6781450300  -1.3083585200
| 70> C    4.4045924400   0.3348927700  -0.0804456100
| 71> C    4.6437775100   0.4618707200   1.2249134000
| 72> H    5.1565607300   0.6813263500  -0.7914161500
| 73> H    3.8959392500   0.1085770300   1.9322391000
| 74> C    5.8866309200   1.0438898600   1.8532468900
| 75> C    6.7405431700   1.8431192300   0.8676406100
| 76> C    6.7125598000  -0.0663321000   2.5651540100
| 77> H    5.5512452800   1.7313468800   2.6494790000
| 78> H    7.0652229200  -0.7515179800   1.7777838600
| 79> C    5.8650747600  -0.8696865800   3.5569943000
| 80> C    7.9331064800   0.5114622200   3.2888927600
| 81> H    7.2336037400   1.1833846300   0.1433346800
| 82> H    7.5175251000   2.4092981500   1.3872244100
| 83> H    6.1247926800   2.5567316700   0.3105614100
| 84> H    5.0660710200  -1.4293145500   3.0623125700
| 85> H    5.4053849000  -0.2039682400   4.2993796400
| 86> H    6.4904194600  -1.5893505400   4.0962853400
| 87> H    8.6499776000   0.9676723700   2.6007699400
| 88> H    8.4582322500  -0.2771961200   3.8388370400
| 89> H    7.6228416400   1.2753067400   4.0139446000
| 90> H    3.0083816400  -2.1192183300  -2.0113229900
| 91> H    3.9029398400  -2.3958491500  -0.4999009000
| 92> H    4.6647372300  -1.5298308000  -1.8428028600
| 93> *
| 94> %eprnmr
| 95>  Nuclei = all C { ssfc }
| 96>  SpinSpinRThresh 8.0
| 97> end
| 98> 
| 99>                          ****END OF INPUT****
================================================================================

                       ****************************
                       * Single Point Calculation *
                       ****************************

---------------------------------
CARTESIAN COORDINATES (ANGSTROEM)
---------------------------------
  C     -5.168938    0.006399   -0.413237
  C     -6.564246   -0.549468   -0.571696
  C     -7.518501    0.108264    0.433575
  H     -6.567146   -1.636882   -0.435768
  H     -6.939377   -0.332572   -1.582803
  C     -5.099260    1.481835   -0.502733
  C     -6.088527    2.205041    0.384469
  C     -7.505449    1.627400    0.255707
  H     -6.087778    3.276511    0.157690
  H     -5.758293    2.097582    1.428908
  H     -7.908522    1.861347   -0.739084
  H     -8.168279    2.088383    0.997209
  O     -7.180953   -0.272983    1.777447
  H     -8.536040   -0.269409    0.273911
  C     -4.119725   -0.802558   -0.132810
  C     -4.264635    2.128210   -1.323660
  H     -3.573189    1.589867   -1.966473
  H     -4.262448    3.214448   -1.376651
  C     -2.764815   -0.381831    0.140140
  H     -4.335732   -1.868869   -0.081699
  C     -1.707530   -1.190333    0.368384
  H     -2.599662    0.692464    0.178298
  C     -1.735470   -2.697730    0.354814
  C     -0.669947   -3.280121   -0.592735
  H     -2.719958   -3.092849    0.090540
  H     -1.512196   -3.047179    1.375591
  C      0.726374   -2.700314   -0.333825
  H     -0.967560   -3.083757   -1.630663
  H     -0.642864   -4.370511   -0.476951
  C      0.724700   -1.165720   -0.378916
  H      1.427452   -3.120700   -1.062173
  H      1.070410   -3.017114    0.662476
  C     -0.333772   -0.667313    0.655959
  H     -0.020448   -1.123578    1.613384
  C     -0.066655    0.829880    0.760092
  H     -6.216618   -0.247636    1.856025
  C      1.475939    0.924982    0.663594
  H     -0.459118    1.258615    1.688262
  H     -0.540492    1.366256   -0.069755
  C      1.995818   -0.468092    0.185405
  H      1.915502    1.193679    1.627702
  H      1.782800    1.703813   -0.044515
  H      2.292819   -1.057136    1.067983
  C      3.217762   -0.340551   -0.733477
  C      0.389244   -0.654343   -1.787135
  H      0.521434    0.429389   -1.865779
  H     -0.648260   -0.876088   -2.056253
  H      1.037394   -1.121801   -2.535966
  H      2.924190    0.292431   -1.586418
  C      3.719558   -1.678145   -1.308359
  C      4.404592    0.334893   -0.080446
  C      4.643778    0.461871    1.224913
  H      5.156561    0.681326   -0.791416
  H      3.895939    0.108577    1.932239
  C      5.886631    1.043890    1.853247
  C      6.740543    1.843119    0.867641
  C      6.712560   -0.066332    2.565154
  H      5.551245    1.731347    2.649479
  H      7.065223   -0.751518    1.777784
  C      5.865075   -0.869687    3.556994
  C      7.933106    0.511462    3.288893
  H      7.233604    1.183385    0.143335
  H      7.517525    2.409298    1.387224
  H      6.124793    2.556732    0.310561
  H      5.066071   -1.429315    3.062313
  H      5.405385   -0.203968    4.299380
  H      6.490419   -1.589351    4.096285
  H      8.649978    0.967672    2.600770
  H      8.458232   -0.277196    3.838837
  H      7.622842    1.275307    4.013945
  H      3.008382   -2.119218   -2.011323
  H      3.902940   -2.395849   -0.499901
  H      4.664737   -1.529831   -1.842803

----------------------------
CARTESIAN COORDINATES (A.U.)
----------------------------
  NO LB      ZA    FRAG     MASS         X           Y           Z
   0 C     6.0000    0    12.011   -9.767877    0.012093   -0.780905
   1 C     6.0000    0    12.011  -12.404626   -1.038344   -1.080349
   2 C     6.0000    0    12.011  -14.207908    0.204589    0.819339
   3 H     1.0000    0     1.008  -12.410108   -3.093259   -0.823482
   4 H     1.0000    0     1.008  -13.113523   -0.628469   -2.991064
   5 C     6.0000    0    12.011   -9.636204    2.800263   -0.950027
   6 C     6.0000    0    12.011  -11.505649    4.166924    0.726541
   7 C     6.0000    0    12.011  -14.183243    3.075340    0.483216
   8 H     1.0000    0     1.008  -11.504233    6.191708    0.297990
   9 H     1.0000    0     1.008  -10.881597    3.963855    2.700244
  10 H     1.0000    0     1.008  -14.944941    3.517435   -1.396666
  11 H     1.0000    0     1.008  -15.435810    3.946472    1.884452
  12 O     8.0000    0    15.999  -13.570034   -0.515863    3.358888
  13 H     1.0000    0     1.008  -16.130778   -0.509109    0.517616
  14 C     6.0000    0    12.011   -7.785152   -1.516614   -0.250975
  15 C     6.0000    0    12.011   -8.058992    4.021734   -2.501356
  16 H     1.0000    0     1.008   -6.752348    3.004413   -3.716095
  17 H     1.0000    0     1.008   -8.054860    6.074426   -2.601492
  18 C     6.0000    0    12.011   -5.224744   -0.721556    0.264827
  19 H     1.0000    0     1.008   -8.193346   -3.531650   -0.154388
  20 C     6.0000    0    12.011   -3.226763   -2.249403    0.696144
  21 H     1.0000    0     1.008   -4.912650    1.308568    0.336934
  22 C     6.0000    0    12.011   -3.279563   -5.097972    0.670501
  23 C     6.0000    0    12.011   -1.266016   -6.198531   -1.120108
  24 H     1.0000    0     1.008   -5.139976   -5.844638    0.171096
  25 H     1.0000    0     1.008   -2.857637   -5.758335    2.599490
  26 C     6.0000    0    12.011    1.372647   -5.102854   -0.630837
  27 H     1.0000    0     1.008   -1.828423   -5.827455   -3.081507
  28 H     1.0000    0     1.008   -1.214836   -8.259068   -0.901307
  29 C     6.0000    0    12.011    1.369485   -2.202891   -0.716048
  30 H     1.0000    0     1.008    2.697493   -5.897268   -2.007217
  31 H     1.0000    0     1.008    2.022781   -5.701519    1.251899
  32 C     6.0000    0    12.011   -0.630738   -1.261038    1.239582
  33 H     1.0000    0     1.008   -0.038640   -2.123254    3.048853
  34 C     6.0000    0    12.011   -0.125960    1.568245    1.436366
  35 H     1.0000    0     1.008  -11.747705   -0.467964    3.507380
  36 C     6.0000    0    12.011    2.789121    1.747963    1.254011
  37 H     1.0000    0     1.008   -0.867607    2.378437    3.190353
  38 H     1.0000    0     1.008   -1.021383    2.581850   -0.131818
  39 C     6.0000    0    12.011    3.771550   -0.884565    0.350365
  40 H     1.0000    0     1.008    3.619775    2.255726    3.075911
  41 H     1.0000    0     1.008    3.369004    3.219741   -0.084122
  42 H     1.0000    0     1.008    4.332800   -1.997697    2.018196
  43 C     6.0000    0    12.011    6.080688   -0.643549   -1.386070
  44 C     6.0000    0    12.011    0.735564   -1.236528   -3.377195
  45 H     1.0000    0     1.008    0.985367    0.811428   -3.525812
  46 H     1.0000    0     1.008   -1.225035   -1.655566   -3.885755
  47 H     1.0000    0     1.008    1.960390   -2.119896   -4.792282
  48 H     1.0000    0     1.008    5.525918    0.552615   -2.997896
  49 C     6.0000    0    12.011    7.028945   -3.171235   -2.472439
  50 C     6.0000    0    12.011    8.323473    0.632856   -0.152020
  51 C     6.0000    0    12.011    8.775468    0.872809    2.314751
  52 H     1.0000    0     1.008    9.744488    1.287520   -1.495560
  53 H     1.0000    0     1.008    7.362258    0.205181    3.651403
  54 C     6.0000    0    12.011   11.124120    1.972666    3.502129
  55 C     6.0000    0    12.011   12.737781    3.482991    1.639603
  56 C     6.0000    0    12.011   12.684900   -0.125350    4.847439
  57 H     1.0000    0     1.008   10.490333    3.271771    5.006790
  58 H     1.0000    0     1.008   13.351336   -1.420163    3.359525
  59 C     6.0000    0    12.011   11.083385   -1.643469    6.721745
  60 C     6.0000    0    12.011   14.991399    0.966524    6.215107
  61 H     1.0000    0     1.008   13.669530    2.236273    0.270863
  62 H     1.0000    0     1.008   14.206064    4.552914    2.621474
  63 H     1.0000    0     1.008   11.574181    4.831523    0.586876
  64 H     1.0000    0     1.008    9.573487   -2.701013    5.786932
  65 H     1.0000    0     1.008   10.214697   -0.385444    8.124650
  66 H     1.0000    0     1.008   12.265115   -3.003437    7.740857
  67 H     1.0000    0     1.008   16.346089    1.828636    4.914743
  68 H     1.0000    0     1.008   15.983743   -0.523825    7.254351
  69 H     1.0000    0     1.008   14.405083    2.409980    7.585256
  70 H     1.0000    0     1.008    5.685017   -4.004742   -3.800850
  71 H     1.0000    0     1.008    7.375487   -4.527499   -0.944676
  72 H     1.0000    0     1.008    8.815076   -2.890961   -3.482393

--------------------------------
INTERNAL COORDINATES (ANGSTROEM)
--------------------------------
 C      0   0   0     0.000000000000     0.00000000     0.00000000
 C      1   0   0     1.510291941612     0.00000000     0.00000000
 C      2   1   0     1.534205431017   110.37095225     0.00000000
 H      2   1   3     1.095880731076   110.77143661   237.88881492
 H      2   1   3     1.100047468469   109.81101399   118.70426427
 C      1   2   3     1.479789124143   113.83639714   305.60348919
 C      6   1   2     1.512879210624   114.22809945    50.32975007
 C      3   2   1     1.529569223045   110.13811349    56.86740893
 H      7   6   1     1.095206404246   110.23033766   188.57396717
 H      7   6   1     1.100660636975   108.27729204    71.88006352
 H      8   3   2     1.098547431150   108.28115018    64.63941613
 H      8   3   2     1.096209162824   109.50184926   181.60321564
 O      3   2   1     1.437108163020   110.66505113   292.82901084
 H      3   2   1     1.097048469371   109.50898720   177.27180320
 C      1   2   3     1.354214877415   121.17504992   121.75435557
 C      6   1   2     1.337281297357   123.26018322   232.23183814
 H     16   6   1     1.086792764835   121.38253261   359.05017532
 H     16   6   1     1.087531812013   120.92667717   178.46538679
 C     15   1   2     1.444746995019   126.28216030   184.98444942
 H     15   1   2     1.089169605732   116.16053435     3.05212958
 C     19  15   1     1.350415836378   126.28704328   182.76864297
 H     19  15   1     1.087585377781   115.89298455     3.83611234
 C     21  19  15     1.507717586746   125.63000082     1.28441462
 C     23  21  19     1.540249062801   111.76198367   126.40841168
 H     23  21  19     1.093241177788   112.34649092     2.55138323
 H     23  21  19     1.101794696259   107.75830789   244.97382055
 C     24  23  21     1.533923852958   112.51755986    51.13978906
 H     24  23  21     1.097463781174   109.06036549   289.04393160
 H     24  23  21     1.096853778184   109.14912434   173.03592634
 C     27  24  23     1.535257493354   111.83140034   305.91913157
 H     27  24  23     1.094863776771   108.99419345   182.29894817
 H     27  24  23     1.100608304244   109.18009492    65.80171141
 C     21  19  15     1.497818102221   122.78407920   180.54019267
 H     33  21  19     1.105898813866   106.38007493   124.98385028
 C     33  21  19     1.524395033314   121.11696009     2.41405259
 H     13   3   2     0.967862739567   107.63768462    42.04033731
 C     35  33  21     1.548532751230   103.33346597   195.18393306
 H     35  33  21     1.095143777965   112.30900089    73.46367799
 H     35  33  21     1.095841261405   110.68517675   313.72572801
 C     30  27  24     1.555919027182   115.88930975   166.48516185
 H     37  35  33     1.093122973386   111.14378600   251.43479612
 H     37  35  33     1.096430846748   111.26424616   133.04396525
 H     40  30  27     1.101874131225   105.72506245   321.37210938
 C     40  30  27     1.534195800380   118.08151156    82.34606266
 C     30  27  24     1.535290752389   111.10729651   294.68976542
 H     45  30  27     1.094592917919   111.67192300   187.94561790
 H     45  30  27     1.094536894610   111.41716253    67.97097084
 H     45  30  27     1.095154837472   110.83555698   307.87610493
 H     44  40  30     1.101980542232   107.40640689    63.04318377
 C     44  40  30     1.539949684320   114.26223099   304.19649523
 C     44  40  30     1.513684785071   113.77787172   180.83180582
 C     51  44  40     1.333152295308   127.27184395    21.01105247
 H     51  44  40     1.091307309269   113.63160804   196.51793825
 H     52  51  44     1.088295980142   118.82805771   355.77192550
 C     52  51  44     1.509381943953   126.30374959   174.85517706
 C     55  52  51     1.529494509878   113.13829318    15.62340586
 C     55  52  51     1.556137224923   110.63246377   249.30006573
 H     55  52  51     1.104113334246   106.86815608   134.35110695
 H     57  55  52     1.101727152915   106.65767029    65.29317527
 C     57  55  52     1.532108506088   112.12735552   306.93092999
 C     57  55  52     1.532115613306   111.70765520   183.67877561
 H     56  55  52     1.096803331668   111.23614994   288.99770087
 H     56  55  52     1.092806851288   111.17947153   168.82297580
 H     56  55  52     1.094864656262   110.76141032    49.10986503
 H     60  57  55     1.093755208141   112.30753142    64.23221795
 H     60  57  55     1.098012599493   110.57111109   303.42989233
 H     60  57  55     1.095357035384   110.33044008   184.36037069
 H     61  57  55     1.093409767223   112.48024458   296.20062998
 H     61  57  55     1.095526249195   110.33465722   176.07238452
 H     61  57  55     1.097917525300   110.43833037    57.06039977
 H     50  44  40     1.092920891990   112.24819915    67.55433629
 H     50  44  40     1.096508978595   110.35155389   306.27335286
 H     50  44  40     1.095897908664   110.21485421   187.45705189

---------------------------
INTERNAL COORDINATES (A.U.)
---------------------------
 C      0   0   0     0.000000000000     0.00000000     0.00000000
 C      1   0   0     2.854038151914     0.00000000     0.00000000
 C      2   1   0     2.899228097796   110.37095225     0.00000000
 H      2   1   3     2.070914457174   110.77143661   237.88881492
 H      2   1   3     2.078788449719   109.81101399   118.70426427
 C      1   2   3     2.796396180586   113.83639714   305.60348919
 C      6   1   2     2.858927381783   114.22809945    50.32975007
 C      3   2   1     2.890466934430   110.13811349    56.86740893
 H      7   6   1     2.069640164141   110.23033766   188.57396717
 H      7   6   1     2.079947170271   108.27729204    71.88006352
 H      8   3   2     2.075953789997   108.28115018    64.63941613
 H      8   3   2     2.071535103233   109.50184926   181.60321564
 O      3   2   1     2.715740852931   110.66505113   292.82901084
 H      3   2   1     2.073121162749   109.50898720   177.27180320
 C      1   2   3     2.559095244795   121.17504992   121.75435557
 C      6   1   2     2.527095416019   123.26018322   232.23183814
 H     16   6   1     2.053740689865   121.38253261   359.05017532
 H     16   6   1     2.055137286631   120.92667717   178.46538679
 C     15   1   2     2.730176153391   126.28216030   184.98444942
 H     15   1   2     2.058232268225   116.16053435     3.05212958
 C     19  15   1     2.551916097665   126.28704328   182.76864297
 H     19  15   1     2.055238511263   115.89298455     3.83611234
 C     21  19  15     2.849173326247   125.63000082     1.28441462
 C     23  21  19     2.910648906723   111.76198367   126.40841168
 H     23  21  19     2.065926424345   112.34649092     2.55138323
 H     23  21  19     2.082090231737   107.75830789   244.97382055
 C     24  23  21     2.898695992379   112.51755986    51.13978906
 H     24  23  21     2.073905988316   109.06036549   289.04393160
 H     24  23  21     2.072753249725   109.14912434   173.03592634
 C     27  24  23     2.901216207489   111.83140034   305.91913157
 H     27  24  23     2.068992692048   108.99419345   182.29894817
 H     27  24  23     2.079848275741   109.18009492    65.80171141
 C     21  19  15     2.830466011628   122.78407920   180.54019267
 H     33  21  19     2.089845890035   106.38007493   124.98385028
 C     33  21  19     2.880689132872   121.11696009     2.41405259
 H     13   3   2     1.828995513009   107.63768462    42.04033731
 C     35  33  21     2.926302809231   103.33346597   195.18393306
 H     35  33  21     2.069521817622   112.30900089    73.46367799
 H     35  33  21     2.070839870305   110.68517675   313.72572801
 C     30  27  24     2.940260847931   115.88930975   166.48516185
 H     37  35  33     2.065703050397   111.14378600   251.43479612
 H     37  35  33     2.071954025137   111.26424616   133.04396525
 H     40  30  27     2.082240342067   105.72506245   321.37210938
 C     40  30  27     2.899209898531   118.08151156    82.34606266
 C     30  27  24     2.901279057957   111.10729651   294.68976542
 H     45  30  27     2.068480842996   111.67192300   187.94561790
 H     45  30  27     2.068374974286   111.41716253    67.97097084
 H     45  30  27     2.069542717060   110.83555698   307.87610493
 H     44  40  30     2.082441429728   107.40640689    63.04318377
 C     44  40  30     2.910083163384   114.26223099   304.19649523
 C     44  40  30     2.860449696867   113.77787172   180.83180582
 C     51  44  40     2.519292732941   127.27184395    21.01105247
 H     51  44  40     2.062271942466   113.63160804   196.51793825
 H     52  51  44     2.056581355117   118.82805771   355.77192550
 C     52  51  44     2.852318505556   126.30374959   174.85517706
 C     55  52  51     2.890325747005   113.13829318    15.62340586
 C     55  52  51     2.940673181905   110.63246377   249.30006573
 H     55  52  51     2.086471822536   106.86815608   134.35110695
 H     57  55  52     2.081962593314   106.65767029    65.29317527
 C     57  55  52     2.895265483958   112.12735552   306.93092999
 C     57  55  52     2.895278914652   111.70765520   183.67877561
 H     56  55  52     2.072657919626   111.23614994   288.99770087
 H     56  55  52     2.065105666207   111.17947153   168.82297580
 H     56  55  52     2.068994354044   110.76141032    49.10986503
 H     60  57  55     2.066897800937   112.30753142    64.23221795
 H     60  57  55     2.074943104637   110.57111109   303.42989233
 H     60  57  55     2.069924815740   110.33044008   184.36037069
 H     61  57  55     2.066245012205   112.48024458   296.20062998
 H     61  57  55     2.070244583500   110.33465722   176.07238452
 H     61  57  55     2.074763440450   110.43833037    57.06039977
 H     50  44  40     2.065321171903   112.24819915    67.55433629
 H     50  44  40     2.072101672930   110.35155389   306.27335286
 H     50  44  40     2.070946918111   110.21485421   187.45705189

---------------------
BASIS SET INFORMATION
---------------------
There are 3 groups of distinct atoms

 Group   1 Type C   : 7s4p contracted to 4s3p pattern {4111/211}
 Group   2 Type H   : 5s contracted to 3s pattern {311}
 Group   3 Type O   : 7s4p contracted to 4s3p pattern {4111/211}

Atom   0C    basis set group =>   1
Atom   1C    basis set group =>   1
Atom   2C    basis set group =>   1
Atom   3H    basis set group =>   2
Atom   4H    basis set group =>   2
Atom   5C    basis set group =>   1
Atom   6C    basis set group =>   1
Atom   7C    basis set group =>   1
Atom   8H    basis set group =>   2
Atom   9H    basis set group =>   2
Atom  10H    basis set group =>   2
Atom  11H    basis set group =>   2
Atom  12O    basis set group =>   3
Atom  13H    basis set group =>   2
Atom  14C    basis set group =>   1
Atom  15C    basis set group =>   1
Atom  16H    basis set group =>   2
Atom  17H    basis set group =>   2
Atom  18C    basis set group =>   1
Atom  19H    basis set group =>   2
Atom  20C    basis set group =>   1
Atom  21H    basis set group =>   2
Atom  22C    basis set group =>   1
Atom  23C    basis set group =>   1
Atom  24H    basis set group =>   2
Atom  25H    basis set group =>   2
Atom  26C    basis set group =>   1
Atom  27H    basis set group =>   2
Atom  28H    basis set group =>   2
Atom  29C    basis set group =>   1
Atom  30H    basis set group =>   2
Atom  31H    basis set group =>   2
Atom  32C    basis set group =>   1
Atom  33H    basis set group =>   2
Atom  34C    basis set group =>   1
Atom  35H    basis set group =>   2
Atom  36C    basis set group =>   1
Atom  37H    basis set group =>   2
Atom  38H    basis set group =>   2
Atom  39C    basis set group =>   1
Atom  40H    basis set group =>   2
Atom  41H    basis set group =>   2
Atom  42H    basis set group =>   2
Atom  43C    basis set group =>   1
Atom  44C    basis set group =>   1
Atom  45H    basis set group =>   2
Atom  46H    basis set group =>   2
Atom  47H    basis set group =>   2
Atom  48H    basis set group =>   2
Atom  49C    basis set group =>   1
Atom  50C    basis set group =>   1
Atom  51C    basis set group =>   1
Atom  52H    basis set group =>   2
Atom  53H    basis set group =>   2
Atom  54C    basis set group =>   1
Atom  55C    basis set group =>   1
Atom  56C    basis set group =>   1
Atom  57H    basis set group =>   2
Atom  58H    basis set group =>   2
Atom  59C    basis set group =>   1
Atom  60C    basis set group =>   1
Atom  61H    basis set group =>   2
Atom  62H    basis set group =>   2
Atom  63H    basis set group =>   2
Atom  64H    basis set group =>   2
Atom  65H    basis set group =>   2
Atom  66H    basis set group =>   2
Atom  67H    basis set group =>   2
Atom  68H    basis set group =>   2
Atom  69H    basis set group =>   2
Atom  70H    basis set group =>   2
Atom  71H    basis set group =>   2
Atom  72H    basis set group =>   2

-------------------------
BASIS SET IN INPUT FORMAT
-------------------------

 # Basis set for element : H 
 NewGTO H 
 S 3 
   1    1357.7500000000      0.0012928364
   2      54.3100000000      0.0588280685
   3       4.3448000000      0.9761499708
 S 1 
   1       0.6604910000      1.0000000000
 S 1 
   1       0.1366870000      1.0000000000
  end;

 # Basis set for element : C 
 NewGTO C 
 S 4 
   1  139534.0000000000      0.0001655246
   2    5581.3600000000      0.0074486101
   3     446.5090000000      0.1285821065
   4      67.4620000000      0.9218029311
 S 1 
   1      15.0674000000      1.0000000000
 S 1 
   1       3.9387600000      1.0000000000
 S 1 
   1       0.2999150000      1.0000000000
 P 2 
   1      28.3900000000      0.0816325586
   2       4.3676900000      0.9660360576
 P 1 
   1       0.8698170000      1.0000000000
 P 1 
   1       0.1889340000      1.0000000000
  end;

 # Basis set for element : O 
 NewGTO O 
 S 4 
   1  253789.0000000000      0.0001641076
   2   10151.6000000000      0.0074010921
   3     812.1250000000      0.1277711901
   4     122.6930000000      0.9223372164
 S 1 
   1      27.5608000000      1.0000000000
 S 1 
   1       7.3172600000      1.0000000000
 S 1 
   1       0.5792400000      1.0000000000
 P 2 
   1      53.4157000000      0.0793786106
   2       8.2177900000      0.9670506337
 P 1 
   1       1.6754400000      1.0000000000
 P 1 
   1       0.3506720000      1.0000000000
  end;

---------------------------------
AUXILIARY/J BASIS SET INFORMATION
---------------------------------
There are 3 groups of distinct atoms

 Group   1 Type C   : 12s5p4d2f1g contracted to 6s4p3d1f1g pattern {711111/2111/211/2/1}
 Group   2 Type H   : 5s2p1d contracted to 3s1p1d pattern {311/2/1}
 Group   3 Type O   : 12s5p4d2f1g contracted to 6s4p3d1f1g pattern {711111/2111/211/2/1}

Atom   0C    basis set group =>   1
Atom   1C    basis set group =>   1
Atom   2C    basis set group =>   1
Atom   3H    basis set group =>   2
Atom   4H    basis set group =>   2
Atom   5C    basis set group =>   1
Atom   6C    basis set group =>   1
Atom   7C    basis set group =>   1
Atom   8H    basis set group =>   2
Atom   9H    basis set group =>   2
Atom  10H    basis set group =>   2
Atom  11H    basis set group =>   2
Atom  12O    basis set group =>   3
Atom  13H    basis set group =>   2
Atom  14C    basis set group =>   1
Atom  15C    basis set group =>   1
Atom  16H    basis set group =>   2
Atom  17H    basis set group =>   2
Atom  18C    basis set group =>   1
Atom  19H    basis set group =>   2
Atom  20C    basis set group =>   1
Atom  21H    basis set group =>   2
Atom  22C    basis set group =>   1
Atom  23C    basis set group =>   1
Atom  24H    basis set group =>   2
Atom  25H    basis set group =>   2
Atom  26C    basis set group =>   1
Atom  27H    basis set group =>   2
Atom  28H    basis set group =>   2
Atom  29C    basis set group =>   1
Atom  30H    basis set group =>   2
Atom  31H    basis set group =>   2
Atom  32C    basis set group =>   1
Atom  33H    basis set group =>   2
Atom  34C    basis set group =>   1
Atom  35H    basis set group =>   2
Atom  36C    basis set group =>   1
Atom  37H    basis set group =>   2
Atom  38H    basis set group =>   2
Atom  39C    basis set group =>   1
Atom  40H    basis set group =>   2
Atom  41H    basis set group =>   2
Atom  42H    basis set group =>   2
Atom  43C    basis set group =>   1
Atom  44C    basis set group =>   1
Atom  45H    basis set group =>   2
Atom  46H    basis set group =>   2
Atom  47H    basis set group =>   2
Atom  48H    basis set group =>   2
Atom  49C    basis set group =>   1
Atom  50C    basis set group =>   1
Atom  51C    basis set group =>   1
Atom  52H    basis set group =>   2
Atom  53H    basis set group =>   2
Atom  54C    basis set group =>   1
Atom  55C    basis set group =>   1
Atom  56C    basis set group =>   1
Atom  57H    basis set group =>   2
Atom  58H    basis set group =>   2
Atom  59C    basis set group =>   1
Atom  60C    basis set group =>   1
Atom  61H    basis set group =>   2
Atom  62H    basis set group =>   2
Atom  63H    basis set group =>   2
Atom  64H    basis set group =>   2
Atom  65H    basis set group =>   2
Atom  66H    basis set group =>   2
Atom  67H    basis set group =>   2
Atom  68H    basis set group =>   2
Atom  69H    basis set group =>   2
Atom  70H    basis set group =>   2
Atom  71H    basis set group =>   2
Atom  72H    basis set group =>   2

-------------------------------------
AUXILIARY/J BASIS SET IN INPUT FORMAT
-------------------------------------

 # Auxiliary/J basis set for element : H 
 NewAuxJGTO H 
 S 3 
   1      15.6752927000      0.1007184237
   2       3.6063578000      0.3404257499
   3       1.2080016000      0.6491996172
 S 1 
   1       0.4726794000      1.0000000000
 S 1 
   1       0.2018100000      1.0000000000
 P 2 
   1       2.0281365000      0.5596620919
   2       0.5358730000      0.5596620919
 D 1 
   1       2.2165124000      1.0000000000
  end;

 # Auxiliary/J basis set for element : C 
 NewAuxJGTO C 
 S 7 
   1    1861.0916331000      0.0134602335
   2     642.9939764000      0.0299160374
   3     235.1105725000      0.1008649584
   4      90.7028894000      0.2370970548
   5      36.7794552000      0.3924037254
   6      15.6046273000      0.3195862154
   7       6.8907294000      0.0530104441
 S 1 
   1       3.1478850000     -1.0000000000
 S 1 
   1       1.4777287000      1.0000000000
 S 1 
   1       0.7076466000      1.0000000000
 S 1 
   1       0.3430122000      1.0000000000
 S 1 
   1       0.1669453000      1.0000000000
 P 2 
   1      13.5472892000     -0.6769313712
   2       5.4669419000     -0.3779500978
 P 1 
   1       2.1751721000      1.0000000000
 P 1 
   1       0.8582194000      1.0000000000
 P 1 
   1       0.3376720000      1.0000000000
 D 2 
   1       5.9287253000     -0.3533329857
   2       1.9809209000     -0.7456525731
 D 1 
   1       0.8055417000     -1.0000000000
 D 1 
   1       0.3531244000     -1.0000000000
 F 2 
   1       1.6755626000      0.6311076882
   2       0.5997536000      0.4968166032
 G 1 
   1       1.0024600000     -1.0000000000
  end;

 # Auxiliary/J basis set for element : O 
 NewAuxJGTO O 
 S 7 
   1    2876.8216605000      0.0168151159
   2    1004.7443032000      0.0340137548
   3     369.7579954000      0.1194951309
   4     142.9442404000      0.2664627624
   5      57.8366425000      0.4202764046
   6      24.3864983000      0.2765077335
   7      10.6622662000      0.0057008815
 S 1 
   1       4.8070437000     -1.0000000000
 S 1 
   1       2.2210770000      1.0000000000
 S 1 
   1       1.0447795000      1.0000000000
 S 1 
   1       0.4968425000      1.0000000000
 S 1 
   1       0.2371384000      1.0000000000
 P 2 
   1      64.2613382000     -0.2731534179
   2      16.3006076000     -0.8168011598
 P 1 
   1       4.3550542000      1.0000000000
 P 1 
   1       1.2019554000      1.0000000000
 P 1 
   1       0.3354196000      1.0000000000
 D 2 
   1       9.2146611000     -0.4661230638
   2       2.8435251000     -0.6600908911
 D 1 
   1       0.9955759000     -1.0000000000
 D 1 
   1       0.3649441000     -1.0000000000
 F 2 
   1       2.6420115000      0.5931563945
   2       0.7345613000      0.5931563945
 G 1 
   1       1.3931000000     -1.0000000000
  end;


Checking for AutoStart:
The File: inpJ.gbw exists
Trying to determine its content:
     ... Fine, the file contains calculation information
     ... Fine, the calculation information was read
     ... Fine, the file contains a basis set
     ... Fine, the basis set was read
     ... Fine, the file contains a geometry
     ... Fine, the geometry was read
     ... Fine, the file contains a set of orbitals
     ... Fine, the orbitals can be read
     => possible old guess file was deleted
     => GBW file was renamed to GES file
     => GES file is set as startup file
     => Guess is set to MORead
     ... now leaving AutoStart



           ************************************************************
           *        Program running with 4 parallel MPI-processes     *
           *              working on a common directory               *
           ************************************************************
------------------------------------------------------------------------------
                             ORCA STARTUP CALCULATIONS
                           -- RI-GTO INTEGRALS CHOSEN --
------------------------------------------------------------------------------
------------------------------------------------------------------------------
                   ___                                                        
                  /   \      - P O W E R E D   B Y -                         
                 /     \                                                     
                 |  |  |   _    _      __       _____    __    __             
                 |  |  |  | |  | |    /  \     |  _  \  |  |  /  |          
                  \  \/   | |  | |   /    \    | | | |  |  | /  /          
                 / \  \   | |__| |  /  /\  \   | |_| |  |  |/  /          
                |  |  |   |  __  | /  /__\  \  |    /   |      \           
                |  |  |   | |  | | |   __   |  |    \   |  |\   \          
                \     /   | |  | | |  |  |  |  | |\  \  |  | \   \       
                 \___/    |_|  |_| |__|  |__|  |_| \__\ |__|  \__/        
                                                                              
                      - O R C A' S   B I G   F R I E N D -                    
                                      &                                       
                       - I N T E G R A L  F E E D E R -                       
                                                                              
 v1 FN, 2020, v2 2021, v3 2022-2024                                           
------------------------------------------------------------------------------


----------------------
SHARK INTEGRAL PACKAGE
----------------------

Number of atoms                             ...     73
Number of basis functions                   ...    509
Number of shells                            ...    335
Maximum angular momentum                    ...      1
Integral batch strategy                     ... SHARK/LIBINT Hybrid
RI-J (if used) integral strategy            ... SPLIT-RIJ (Revised 2003 algorithm where possible)
Printlevel                                  ...      1
Contraction scheme used                     ... SEGMENTED contraction
Prescreening option                         ... SCHWARTZ
   Thresh                                   ... 3.000e-11
   Tcut                                     ... 1.000e-12
   Tpresel                                  ... 1.000e-12 
Coulomb Range Separation                    ... NOT USED
Exchange Range Separation                   ... NOT USED
Multipole approximations                    ... NOT USED
Finite Nucleus Model                        ... NOT USED
CABS basis                                  ... NOT available
Auxiliary Coulomb fitting basis             ... AVAILABLE
   # of basis functions in Aux-J            ...   1905
   # of shells in Aux-J                     ...    655
   Maximum angular momentum in Aux-J        ...      4
Auxiliary J/K fitting basis                 ... NOT available
Auxiliary Correlation fitting basis         ... NOT available
Auxiliary 'external' fitting basis          ... NOT available

Checking pre-screening integrals            ... done (  0.0 sec) Dimension = 335
Check shell pair data                       ... done (  0.0 sec)
Shell pair information
Shell pair cut-off parameter TPreSel        ...   1.0e-12
Total number of shell pairs                 ...     56280
Shell pairs after pre-screening             ...     21946
Total number of primitive shell pairs       ...    145865
Primitive shell pairs kept                  ...     37734
          la=0 lb=0:  11041 shell pairs
          la=1 lb=0:   9027 shell pairs
          la=1 lb=1:   1878 shell pairs

Calculating one electron integrals          ... done (  0.0 sec)
Calculating RI/J V-Matrix + Cholesky decomp.... done (  0.2 sec)
Calculating Nuclear repulsion               ... done (  0.0 sec) ENN=   2790.882068974634 Eh

Diagonalization of the overlap matrix:
Smallest eigenvalue                        ... 7.514e-03
Time for diagonalization                   ...    0.030 sec
Threshold for overlap eigenvalues          ... 1.000e-07
Number of eigenvalues below threshold      ... 0
Time for construction of square roots      ...    0.016 sec
Total time needed                          ...    0.048 sec

-------------------
DFT GRID GENERATION
-------------------

General Integration Accuracy     IntAcc      ... 4.388
Radial Grid Type                 RadialGrid  ... OptM3 with GC (2021)
Angular Grid (max. ang.)         AngularGrid ... 4 (Lebedev-302)
Angular grid pruning method      GridPruning ... 4 (adaptive)
Weight generation scheme         WeightScheme... mBecke (2022)
Basis function cutoff            BFCut       ... 1.0000e-11
Integration weight cutoff        WCut        ... 1.0000e-14
Partially contracted basis set               ... off
Rotationally invariant grid construction     ... off
Angular grids for H and He will be reduced by one unit

Total number of grid points                  ...   309821
Total number of batches                      ...     4878
Average number of points per batch           ...       63
Average number of grid points per atom       ...     4244

--------------------
COSX GRID GENERATION
--------------------

GRIDX 1
-------
General Integration Accuracy     IntAcc      ... 3.816
Radial Grid Type                 RadialGrid  ... OptM3 with GC (2021)
Angular Grid (max. ang.)         AngularGrid ... 1 (Lebedev-50)
Angular grid pruning method      GridPruning ... 4 (adaptive)
Weight generation scheme         WeightScheme... mBecke (2022)
Basis function cutoff            BFCut       ... 1.0000e-11
Integration weight cutoff        WCut        ... 1.0000e-14
Partially contracted basis set               ... on
Rotationally invariant grid construction     ... off
Angular grids for H and He will be reduced by one unit

Total number of grid points                  ...    39335
Total number of batches                      ...      349
Average number of points per batch           ...      112
Average number of grid points per atom       ...      539
UseSFitting                                  ... on

GRIDX 2
-------
General Integration Accuracy     IntAcc      ... 4.020
Radial Grid Type                 RadialGrid  ... OptM3 with GC (2021)
Angular Grid (max. ang.)         AngularGrid ... 2 (Lebedev-110)
Angular grid pruning method      GridPruning ... 4 (adaptive)
Weight generation scheme         WeightScheme... mBecke (2022)
Basis function cutoff            BFCut       ... 1.0000e-11
Integration weight cutoff        WCut        ... 1.0000e-14
Partially contracted basis set               ... on
Rotationally invariant grid construction     ... off
Angular grids for H and He will be reduced by one unit

Total number of grid points                  ...    81334
Total number of batches                      ...      676
Average number of points per batch           ...      120
Average number of grid points per atom       ...     1114
UseSFitting                                  ... on

GRIDX 3
-------
General Integration Accuracy     IntAcc      ... 4.338
Radial Grid Type                 RadialGrid  ... OptM3 with GC (2021)
Angular Grid (max. ang.)         AngularGrid ... 3 (Lebedev-194)
Angular grid pruning method      GridPruning ... 4 (adaptive)
Weight generation scheme         WeightScheme... mBecke (2022)
Basis function cutoff            BFCut       ... 1.0000e-11
Integration weight cutoff        WCut        ... 1.0000e-14
Partially contracted basis set               ... on
Rotationally invariant grid construction     ... off
Angular grids for H and He will be reduced by one unit

Total number of grid points                  ...   176214
Total number of batches                      ...     1419
Average number of points per batch           ...      124
Average number of grid points per atom       ...     2414
UseSFitting                                  ... on
Initializing property integral containers    ... done (  0.0 sec)

SHARK setup successfully completed in   3.9 seconds

Maximum memory used throughout the entire STARTUP-calculation: 85.7 MB


           ************************************************************
           *        Program running with 4 parallel MPI-processes     *
           *              working on a common directory               *
           ************************************************************
-------------------------------------------------------------------------------
                                 ORCA GUESS
                   Start orbitals & Density for SCF / CASSCF
-------------------------------------------------------------------------------

------------
SCF SETTINGS
------------
Hamiltonian:
 Density Functional     Method          .... DFT(GTOs)
 Exchange Functional    Exchange        .... PBE
   PBE kappa parameter   XKappa         ....  0.804000
   PBE mue parameter    XMuePBE         ....  0.219520
 Correlation Functional Correlation     .... PBE
   PBE beta parameter  CBetaPBE         ....  0.066725
 LDA part of GGA corr.  LDAOpt          .... PW91-LDA
 Gradients option       PostSCFGGA      .... off
 Hybrid DFT is turned on
   Fraction HF Exchange ScalHFX         ....  0.250000
   Scaling of DF-GGA-X  ScalDFX         ....  0.750000
   Scaling of DF-GGA-C  ScalDFC         ....  1.000000
   Scaling of DF-LDA-C  ScalLDAC        ....  1.000000
   Perturbative correction              ....  0.000000
   NL short-range parameter             ....  6.900000
 RI-approximation to the Coulomb term is turned on
   Number of AuxJ basis functions       .... 1905
   RIJ-COSX (HFX calculated with COS-X)).... on


General Settings:
 Integral files         IntName         .... inpJ
 Hartree-Fock type      HFTyp           .... RHF
 Total Charge           Charge          ....    0
 Multiplicity           Mult            ....    1
 Number of Electrons    NEL             ....  220
 Basis Dimension        Dim             ....  509
 Nuclear Repulsion      ENuc            ....   2790.8820689746 Eh

Convergence Acceleration:
 AO-DIIS                CNVDIIS         .... on
   Start iteration      DIISMaxIt       ....    12
   Startup error        DIISStart       ....  0.200000
   # of expansion vecs  DIISMaxEq       ....     5
   Bias factor          DIISBfac        ....   1.050
   Max. coefficient     DIISMaxC        ....  10.000
 MO-DIIS                CNVKDIIS        .... off
 Trust-Rad. Augm. Hess. CNVTRAH         .... auto
   Auto Start mean grad. ratio tolernc. ....  1.125000
   Auto Start start iteration           ....     1
   Auto Start num. interpolation iter.  ....    10
   Max. Number of Micro iterations      ....    24
   Max. Number of Macro iterations      .... Maxiter - #DIIS iter
   Number of Davidson start vectors     ....     2
   Converg. threshold    (grad. norm)   ....   1.000e-04
   Grad. Scal. Fac. for Micro threshold ....   0.100
   Minimum threshold for Micro iter.    ....   1.000e-02
   NR start threshold (gradient norm)   ....   1.000e-04
   Initial trust radius                 ....   0.400
   Minimum AH scaling param. (alpha)    ....   1.000
   Maximum AH scaling param. (alpha)    .... 1000.000
   Quad. conv. algorithm                .... NR
   White noise on init. David. guess    .... on
   Maximum white noise                  ....   0.010
   Pseudo random numbers                .... off
   Inactive MOs                         .... canonical
   Orbital update algorithm             .... Taylor
   Preconditioner                       .... Diag
   Full preconditioner red. dimension   ....   250
 SOSCF                  CNVSOSCF        .... off
 Level Shifting         CNVShift        .... on
   Level shift para.    LevelShift      ....    0.2500
   Turn off err/grad.   ShiftErr        ....    0.0010
 Zerner damping         CNVZerner       .... off
 Static damping         CNVDamp         .... on
   Fraction old density DampFac         ....    0.7000
   Max. Damping (<1)    DampMax         ....    0.9800
   Min. Damping (>=0)   DampMin         ....    0.0000
   Turn off err/grad.   DampErr         ....    0.1000

SCF Procedure:
 Maximum # iterations   MaxIter         ....   125
 SCF integral mode      SCFMode         .... Direct
   Integral package                     .... SHARK and LIBINT hybrid scheme
 Reset frequency        DirectResetFreq ....    20
 Integral Threshold     Thresh          ....  3.000e-11 Eh
 Primitive CutOff       TCut            ....  1.000e-12 Eh

Convergence Tolerance:
 Convergence Check Mode ConvCheckMode   .... Total+1el-Energy
 Convergence forced     ConvForced      .... 0
 Energy Change          TolE            ....  1.000e-07 Eh
 1-El. energy change                    ....  1.000e-04 Eh
 DIIS Error             TolErr          ....  1.000e-07

---------------------
INITIAL GUESS: MOREAD
---------------------
Guess MOs are being read from file: inpJ.ges
Input Geometry matches current geometry (good)
Input basis set matches current basis set (good)
Occupation numbers will be reassigned to an Aufbau configuration
MOs were renormalized
MOs were reorthogonalized (Cholesky)
                      ------------------
                      INITIAL GUESS DONE (   0.1 sec)
                      ------------------
             **** ENERGY FILE WAS UPDATED (inpJ.en.tmp) ****
Finished Guess after   0.2 sec
Maximum memory used throughout the entire GUESS-calculation: 36.8 MB


           ************************************************************
           *        Program running with 4 parallel MPI-processes     *
           *              working on a common directory               *
           ************************************************************

-------------------------------------------------------------------------------------------
                                      ORCA LEAN-SCF
                              memory conserving SCF solver
-------------------------------------------------------------------------------------------

--------------------
CPCM SOLVATION MODEL
--------------------
CPCM parameters:
  Epsilon                                         ...       4.8030
  Refrac                                          ...       1.4459
  Rsolv                                           ...       1.3000
  Surface type                                    ... GAUSSIAN VDW
  Discretization scheme                           ... Constant charge density
    Threshold for H atoms                         ...       5.0000 (charges/Ang^2)
    Threshold for non-H atoms                     ...       5.0000 (charges/Ang^2)
  Epsilon function type                           ...         CPCM
Solvent:                                          ... CHLOROFORM
Radii:
  Scheme                                          ... Element-dependent radii
  Radius for C  used is    3.8550 Bohr (=   2.0400 Ang.)
  Radius for H  used is    2.4944 Bohr (=   1.3200 Ang.)
  Radius for O  used is    3.4469 Bohr (=   1.8240 Ang.)
Calculating surface                               ...        done! (  0.0s)
Cavity surface points                             ...         5365
Cavity Volume                                     ...    3596.5455
Cavity Surface-area                               ...    1785.2390
Calculating surface distance matrix               ...        done! (  0.2s)
Performing Cholesky decomposition & store         ...        done! (  0.9s)
Overall time for CPCM initialization              ...                 1.2s

----------------------------------------D-I-I-S--------------------------------------------
Iteration    Energy (Eh)           Delta-E    RMSDP     MaxDP     DIISErr   Damp  Time(sec)
-------------------------------------------------------------------------------------------
               ***  Starting incremental Fock matrix formation  ***
    1    -1165.5090215363966308     0.00e+00  4.07e-08  5.68e-06  7.43e-06  0.700   6.2

  HOMO= 109 E= -6.020 eV LUMO=  5.941 eV gap=  11.961 eV
    2    -1165.5090215607156097    -2.43e-08  2.75e-08  3.40e-06  3.63e-06  0.700   1.9
                 **** Energy Check signals convergence ****

  HOMO= 109 E= -6.020 eV LUMO=  5.941 eV gap=  11.961 eV

               *****************************************************
               *                     SUCCESS                       *
               *           SCF CONVERGED AFTER   2 CYCLES          *
               *****************************************************

Recomputing exchange energy using gridx3       ... done (    8.241 sec)
Old exchange energy                            :    -42.067665800 Eh
New exchange energy                            :    -42.067717123 Eh
Exchange energy change after final integration :     -0.000051322 Eh
Total energy after final integration           :  -1165.509072883 Eh
             **** ENERGY FILE WAS UPDATED (inpJ.en.tmp) ****

----------------
TOTAL SCF ENERGY
----------------

Total Energy       :      -1165.50907288319627 Eh          -31715.11424 eV

Components:
Nuclear Repulsion  :       2790.88206897463351 Eh           75943.76200 eV
Electronic Energy  :      -3956.37736828094194 Eh         -107658.50144 eV
One Electron Energy:      -7123.51783878882998 Eh         -193840.77507 eV
Two Electron Energy:       3167.14047050788804 Eh           86182.27362 eV
CPCM Dielectric    :         -0.01372225440726 Eh              -0.37340 eV

Virial components:
Potential Energy   :      -2322.40288447489684 Eh          -63195.79530 eV
Kinetic Energy     :       1156.89381159170057 Eh           31480.68106 eV
Virial Ratio       :          2.00744689028947

DFT components:
N(Alpha)           :      110.000171505914 electrons
N(Beta)            :      110.000171505914 electrons
N(Total)           :      220.000343011829 electrons
E(X)               :     -125.745557683621 Eh       
E(C)               :       -7.329326747086 Eh       
E(XC)              :     -133.074884430707 Eh       

CPCM Solvation Model Properties:
Surface-charge          :         -0.03333544861452
Corrected charge        :         -0.00000000000000
Outlying charge corr.   :          0.00003898702934 Eh               0.00106 eV
Free-energy (cav+disp)  :  This term is not implemented in the current solvation scheme

---------------
SCF CONVERGENCE
---------------

  Last Energy change         ...    2.4319e-08  Tolerance :   1.0000e-07
  Last MAX-Density change    ...    3.4014e-06  Tolerance :   1.0000e-05
  Last RMS-Density change    ...    2.7472e-08  Tolerance :   1.0000e-06
  Last DIIS Error            ...    3.6319e-06  Tolerance :   1.0000e-07


----------------
ORBITAL ENERGIES
----------------

  NO   OCC          E(Eh)            E(eV) 
   0   2.0000     -19.212321      -522.7938 
   1   2.0000     -10.300498      -280.2908 
   2   2.0000     -10.270513      -279.4749 
   3   2.0000     -10.268400      -279.4174 
   4   2.0000     -10.264153      -279.3018 
   5   2.0000     -10.257535      -279.1217 
   6   2.0000     -10.257260      -279.1142 
   7   2.0000     -10.252084      -278.9734 
   8   2.0000     -10.251903      -278.9685 
   9   2.0000     -10.250742      -278.9369 
  10   2.0000     -10.248199      -278.8677 
  11   2.0000     -10.247691      -278.8539 
  12   2.0000     -10.246266      -278.8151 
  13   2.0000     -10.244845      -278.7764 
  14   2.0000     -10.244676      -278.7718 
  15   2.0000     -10.243769      -278.7471 
  16   2.0000     -10.243021      -278.7268 
  17   2.0000     -10.241802      -278.6936 
  18   2.0000     -10.241749      -278.6921 
  19   2.0000     -10.241410      -278.6829 
  20   2.0000     -10.240028      -278.6453 
  21   2.0000     -10.234314      -278.4898 
  22   2.0000     -10.233999      -278.4813 
  23   2.0000     -10.233117      -278.4573 
  24   2.0000     -10.227234      -278.2972 
  25   2.0000     -10.224953      -278.2351 
  26   2.0000     -10.224883      -278.2332 
  27   2.0000     -10.224837      -278.2320 
  28   2.0000     -10.220824      -278.1228 
  29   2.0000      -1.043148       -28.3855 
  30   2.0000      -0.901699       -24.5365 
  31   2.0000      -0.882280       -24.0081 
  32   2.0000      -0.860401       -23.4127 
  33   2.0000      -0.846171       -23.0255 
  34   2.0000      -0.822653       -22.3855 
  35   2.0000      -0.814573       -22.1657 
  36   2.0000      -0.796028       -21.6610 
  37   2.0000      -0.795082       -21.6353 
  38   2.0000      -0.777984       -21.1700 
  39   2.0000      -0.758287       -20.6340 
  40   2.0000      -0.740381       -20.1468 
  41   2.0000      -0.733607       -19.9624 
  42   2.0000      -0.715499       -19.4697 
  43   2.0000      -0.703131       -19.1332 
  44   2.0000      -0.702501       -19.1160 
  45   2.0000      -0.696182       -18.9441 
  46   2.0000      -0.670631       -18.2488 
  47   2.0000      -0.663664       -18.0592 
  48   2.0000      -0.632147       -17.2016 
  49   2.0000      -0.622395       -16.9362 
  50   2.0000      -0.612645       -16.6709 
  51   2.0000      -0.607400       -16.5282 
  52   2.0000      -0.596725       -16.2377 
  53   2.0000      -0.586735       -15.9659 
  54   2.0000      -0.566954       -15.4276 
  55   2.0000      -0.541203       -14.7269 
  56   2.0000      -0.530895       -14.4464 
  57   2.0000      -0.529424       -14.4064 
  58   2.0000      -0.515169       -14.0185 
  59   2.0000      -0.512029       -13.9330 
  60   2.0000      -0.501304       -13.6412 
  61   2.0000      -0.493751       -13.4357 
  62   2.0000      -0.481938       -13.1142 
  63   2.0000      -0.478629       -13.0241 
  64   2.0000      -0.474243       -12.9048 
  65   2.0000      -0.469016       -12.7626 
  66   2.0000      -0.465276       -12.6608 
  67   2.0000      -0.461136       -12.5481 
  68   2.0000      -0.459070       -12.4919 
  69   2.0000      -0.451089       -12.2747 
  70   2.0000      -0.449751       -12.2384 
  71   2.0000      -0.442908       -12.0521 
  72   2.0000      -0.440168       -11.9776 
  73   2.0000      -0.433561       -11.7978 
  74   2.0000      -0.432679       -11.7738 
  75   2.0000      -0.421557       -11.4711 
  76   2.0000      -0.418602       -11.3907 
  77   2.0000      -0.415603       -11.3091 
  78   2.0000      -0.409620       -11.1463 
  79   2.0000      -0.403812       -10.9883 
  80   2.0000      -0.401095       -10.9143 
  81   2.0000      -0.399219       -10.8633 
  82   2.0000      -0.394143       -10.7252 
  83   2.0000      -0.389293       -10.5932 
  84   2.0000      -0.388420       -10.5694 
  85   2.0000      -0.381401       -10.3785 
  86   2.0000      -0.375326       -10.2131 
  87   2.0000      -0.373314       -10.1584 
  88   2.0000      -0.366909        -9.9841 
  89   2.0000      -0.363050        -9.8791 
  90   2.0000      -0.361413        -9.8345 
  91   2.0000      -0.360123        -9.7994 
  92   2.0000      -0.355035        -9.6610 
  93   2.0000      -0.345847        -9.4110 
  94   2.0000      -0.340952        -9.2778 
  95   2.0000      -0.339290        -9.2325 
  96   2.0000      -0.336864        -9.1665 
  97   2.0000      -0.333350        -9.0709 
  98   2.0000      -0.331090        -9.0094 
  99   2.0000      -0.329885        -8.9766 
 100   2.0000      -0.327594        -8.9143 
 101   2.0000      -0.325625        -8.8607 
 102   2.0000      -0.319198        -8.6858 
 103   2.0000      -0.316119        -8.6020 
 104   2.0000      -0.310854        -8.4588 
 105   2.0000      -0.301110        -8.1936 
 106   2.0000      -0.276467        -7.5230 
 107   2.0000      -0.274890        -7.4801 
 108   2.0000      -0.255874        -6.9627 
 109   2.0000      -0.221238        -6.0202 
 110   0.0000      -0.031669        -0.8618 
 111   0.0000       0.019329         0.5260 
 112   0.0000       0.028072         0.7639 
 113   0.0000       0.079955         2.1757 
 114   0.0000       0.089212         2.4276 
 115   0.0000       0.102284         2.7833 
 116   0.0000       0.104151         2.8341 
 117   0.0000       0.106686         2.9031 
 118   0.0000       0.109054         2.9675 
 119   0.0000       0.117741         3.2039 
 120   0.0000       0.119372         3.2483 
*Only the first 10 virtual orbitals were printed.

                    ********************************
                    * MULLIKEN POPULATION ANALYSIS *
                    ********************************

-----------------------
MULLIKEN ATOMIC CHARGES
-----------------------
   0 C :    0.078010
   1 C :   -0.500696
   2 C :   -0.073658
   3 H :    0.222834
   4 H :    0.219986
   5 C :    0.138418
   6 C :   -0.479460
   7 C :   -0.440021
   8 H :    0.225309
   9 H :    0.207537
  10 H :    0.208756
  11 H :    0.227916
  12 O :   -0.488424
  13 H :    0.247034
  14 C :   -0.280228
  15 C :   -0.514455
  16 H :    0.200737
  17 H :    0.196846
  18 C :   -0.259213
  19 H :    0.220784
  20 C :    0.152815
  21 H :    0.219995
  22 C :   -0.480176
  23 C :   -0.427805
  24 H :    0.211856
  25 H :    0.207307
  26 C :   -0.396759
  27 H :    0.208610
  28 H :    0.217439
  29 C :    0.004655
  30 H :    0.223236
  31 H :    0.194555
  32 C :   -0.229772
  33 H :    0.227768
  34 C :   -0.433810
  35 H :    0.341296
  36 C :   -0.419424
  37 H :    0.208112
  38 H :    0.198217
  39 C :   -0.200917
  40 H :    0.211587
  41 H :    0.204470
  42 H :    0.209277
  43 C :   -0.239543
  44 C :   -0.629800
  45 H :    0.205470
  46 H :    0.208994
  47 H :    0.202143
  48 H :    0.219880
  49 C :   -0.620667
  50 C :   -0.179548
  51 C :   -0.183850
  52 H :    0.217399
  53 H :    0.222172
  54 C :   -0.232109
  55 C :   -0.633262
  56 C :   -0.199352
  57 H :    0.210957
  58 H :    0.212493
  59 C :   -0.613452
  60 C :   -0.613173
  61 H :    0.191286
  62 H :    0.213968
  63 H :    0.203916
  64 H :    0.208549
  65 H :    0.192493
  66 H :    0.206723
  67 H :    0.210064
  68 H :    0.205777
  69 H :    0.192558
  70 H :    0.209043
  71 H :    0.195709
  72 H :    0.204618
Sum of atomic charges:   -0.0000000

--------------------------------
MULLIKEN REDUCED ORBITAL CHARGES
--------------------------------
  0 C s       :     3.354586  s :     3.354586
      pz      :     1.020436  p :     2.567403
      px      :     0.799391
      py      :     0.747577

  1 C s       :     3.377769  s :     3.377769
      pz      :     1.095156  p :     3.122928
      px      :     0.883363
      py      :     1.144409

  2 C s       :     3.312534  s :     3.312534
      pz      :     0.721906  p :     2.761124
      px      :     1.119875
      py      :     0.919344

  3 H s       :     0.777166  s :     0.777166

  4 H s       :     0.780014  s :     0.780014

  5 C s       :     3.341285  s :     3.341285
      pz      :     0.885963  p :     2.520297
      px      :     0.882156
      py      :     0.752178

  6 C s       :     3.367126  s :     3.367126
      pz      :     1.095117  p :     3.112334
      px      :     0.889729
      py      :     1.127489

  7 C s       :     3.338623  s :     3.338623
      pz      :     1.201556  p :     3.101398
      px      :     0.983367
      py      :     0.916475

  8 H s       :     0.774691  s :     0.774691

  9 H s       :     0.792463  s :     0.792463

 10 H s       :     0.791244  s :     0.791244

 11 H s       :     0.772084  s :     0.772084

 12 O s       :     3.684867  s :     3.684867
      pz      :     1.491038  p :     4.803557
      px      :     1.429452
      py      :     1.883067

 13 H s       :     0.752966  s :     0.752966

 14 C s       :     3.393896  s :     3.393896
      pz      :     0.988628  p :     2.886332
      px      :     0.797291
      py      :     1.100413

 15 C s       :     3.384515  s :     3.384515
      pz      :     1.006914  p :     3.129940
      px      :     1.014071
      py      :     1.108955

 16 H s       :     0.799263  s :     0.799263

 17 H s       :     0.803154  s :     0.803154

 18 C s       :     3.396992  s :     3.396992
      pz      :     1.024880  p :     2.862221
      px      :     0.740351
      py      :     1.096991

 19 H s       :     0.779216  s :     0.779216

 20 C s       :     3.351956  s :     3.351956
      pz      :     0.947280  p :     2.495229
      px      :     0.750087
      py      :     0.797862

 21 H s       :     0.780005  s :     0.780005

 22 C s       :     3.372552  s :     3.372552
      pz      :     1.101702  p :     3.107624
      px      :     1.102872
      py      :     0.903051

 23 C s       :     3.327480  s :     3.327480
      pz      :     1.084248  p :     3.100325
      px      :     0.891513
      py      :     1.124565

 24 H s       :     0.788144  s :     0.788144

 25 H s       :     0.792693  s :     0.792693

 26 C s       :     3.349703  s :     3.349703
      pz      :     1.175703  p :     3.047056
      px      :     0.979368
      py      :     0.891986

 27 H s       :     0.791390  s :     0.791390

 28 H s       :     0.782561  s :     0.782561

 29 C s       :     3.317602  s :     3.317602
      pz      :     0.868521  p :     2.677742
      px      :     0.906293
      py      :     0.902928

 30 H s       :     0.776764  s :     0.776764

 31 H s       :     0.805445  s :     0.805445

 32 C s       :     3.362503  s :     3.362503
      pz      :     1.066600  p :     2.867269
      px      :     0.875098
      py      :     0.925570

 33 H s       :     0.772232  s :     0.772232

 34 C s       :     3.344013  s :     3.344013
      pz      :     1.190576  p :     3.089797
      px      :     0.948819
      py      :     0.950402

 35 H s       :     0.658704  s :     0.658704

 36 C s       :     3.338408  s :     3.338408
      pz      :     1.162332  p :     3.081017
      px      :     0.920600
      py      :     0.998085

 37 H s       :     0.791888  s :     0.791888

 38 H s       :     0.801783  s :     0.801783

 39 C s       :     3.342545  s :     3.342545
      pz      :     1.050819  p :     2.858372
      px      :     0.868409
      py      :     0.939145

 40 H s       :     0.788413  s :     0.788413

 41 H s       :     0.795530  s :     0.795530

 42 H s       :     0.790723  s :     0.790723

 43 C s       :     3.347423  s :     3.347423
      pz      :     1.029019  p :     2.892120
      px      :     0.887156
      py      :     0.975945

 44 C s       :     3.366282  s :     3.366282
      pz      :     0.966025  p :     3.263518
      px      :     1.159379
      py      :     1.138114

 45 H s       :     0.794530  s :     0.794530

 46 H s       :     0.791006  s :     0.791006

 47 H s       :     0.797857  s :     0.797857

 48 H s       :     0.780120  s :     0.780120

 49 C s       :     3.348445  s :     3.348445
      pz      :     1.137512  p :     3.272222
      px      :     1.144239
      py      :     0.990472

 50 C s       :     3.347696  s :     3.347696
      pz      :     0.867966  p :     2.831851
      px      :     0.975748
      py      :     0.988137

 51 C s       :     3.351271  s :     3.351271
      pz      :     0.873173  p :     2.832580
      px      :     0.964970
      py      :     0.994437

 52 H s       :     0.782601  s :     0.782601

 53 H s       :     0.777828  s :     0.777828

 54 C s       :     3.339744  s :     3.339744
      pz      :     1.002190  p :     2.892365
      px      :     0.910936
      py      :     0.979239

 55 C s       :     3.348173  s :     3.348173
      pz      :     1.077051  p :     3.285089
      px      :     1.103116
      py      :     1.104921

 56 C s       :     3.311380  s :     3.311380
      pz      :     1.007318  p :     2.887972
      px      :     0.904809
      py      :     0.975845

 57 H s       :     0.789043  s :     0.789043

 58 H s       :     0.787507  s :     0.787507

 59 C s       :     3.341553  s :     3.341553
      pz      :     1.067607  p :     3.271899
      px      :     1.100167
      py      :     1.104125

 60 C s       :     3.341905  s :     3.341905
      pz      :     1.112716  p :     3.271268
      px      :     1.025412
      py      :     1.133140

 61 H s       :     0.808714  s :     0.808714

 62 H s       :     0.786032  s :     0.786032

 63 H s       :     0.796084  s :     0.796084

 64 H s       :     0.791451  s :     0.791451

 65 H s       :     0.807507  s :     0.807507

 66 H s       :     0.793277  s :     0.793277

 67 H s       :     0.789936  s :     0.789936

 68 H s       :     0.794223  s :     0.794223

 69 H s       :     0.807442  s :     0.807442

 70 H s       :     0.790957  s :     0.790957

 71 H s       :     0.804291  s :     0.804291

 72 H s       :     0.795382  s :     0.795382


------------------------
MULLIKEN OVERLAP CHARGES
------------------------
B(  0-C ,  1-C ) :   0.5256 B(  0-C ,  2-C ) :  -0.1806 B(  0-C ,  3-H ) :  -0.0794 
B(  0-C ,  4-H ) :  -0.0861 B(  0-C ,  5-C ) :   0.4152 B(  0-C ,  6-C ) :  -0.1425 
B(  0-C , 14-C ) :   0.9482 B(  0-C , 15-C ) :  -0.2018 B(  0-C , 18-C ) :  -0.1859 
B(  0-C , 19-H ) :  -0.0751 B(  1-C ,  2-C ) :   0.5264 B(  1-C ,  3-H ) :   0.8093 
B(  1-C ,  4-H ) :   0.7736 B(  1-C ,  5-C ) :  -0.1411 B(  1-C ,  7-C ) :  -0.1579 
B(  1-C , 12-O ) :  -0.1098 B(  1-C , 13-H ) :  -0.0571 B(  1-C , 14-C ) :  -0.1144 
B(  2-C ,  3-H ) :  -0.0590 B(  2-C ,  4-H ) :  -0.0537 B(  2-C ,  6-C ) :  -0.1578 
B(  2-C ,  7-C ) :   0.5149 B(  2-C , 10-H ) :  -0.0625 B(  2-C , 11-H ) :  -0.0697 
B(  2-C , 12-O ) :   0.6968 B(  2-C , 13-H ) :   0.8216 B(  2-C , 35-H ) :  -0.1152 
B(  5-C ,  6-C ) :   0.5312 B(  5-C ,  7-C ) :  -0.1571 B(  5-C ,  8-H ) :  -0.0728 
B(  5-C ,  9-H ) :  -0.0938 B(  5-C , 14-C ) :  -0.1992 B(  5-C , 15-C ) :   1.0634 
B(  5-C , 16-H ) :  -0.0994 B(  5-C , 17-H ) :  -0.0951 B(  6-C ,  7-C ) :   0.5527 
B(  6-C ,  8-H ) :   0.8227 B(  6-C ,  9-H ) :   0.7937 B(  6-C , 10-H ) :  -0.0741 
B(  6-C , 11-H ) :  -0.0561 B(  6-C , 15-C ) :  -0.1296 B(  7-C ,  9-H ) :  -0.0776 
B(  7-C , 10-H ) :   0.7762 B(  7-C , 11-H ) :   0.8043 B(  7-C , 12-O ) :  -0.1079 
B(  7-C , 13-H ) :  -0.0830 B( 12-O , 35-H ) :   0.6663 B( 14-C , 18-C ) :   0.6110 
B( 14-C , 19-H ) :   0.8205 B( 14-C , 20-C ) :  -0.1946 B( 14-C , 21-H ) :  -0.0736 
B( 15-C , 16-H ) :   0.8138 B( 15-C , 17-H ) :   0.8065 B( 18-C , 19-H ) :  -0.0601 
B( 18-C , 20-C ) :   0.9192 B( 18-C , 21-H ) :   0.8331 B( 18-C , 22-C ) :  -0.1506 
B( 18-C , 32-C ) :  -0.1487 B( 20-C , 21-H ) :  -0.0826 B( 20-C , 22-C ) :   0.5324 
B( 20-C , 23-C ) :  -0.1715 B( 20-C , 24-H ) :  -0.0669 B( 20-C , 25-H ) :  -0.0925 
B( 20-C , 29-C ) :  -0.1237 B( 20-C , 32-C ) :   0.5175 B( 20-C , 33-H ) :  -0.0920 
[...]
        0.0000         1.1637        0.0000
        0.0000         0.0000        1.1637

 Diagonalized JT*J matrix:
 
 J[55,60](FC)             1.164            1.164            1.164  iso=      1.164
                ---------------  ---------------  ---------------  ---------------
 J[55,60](Total)          1.164            1.164            1.164  iso=      1.164



-----------------------------------------------------------
 NUCLEUS A = C   56 NUCLEUS B = C   59 
 ( 13C  gnA =  1.405  13C  gnB =  1.405) r(AB) =     1.5321
-----------------------------------------------------------

Fermi-contact contribution to J (Hz):
       27.1148         0.0000        0.0000
        0.0000        27.1148        0.0000
        0.0000         0.0000       27.1148

Total spin-spin coupling tensor J (Hz):
       27.1148         0.0000        0.0000
        0.0000        27.1148        0.0000
        0.0000         0.0000       27.1148

 Diagonalized JT*J matrix:
 
 J[56,59](FC)            27.115           27.115           27.115  iso=     27.115
                ---------------  ---------------  ---------------  ---------------
 J[56,59](Total)         27.115           27.115           27.115  iso=     27.115



-----------------------------------------------------------
 NUCLEUS A = C   56 NUCLEUS B = C   60 
 ( 13C  gnA =  1.405  13C  gnB =  1.405) r(AB) =     1.5321
-----------------------------------------------------------

Fermi-contact contribution to J (Hz):
       26.6072         0.0000        0.0000
        0.0000        26.6072        0.0000
        0.0000         0.0000       26.6072

Total spin-spin coupling tensor J (Hz):
       26.6072         0.0000        0.0000
        0.0000        26.6072        0.0000
        0.0000         0.0000       26.6072

 Diagonalized JT*J matrix:
 
 J[56,60](FC)            26.607           26.607           26.607  iso=     26.607
                ---------------  ---------------  ---------------  ---------------
 J[56,60](Total)         26.607           26.607           26.607  iso=     26.607



-----------------------------------------------------------
 NUCLEUS A = C   59 NUCLEUS B = C   60 
 ( 13C  gnA =  1.405  13C  gnB =  1.405) r(AB) =     2.5012
-----------------------------------------------------------

Fermi-contact contribution to J (Hz):
       -0.9413         0.0000        0.0000
        0.0000        -0.9413        0.0000
        0.0000         0.0000       -0.9413

Total spin-spin coupling tensor J (Hz):
       -0.9413         0.0000        0.0000
        0.0000        -0.9413        0.0000
        0.0000         0.0000       -0.9413

 Diagonalized JT*J matrix:
 
 J[59,60](FC)            -0.941           -0.941           -0.941  iso=     -0.941
                ---------------  ---------------  ---------------  ---------------
 J[59,60](Total)         -0.941           -0.941           -0.941  iso=     -0.941



-----------------------------------------------------------------------------
                SUMMARY OF ISOTROPIC COUPLING CONSTANTS J (Hz)                
-----------------------------------------------------------------------------
                  0 C        1 C        2 C        5 C        6 C        7 C  
      0 C        0.000     33.211     -3.819     41.364     -0.937      2.276
      1 C       33.211      0.000     23.421     -1.251      1.446     -0.682
      2 C       -3.819     23.421      0.000      2.279     -2.809     25.897
      5 C       41.364     -1.251      2.279      0.000     30.388     -2.805
      6 C       -0.937      1.446     -2.809     30.388      0.000     24.865
      7 C        2.276     -0.682     25.897     -2.805     24.865      0.000
     14 C       69.388     -0.389      2.829     -3.054      2.173     -0.622
     15 C       -3.412      2.425     -0.880     64.481     -1.041      2.599
     18 C       -2.428      4.183     -1.125      3.156     -0.821      0.194
     20 C        6.862     -1.119      1.119     -1.385      0.613     -0.105
     22 C       -0.920      0.331     -0.337      0.425     -0.183      0.038
     23 C        0.805     -0.282      0.280     -0.331      0.150      0.000
     26 C       -0.087      0.038      0.000      0.046      0.000      0.000
     29 C        1.139     -0.360      0.000     -0.435      0.203      0.000
     32 C       -1.129      0.550     -0.385      0.472     -0.216      0.046
     34 C        0.020     -0.014      0.012     -0.015      0.006     -0.002
     36 C       -0.015      0.000      0.000      0.016     -0.008      0.000
     39 C       -0.072      0.000      0.000      0.031      0.000      0.000
     43 C        0.000      0.000      0.000      0.000      0.000      0.000
     44 C        0.009     -0.003      0.000     -0.003     -0.003      0.000
     49 C        0.000      0.000      0.000      0.000      0.000      0.000
     50 C        0.000      0.000      0.000      0.000      0.000      0.000
     51 C        0.000      0.000      0.000      0.000      0.000      0.000
     54 C        0.000      0.000      0.000      0.000      0.000      0.000
     55 C        0.000      0.000      0.000      0.000      0.000      0.000
     56 C        0.000      0.000      0.000      0.000      0.000      0.000
     59 C        0.000      0.000      0.000      0.000      0.000      0.000
     60 C        0.000      0.000      0.000      0.000      0.000      0.000
                 14 C       15 C       18 C       20 C       22 C       23 C  
      0 C       69.388     -3.412     -2.428      6.862     -0.920      0.805
      1 C       -0.389      2.425      4.183     -1.119      0.331     -0.282
      2 C        2.829     -0.880     -1.125      1.119     -0.337      0.280
      5 C       -3.054     64.481      3.156     -1.385      0.425     -0.331
      6 C        2.173     -1.041     -0.821      0.613     -0.183      0.150
      7 C       -0.622      2.599      0.194     -0.105      0.038      0.000
     14 C        0.000      3.097     54.213     -2.653      3.864     -0.892
     15 C        3.097      0.000     -1.175      1.017     -0.276      0.247
     18 C       54.213     -1.175      0.000     69.911     -2.201      2.356
     20 C       -2.653      1.017     69.911      0.000     32.177     -2.925
     22 C        3.864     -0.276     -2.201     32.177      0.000     24.411
     23 C       -0.892      0.247      2.356     -2.925     24.411      0.000
     26 C        0.132     -0.032     -0.352      1.040     -1.927     25.464
     29 C       -1.098      0.326      2.284     -2.384      1.092     -2.217
     32 C        4.377     -0.321     -1.302     37.002     -0.281      1.517
     34 C        0.069      0.004      2.441     -1.351      1.597     -0.263
     36 C        0.016     -0.014     -0.152      3.557      0.058      0.167
     39 C        0.261     -0.023     -0.038      2.963     -0.336      2.554
     43 C        0.009      0.016      0.284      0.181      0.002     -0.113
     44 C        0.003      0.023     -0.057      0.674     -0.134      0.638
     49 C       -0.001      0.000     -0.010     -0.032      0.141      0.037
     50 C        0.000      0.000      0.030      0.143     -0.009      0.138
     51 C        0.000      0.000     -0.006      0.041     -0.002     -0.007
     54 C        0.000      0.000      0.000      0.000      0.000      0.000
     55 C        0.000      0.000      0.000      0.000      0.000      0.000
     56 C        0.000      0.000      0.000      0.000      0.000      0.000
     59 C        0.000      0.000      0.000      0.000      0.000      0.000
     60 C        0.000      0.000      0.000      0.000      0.000      0.000
                 26 C       29 C       32 C       34 C       36 C       39 C  
      0 C       -0.087      1.139     -1.129      0.020     -0.015     -0.072
      1 C        0.038     -0.360      0.550     -0.014      0.000      0.000
      2 C        0.000      0.000     -0.385      0.012      0.000      0.000
      5 C        0.046     -0.435      0.472     -0.015      0.016      0.031
      6 C        0.000      0.203     -0.216      0.006     -0.008      0.000
      7 C        0.000      0.000      0.046     -0.002      0.000      0.000
     14 C        0.132     -1.098      4.377      0.069      0.016      0.261
     15 C       -0.032      0.326     -0.321      0.004     -0.014     -0.023
     18 C       -0.352      2.284     -1.302      2.441     -0.152     -0.038
     20 C        1.040     -2.384     37.002     -1.351      3.557      2.963
     22 C       -1.927      1.092     -0.281      1.597      0.058     -0.336
     23 C       25.464     -2.217      1.517     -0.263      0.167      2.554
     26 C        0.000     27.881     -0.965      2.296      3.031     -0.611
     29 C       27.881      0.000     23.300      0.965      0.513     28.988
     32 C       -0.965     23.300      0.000     27.902      1.344      3.562
     34 C        2.296      0.965     27.902      0.000     25.887      0.018
     36 C        3.031      0.513      1.344     25.887      0.000     26.181
     39 C       -0.611     28.988      3.562      0.018     26.181      0.000
     43 C       -0.007     -0.708      2.755      1.646      0.205     30.692
     44 C       -0.620     27.346     -0.945      0.843      0.273     -1.218
     49 C        0.369      0.247     -0.005     -0.001      3.199     -1.078
     50 C       -0.090      3.327      0.010     -0.066      0.513     -1.672
     51 C        0.021     -0.125      0.036      0.018      0.183      1.988
     54 C        0.003      0.003     -0.003     -0.001      0.035     -0.123
     55 C       -0.003      0.051      0.001     -0.002      0.003      0.070
     56 C        0.002     -0.034      0.004      0.000     -0.051      0.078
     59 C       -0.000      0.000      0.001     -0.001     -0.003      0.009
     60 C        0.000      0.000      0.000      0.000      0.002     -0.005
                 43 C       44 C       49 C       50 C       51 C       54 C  
      0 C        0.000      0.009      0.000      0.000      0.000      0.000
      1 C        0.000     -0.003      0.000      0.000      0.000      0.000
      2 C        0.000      0.000      0.000      0.000      0.000      0.000
      5 C        0.000     -0.003      0.000      0.000      0.000      0.000
      6 C        0.000     -0.003      0.000      0.000      0.000      0.000
      7 C        0.000      0.000      0.000      0.000      0.000      0.000
     14 C        0.009      0.003     -0.001      0.000      0.000      0.000
     15 C        0.016      0.023      0.000      0.000      0.000      0.000
     18 C        0.284     -0.057     -0.010      0.030     -0.006      0.000
     20 C        0.181      0.674     -0.032      0.143      0.041      0.000
     22 C        0.002     -0.134      0.141     -0.009     -0.002      0.000
     23 C       -0.113      0.638      0.037      0.138     -0.007      0.000
     26 C       -0.007     -0.620      0.369     -0.090      0.021      0.003
     29 C       -0.708     27.346      0.247      3.327     -0.125      0.003
     32 C        2.755     -0.945     -0.005      0.010      0.036     -0.003
     34 C        1.646      0.843     -0.001     -0.066      0.018     -0.001
     36 C        0.205      0.273      3.199      0.513      0.183      0.035
     39 C       30.692     -1.218     -1.078     -1.672      1.988     -0.123
     43 C        0.000      1.456     25.049     35.607     -1.543      3.408
     44 C        1.456      0.000     -0.084     -0.152      0.130      0.022
     49 C       25.049     -0.084      0.000     -3.362      3.515     -1.041
     50 C       35.607     -0.152     -3.362      0.000     68.451     -1.687
     51 C       -1.543      0.130      3.515     68.451      0.000     36.668
     54 C        3.408      0.022     -1.041     -1.687     36.668      0.000
     55 C       -0.034      0.001      0.105      3.091     -1.867     27.991
     56 C       -0.805      0.022      1.633      3.009     -2.690     25.303
     59 C       -0.029     -0.000      0.041      0.139      1.677     -0.833
     60 C        0.179      0.000      0.037      0.078      2.923     -0.665
                 55 C       56 C       59 C       60 C  
      0 C        0.000      0.000      0.000      0.000
      1 C        0.000      0.000      0.000      0.000
      2 C        0.000      0.000      0.000      0.000
      5 C        0.000      0.000      0.000      0.000
      6 C        0.000      0.000      0.000      0.000
      7 C        0.000      0.000      0.000      0.000
     14 C        0.000      0.000      0.000      0.000
     15 C        0.000      0.000      0.000      0.000
     18 C        0.000      0.000      0.000      0.000
     20 C        0.000      0.000      0.000      0.000
     22 C        0.000      0.000      0.000      0.000
     23 C        0.000      0.000      0.000      0.000
     26 C       -0.003      0.002     -0.000      0.000
     29 C        0.051     -0.034      0.000      0.000
     32 C        0.001      0.004      0.001      0.000
     34 C       -0.002      0.000     -0.001      0.000
     36 C        0.003     -0.051     -0.003      0.002
     39 C        0.070      0.078      0.009     -0.005
     43 C       -0.034     -0.805     -0.029      0.179
     44 C        0.001      0.022     -0.000      0.000
     49 C        0.105      1.633      0.041      0.037
     50 C        3.091      3.009      0.139      0.078
     51 C       -1.867     -2.690      1.677      2.923
     54 C       27.991     25.303     -0.833     -0.665
     55 C        0.000     -0.801      2.653      1.164
     56 C       -0.801      0.000     27.115     26.607
     59 C        2.653     27.115      0.000     -0.941
     60 C        1.164     26.607     -0.941      0.000

NMR spin-spin coupling calculation done in   0.3 sec 

Maximum memory used throughout the entire PROP-calculation: 34.3 MB

--------------------------------
SUGGESTED CITATIONS FOR THIS RUN
--------------------------------

Below you find a list of papers that are relevant to this ORCA run
We neither can nor want to force you to cite these papers, but we appreciate if you do
You receive ORCA, which is the product of decades of hard work by many enthusiastic individuals, for free
The only thing we kindly ask in return is that you cite our papers,
We deeply appreciate it, if you show your appreciation for ORCA by not just citing the generic ORCA reference.

Please note that relegating all ORCA citations to the supporting information does *not* help us.
SI sections are not indexed - citations you put there will not count into any citation statistics
But we need these citations in order to attract the funding resources that allow us to do what we are doing

Therefore, if you are a happy ORCA user, please consider citing a few of the papers listed below in the main body of your paper

In addition to the list printed below, the program has created the file inpJ.bibtex that contains the list in bibtex format
You can import this file easily into all common literature databanks and citation aid programs


List of essential papers. We consider these as the minimum necessary citations

  1. Neese,F.
     Software update: the ORCA program system, version 5.0
     WIRES Comput. Molec. Sci., 2022 12(1)e1606
     doi.org/10.1002/wcms.1606

List of papers to cite with high priority. The work reported in these papers was absolutely
necessary for this run to complete.
Our perspective: the developers of density functionals and basis sets usually get cited in chemistry papers
Good! But without the algorithms to do something with them, the functionals or basis sets would not do anything.
Hence, in our opinion, the algorithm design and method developments papers are equally worthy of getting cited

  1. Neese,F.
     An improvement of the resolution of the identity approximation for the formation of the Coulomb matrix
     J. Comp. Chem., 2003 24(14)1740-1747
     doi.org/10.1002/jcc.10318
  2. Neese,F.; Wennmohs,F.; Hansen,A.; Becker,U.
     Efficient, approximate and parallel Hartree-Fock and hybrid DFT calculations. A 'chain-of-spheres' algorithm for the Hartree-Fock exchange
     Chem. Phys., 2009 356(1-3)98-109
     doi.org/10.1016/j.chemphys.2008.10.036
  3. Stoychev,G.L.; Auer,A.A.; Izsak,R.; Neese,F.
     Self-Consistent Field Calculation of Nuclear Magnetic Resonance Chemical Shielding Constants Using Gauge-Including Atomic Orbitals and Approximate Two-Electron Integrals
     J. Chem. Theory Comput., 2018 14(2)619-637
     doi.org/10.1021/acs.jctc.7b01006
  4. Garcia-Rates,M.; Neese,F.
     Effect of the Solute Cavity on the Solvation Energy and its Derivatives within the Framework of the Gaussian Charge Scheme
     J. Comput. Chem., 2020 41 922-939
     doi.org/10.1002/jcc.26139
  5. Helmich-Paris,B.; de Souza,B.; Neese,F.; Izsák,R.
     An improved chain of spheres for exchange algorithm
     J. Chem. Phys., 2021 155 104109
     doi.org/doi: 10.1063/5.0058766.
  6. Neese,F.
     The SHARK Integral Generation and Digestion System
     J. Comp. Chem., 2022  1-16
     doi.org/10.1002/jcc.26942
  7. Grimme,S.; Bannwarth,C.; Dohm,S.; Hansen,A.; Pisarek,J.; Pracht,P.; Seibert,J.; Neese,F.
     Fully Automated Quantum-Chemistry-Based Computation of Spin-Spin-Coupled Nuclear Magnetic Resonance Spectra
     Angew. Chem., Int. Ed., 2017 56 14763-14769
     doi.org/10.1002/anie.201708266
  8. Caldeweyher,E.; Bannwarth,C.; Grimme,S.
     Extension of the D3 dispersion coefficient model
     J. Chem. Phys., 2017 147 034112-XXXX
     doi.org/10.1063/1.4993215
  9. Caldeweyher,E.; Ehlert,S.; Hansen,A.; Neugebauer,H.; Spicher,S.; Bannwarth,C.; Grimme,S.
     A generally applicable atomic-charge dependent London dispersion correction
     J. Chem. Phys., 2019 150 154122-XXXX
     doi.org/10.1063/1.5090222
 10. Caldeweyher,E.; Mewes,J.; Ehlert,S.; Grimme,S.
     Extension and evaluation of the D4 London-dispersion model for periodic systems
     Phys. Chem. Chem. Phys., 2020 22(16)8499-8512
     doi.org/10.1039/D0CP00502A

List of suggested additional citations. These are papers that are important in the 'surrounding' of 
of this run, or papers that preceded the highly important papers. If you like your results we are grateful for a citation.

  1. Izsak,R.; Neese,F.
     An overlap fitted chain of spheres exchange method
     J. Chem. Phys., 2011 135 144105
     doi.org/10.1063/1.3646921
  2. Izsak,R.; Hansen,A.; Neese,F.
     The resolution of identity and chain of spheres approximations for the LPNO-CCSD singles Fock term
     Molec. Phys., 2012 110 2413-2417
     doi.org/10.1080/00268976.2012.687466
  3. Neese,F.
     The ORCA program system
     WIRES Comput. Molec. Sci., 2012 2(1)73-78
     doi.org/10.1002/wcms.81
  4. Izsak,R.; Neese,F.; Klopper,W.
     Robust fitting techniques in the chain of spheres approximation to the Fock exchange: The role of the complementary space
     J. Chem. Phys., 2013 139 
     doi.org/10.1063/1.4819264
  5. Neese,F.
     Software update: the ORCA program system, version 4.0
     WIRES Comput. Molec. Sci., 2018 8(1)1-6
     doi.org/10.1002/wcms.1327
  6. Neese,F.; Wennmohs,F.; Becker,U.; Riplinger,C.
     The ORCA quantum chemistry program package
     J. Chem. Phys., 2020 152 Art. No. L224108
     doi.org/10.1063/5.0004608

Timings for individual modules:

Sum of individual times          ...      118.969 sec (=   1.983 min)
Startup calculation              ...        4.082 sec (=   0.068 min)   3.4 %
SCF iterations                   ...       18.818 sec (=   0.314 min)  15.8 %
Property integrals               ...        0.664 sec (=   0.011 min)   0.6 %
SCF Response                     ...       94.796 sec (=   1.580 min)  79.7 %
Property calculations            ...        0.610 sec (=   0.010 min)   0.5 %
                             ****ORCA TERMINATED NORMALLY****
TOTAL RUN TIME: 0 days 0 hours 1 minutes 59 seconds 308 msec
