14
 Energy =        -20.799725156874 Eh        #Cluster:     1
  C     -2.1440941222     -0.6006178293      0.3314345629    
  C     -0.8799612565      0.1217294867     -0.0366681149    
  H     -2.0833014308     -1.6405237217      0.0280137229    
  H     -2.9935559757     -0.1068464175     -0.1320686294    
  H     -2.2689622275     -0.5471838337      1.4116322540    
  O     -0.7676476463      1.3256034049     -0.1139914413    
  O      0.1152376772     -0.7306638741     -0.2713928057    
  C      1.4089369763     -0.1993104544     -0.5950772306    
  C      2.2248833849      0.0681763415      0.6609662021    
  H      1.2752752555      0.7220899809     -1.1709355365    
  H      1.8778514775     -0.9657515237     -1.2147800707    
  H      1.7462490004      0.8398502931      1.2602161791    
  H      3.2178211719      0.4063623503      0.3800843750    
  H      2.3098888805     -0.8392361528      1.2539270742    
14
 Energy =        -20.799324813968 Eh        #Cluster:     2
  C     -2.1413309504     -0.7390399191      0.2380270983    
  C     -0.9790498991      0.1639657863     -0.0592566442    
  H     -2.9230360511     -0.1734687378      0.7375225437    
  H     -1.8172046295     -1.5774428913      0.8455703719    
  H     -2.5412988251     -1.1085361603     -0.7045899670    
  O     -1.0673942666      1.3046519252     -0.4603142508    
  O      0.1831257621     -0.4427068082      0.1599555706    
  C      1.3839562125      0.2981880200     -0.1078106511    
  C      2.5731702456     -0.5802355077      0.2309624927    
  H      1.3699775341      1.2121063863      0.4962443855    
  H      1.3840117494      0.5896049904     -1.1639467528    
  H      2.5437972021     -0.8610374758      1.2802060623    
  H      3.4908333421     -0.0350617497      0.0323304824    
  H      2.5550796630     -1.4829728187     -0.3735212738    
14
 Energy =        -20.799213265253 Eh        #Cluster:     3
  C     -2.1325389496     -0.6933477260      0.3354211537    
  C     -0.9649585156      0.1620004134     -0.0662262868    
  H     -3.0320598175     -0.0875039559      0.3778892999    
  H     -1.9341098053     -1.1482512406      1.3022404754    
  H     -2.2565549163     -1.4904962010     -0.3938804405    
  O     -1.0353264404      1.3288379943     -0.3858126422    
  O      0.1715084474     -0.5274664777     -0.0290010198    
  C      1.3981700683      0.1356861530     -0.3730265832    
  C      2.5137444546     -0.4026299164      0.5054079669    
  H      1.2612866562      1.2139528575     -0.2402156774    
  H      1.5981547879     -0.0666518473     -1.4305037773    
  H      2.6043152519     -1.4775684653      0.3749629625    
  H      2.3060384236     -0.1926617450      1.5515098253    
  H      3.4498577027      0.0718167787      0.2267857105    
