14
 Energy =        -20.7895958347 Eh        #Cluster:     1
  C     -2.1441604406     -0.5973412338      0.3321650127    
  C     -0.8868539502      0.1297790270     -0.0672232505    
  H     -2.1066295719     -1.6264010203     -0.0107918862    
  H     -3.0104007975     -0.0836643861     -0.0746161196    
  H     -2.2179853185     -0.5889641466      1.4183660231    
  O     -0.7931912377      1.3237991125     -0.2071091117    
  O      0.1187691863     -0.7284484037     -0.2467516797    
  C      1.4048753175     -0.2002610693     -0.5809820596    
  C      2.2308340566      0.0658128103      0.6691793473    
  H      1.2691682292      0.7230165962     -1.1532562875    
  H      1.8747366597     -0.9621338148     -1.2066359687    
  H      1.7539723587      0.8325656407      1.2754622631    
  H      3.2213193736      0.4087924708      0.3847107938    
  H      2.3241673001     -0.8428735326      1.2588434649    
14
 Energy =        -20.7891000447 Eh        #Cluster:     2
  C     -2.1388673694     -0.7381652314      0.2370455599    
  C     -0.9765762065      0.1715954062     -0.0620308288    
  H     -2.9211889159     -0.1779876881      0.7417832807    
  H     -1.8122209405     -1.5767058878      0.8435723439    
  H     -2.5415420583     -1.1099989625     -0.7035428446    
  O     -1.0672642647      1.3081923917     -0.4572548134    
  O      0.1839018930     -0.4438640527      0.1568964402    
  C      1.3796954427      0.2962841989     -0.1091905423    
  C      2.5702392359     -0.5794764196      0.2314972204    
  H      1.3683594369      1.2108166206      0.4940505511    
  H      1.3854485974      0.5872901503     -1.1654982262    
  H      2.5402130025     -0.8607177071      1.2805997891    
  H      3.4896683440     -0.0360017913      0.0349154681    
  H      2.5547708920     -1.4832459878     -0.3714639306    
14
 Energy =        -20.7895958966 Eh        #Cluster:     3
  C     -2.0784951647     -0.6879197627      0.2944381976    
  C     -0.8226066665      0.0836721467     -0.0150105594    
  H     -2.1392505430     -0.8319861719      1.3718845193    
  H     -2.0507648215     -1.6588237545     -0.1898694696    
  H     -2.9470116768     -0.1192928422     -0.0249600258    
  O     -0.7249002429      1.2852473643      0.0116842019    
  O      0.1767985395     -0.7442190573     -0.3246325476    
  C      1.4612636815     -0.1785672308     -0.5976670547    
  C      2.3026719215     -0.0903861029      0.6674814800    
  H      1.3233072698      0.8155308815     -1.0349398281    
  H      1.9207014759     -0.8478031303     -1.3282665211    
  H      2.3994559311     -1.0723282418      1.1240630766    
  H      1.8354373326      0.5856794634      1.3798619787    
  H      3.2909203114      0.2869130603      0.4214835193    
