14
 Energy =        -20.799725156875 Eh        #Cluster:     1
  C     -2.1440941240     -0.6006178293      0.3314345629    
  C     -0.8799612576      0.1217294836     -0.0366681149    
  H     -2.0833014280     -1.6405237211      0.0280137226    
  H     -2.9935559770     -0.1068464159     -0.1320686322    
  H     -2.2689622274     -0.5471838291      1.4116322543    
  O     -0.7676476501      1.3256034017     -0.1139914406    
  O      0.1152376776     -0.7306638770     -0.2713928040    
  C      1.4089369750     -0.1993104551     -0.5950772303    
  C      2.2248833861      0.0681763421      0.6609662019    
  H      1.2752752565      0.7220899822     -1.1709355348    
  H      1.8778514769     -0.9657515226     -1.2147800713    
  H      1.7462490026      0.8398502926      1.2602161807    
  H      3.2178211722      0.4063623511      0.3800843739    
  H      2.3098888823     -0.8392361530      1.2539270730    
14
 Energy =        -20.799324813968 Eh        #Cluster:     2
  C     -2.1413309514     -0.7390399190      0.2380270979    
  C     -0.9790498981      0.1639657840     -0.0592566408    
  H     -2.9230360504     -0.1734687352      0.7375225445    
  H     -1.8172046325     -1.5774428931      0.8455703684    
  H     -2.5412988240     -1.1085361550     -0.7045899706    
  O     -1.0673942646      1.3046519233     -0.4603142459    
  O      0.1831257624     -0.4427068114      0.1599555722    
  C      1.3839562114      0.2981880187     -0.1078106521    
  C      2.5731702463     -0.5802355063      0.2309624932    
  H      1.3699775324      1.2121063860      0.4962443835    
  H      1.3840117472      0.5896049855     -1.1639467549    
  H      2.5437972045     -0.8610374721      1.2802060625    
  H      3.4908333412     -0.0350617473      0.0323304806    
  H      2.5550796647     -1.4829728185     -0.3735212709    
14
 Energy =        -20.799213265253 Eh        #Cluster:     3
  C     -2.1325389496     -0.6933477262      0.3354211534    
  C     -0.9649585149      0.1620004133     -0.0662262847    
  H     -3.0320598172     -0.0875039561      0.3778892986    
  H     -1.9341098067     -1.1482512417      1.3022404750    
  H     -2.2565549152     -1.4904961995     -0.3938804432    
  O     -1.0353264393      1.3288379948     -0.3858126385    
  O      0.1715084472     -0.5274664782     -0.0290010184    
  C      1.3981700680      0.1356861524     -0.3730265832    
  C      2.5137444550     -0.4026299157      0.5054079669    
  H      1.2612866555      1.2139528566     -0.2402156796    
  H      1.5981547869     -0.0666518488     -1.4305037771    
  H      2.6043152505     -1.4775684654      0.3749629644    
  H      2.3060384244     -0.1926617419      1.5515098252    
  H      3.4498577032      0.0718167781      0.2267857083    
