14
 Energy =        -20.8001804374 Eh        #Cluster:     1
  C     -2.1439788595     -0.6003901756      0.3314025168    
  C     -0.8800310474      0.1207878211     -0.0368325122    
  H     -2.0837221468     -1.6402246746      0.0274107522    
  H     -2.9929931765     -0.1054678160     -0.1317430627    
  H     -2.2678508232     -0.5469317513      1.4116993906    
  O     -0.7667962856      1.3243061116     -0.1130054726    
  O      0.1152708507     -0.7318919579     -0.2717761840    
  C      1.4090877891     -0.1994994695     -0.5953843652    
  C      2.2242736530      0.0685487681      0.6609823977    
  H      1.2750025184      0.7219201374     -1.1707254969    
  H      1.8781248766     -0.9658249921     -1.2151582487    
  H      1.7454605694      0.8400926347      1.2601438890    
  H      3.2172152494      0.4070571591      0.3802755313    
  H      2.3095579977     -0.8388037446      1.2540714059    
14
 Energy =        -20.7997453900 Eh        #Cluster:     2
  C     -2.1414427149     -0.7389069894      0.2379401058    
  C     -0.9791596069      0.1632249566     -0.0586282305    
  H     -2.9226803099     -0.1726765199      0.7374932446    
  H     -1.8175386828     -1.5776482038      0.8452662106    
  H     -2.5410761318     -1.1073293995     -0.7053015712    
  O     -1.0670063858      1.3036269792     -0.4595745859    
  O      0.1832897936     -0.4437438126      0.1603551490    
  C      1.3838341188      0.2983602036     -0.1080300346    
  C      2.5730729042     -0.5798849133      0.2309336544    
  H      1.3697066599      1.2120921683      0.4960318146    
  H      1.3836031910      0.5889497764     -1.1642333889    
  H      2.5440462683     -0.8606053598      1.2802899980    
  H      3.4906701908     -0.0345141014      0.0320554514    
  H      2.5553177946     -1.4829297450     -0.3732183497    
14
 Energy =        -20.7996186107 Eh        #Cluster:     3
  C     -2.1327616562     -0.6931080182      0.3352477334    
  C     -0.9649630757      0.1613613399     -0.0653014869    
  H     -3.0318484680     -0.0865014858      0.3772227937    
  H     -1.9345883414     -1.1480888959      1.3021391416    
  H     -2.2562443285     -1.4898855687     -0.3946407047    
  O     -1.0347525772      1.3278795949     -0.3846466210    
  O      0.1717877155     -0.5284589625     -0.0282525415    
  C      1.3981513132      0.1356615889     -0.3734003783    
  C      2.5137513622     -0.4023480430      0.5052131013    
  H      1.2608059959      1.2136806152     -0.2403099082    
  H      1.5975872160     -0.0672472344     -1.4308495405    
  H      2.6050528057     -1.4774136011      0.3751541124    
  H      2.3058472743     -0.1924466510      1.5513607114    
  H      3.4497021120      0.0726319434      0.2266145544    
