73
 Energy =        -86.488405621428 Eh        #Cluster:     1
  C     -4.9970955600      0.2151337400     -0.4994928600    
  C     -6.4448492500     -0.1838003900     -0.6619555300    
  C     -7.3540414000      0.7603346300      0.1350759100    
  H     -6.6008698400     -1.2184816400     -0.3361250800    
  H     -6.7342648200     -0.1147645300     -1.7210794900    
  C     -4.7238973500      1.6309414100     -0.8317393400    
  C     -5.6547439200      2.6202012000     -0.1657949900    
  C     -7.1268698700      2.2074689000     -0.3051145900    
  H     -5.4959495400      3.6237627900     -0.5746624500    
  H     -5.4014204500      2.6660448500      0.9043253400    
  H     -7.4374041800      2.3018160400     -1.3546254900    
  H     -7.7625319600      2.8748051100      0.2883288900    
  O     -7.1430383300      0.5953810000      1.5472824700    
  H     -8.4031109300      0.4869088500     -0.0327242500    
  C     -4.0772516200     -0.6583761700     -0.0250680800    
  C     -3.7627750400      2.0106351300     -1.6808234700    
  H     -3.1153103500      1.2835236000     -2.1636767400    
  H     -3.6100863700      3.0606795500     -1.9189756700    
  C     -2.6936961000     -0.3628925300      0.2677947700    
  H     -4.4318995900     -1.6678537100      0.1797756900    
  C     -1.7432806500     -1.2495370200      0.6324500600    
  H     -2.4063349100      0.6832439100      0.1891654100    
  C     -1.9331742200     -2.7391576100      0.7642598800    
  C     -0.9259202000     -3.5166390500     -0.1057767000    
  H     -2.9511966100     -3.0527502800      0.5177221900    
  H     -1.7573360400     -3.0112407900      1.8171377800    
  C      0.5231174400     -3.0625083500      0.1173300700    
  H     -1.1957523100     -3.3921508300     -1.1621251000    
  H     -1.0131578200     -4.5878069900      0.1137968000    
  C      0.6813700100     -1.5461681200     -0.0598818500    
  H      1.1771646400     -3.6141505700     -0.5660944500    
  H      0.8320131600     -3.3267464000      1.1399705400    
  C     -0.3263467100     -0.8533960600      0.9133877800    
  H     -0.0768146900     -1.2659202900      1.9080531000    
  C      0.1010593600      0.6114888600      0.9122866200    
  H     -6.1892273200      0.5209515500      1.6935987800    
  C      1.6437218000      0.5402493100      0.8000005500    
  H     -0.2376311400      1.1395491400      1.8098153700    
  H     -0.3201419600      1.1392626200      0.0493589400    
  C      2.0122215700     -0.9350519700      0.4592789300    
  H      2.1365410400      0.8547408400      1.7252847700    
  H      2.0106273300      1.2095011100      0.0129905800    
  H      2.2529307200     -1.4625659700      1.3968637500    
  C      3.2648047400     -1.0110335500     -0.4372797700    
  C      0.4180836900     -1.1285237900     -1.5128486300    
  H      0.6359715000     -0.0676608600     -1.6722808300    
  H     -0.6264802400     -1.2930370400     -1.7948744900    
  H      1.0475702800     -1.7037256800     -2.2006510300    
  H      3.0545073000     -0.4671368800     -1.3699658600    
  C      3.6822884300     -2.4475341500     -0.7867348100    
  C      4.4138146500     -0.3222542500      0.2499079200    
  C      5.0835123000      0.7248840000     -0.2271487600    
  H      4.7138258700     -0.7502807300      1.2117855000    
  H      4.7821248700      1.1512038200     -1.1894985700    
  C      6.2268727400      1.4185439400      0.4591377400    
  C      5.7988949600      2.8489648500      0.8259760200    
  C      7.5003151800      1.3960336400     -0.4219597500    
  H      6.4559200400      0.8722626200      1.3882549900    
  H      7.2513101800      1.9068858300     -1.3663297200    
  C      7.9160284100     -0.0413847900     -0.7462482900    
  C      8.6675798700      2.1389814100      0.2340520700    
  H      5.6515874200      3.4506756100     -0.0797782300    
  H      6.5446106000      3.3500233300      1.4501638200    
  H      4.8531568600      2.8331094100      1.3775684200    
  H      7.1216310500     -0.5842984500     -1.2672499500    
  H      8.1445929600     -0.5889324600      0.1775450400    
  H      8.8124897600     -0.0548301000     -1.3758343000    
  H      8.4684899000      3.2079088400      0.3515575200    
  H      9.5747468200      2.0349683900     -0.3712884000    
  H      8.8783611700      1.7203562400      1.2267829400    
  H      2.9505276700     -2.9391767100     -1.4327658900    
  H      3.7951464400     -3.0515512000      0.1220123000    
  H      4.6440605200     -2.4439182600     -1.3110445700    
73
 Energy =        -86.484702160288 Eh        #Cluster:     2
  C     -5.1413635800      0.1267026700     -0.6092433500    
  C     -6.5746565300     -0.3278903200     -0.7497738700    
  C     -7.5139040700      0.6248034900      0.0013161500    
  H     -6.6974478600     -1.3499093900     -0.3736413800    
  H     -6.8662010700     -0.3196507400     -1.8105127300    
  C     -4.9164140900      1.5314789500     -1.0173173800    
  C     -5.8772927400      2.5223610600     -0.3984434200    
  C     -7.3352733300      2.0548410500     -0.5110530800    
  H     -5.7525717200      3.5086031300     -0.8580368300    
  H     -5.6238325300      2.6303234500      0.6672032600    
  H     -7.6510961700      2.0861099100     -1.5627150700    
  H     -7.9914220700      2.7297481100      0.0507392200    
  O     -7.2970030900      0.5366061400      1.4196068200    
  H     -8.5534919700      0.3092560600     -0.1509633200    
  C     -4.1935924800     -0.6860286200     -0.0844040000    
  C     -3.9726627900      1.8970964600     -1.8915754500    
  H     -3.3032323800      1.1673191400     -2.3392127000    
  H     -3.8559243800      2.9374787900     -2.1860248000    
  C     -2.8224727100     -0.3239101300      0.1916324700    
  H     -4.5130375100     -1.6937680000      0.1786613400    
  C     -1.8455767200     -1.1461968400      0.6301442000    
  H     -2.5699512000      0.7226571900      0.0366854800    
  C     -1.9872512700     -2.6253754600      0.8850695700    
  C     -0.9247032100     -3.4400418400      0.1217509400    
  H     -2.9853003600     -2.9954083300      0.6349286400    
  H     -1.8407056500     -2.7976450200      1.9633572300    
  C      0.4989376100     -2.9123212700      0.3460530400    
  H     -1.1618904500     -3.4229982400     -0.9495327500    
  H     -0.9817647300     -4.4891184800      0.4369000400    
  C      0.6097704900     -1.4150043200      0.0266619300    
  H      1.1963399400     -3.5017664400     -0.2582161000    
  H      0.7800655900     -3.0636934400      1.3992266500    
  C     -0.4508486400     -0.6715851900      0.8989315000    
  H     -0.2138247700     -0.9695048300      1.9373445000    
  C     -0.0777616500      0.7992868400      0.7535101600    
  H     -6.3413378900      0.4982888200      1.5679998600    
  C      1.4696577200      0.7739518100      0.7342500200    
  H     -0.4811011200      1.4124122000      1.5663595400    
  H     -0.4693206300      1.2083517500     -0.1846865600    
  C      1.9059582100     -0.7102466800      0.5216658800    
  H      1.8798224500      1.1706060400      1.6670177400    
  H      1.8683137400      1.4034153100     -0.0703235100    
  H      2.1361572400     -1.1569001900      1.5017042800    
  C      3.1627219400     -0.8166603300     -0.3533612700    
  C      0.3667504600     -1.1496277800     -1.4658601200    
  H      0.5725693000     -0.1077663800     -1.7315301200    
  H     -0.6714157600     -1.3566395900     -1.7439360000    
  H      1.0123275700     -1.7824779600     -2.0840946700    
  H      2.9357840900     -0.3286999900     -1.3145572400    
  C      3.5965612600     -2.2612604600     -0.6629865500    
  C      4.3611857400     -0.0979608300      0.2261145300    
  C      4.5772792200      0.2325736700      1.4982548700    
  H      5.1569081700      0.1063210600     -0.4959477500    
  H      3.8138286000      0.0307750600      2.2534127900    
  C      5.8348538500      0.8661124000      2.0255065200    
  C      6.5179772000     -0.1086679700      2.9986600600    
  C      5.5279499200      2.2334892500      2.6841102900    
  H      6.5138721400      1.0492389200      1.1773064500    
  H      4.7995710600      2.0489209700      3.4907774800    
  C      4.8978694700      3.1973993500      1.6753348200    
  C      6.7758476500      2.8704816200      3.3023586500    
  H      5.9079421100     -0.2414703900      3.9011319200    
  H      7.5061726400      0.2467205000      3.3048597800    
  H      6.6430619000     -1.0897008200      2.5289229900    
  H      3.9760734800      2.7903261200      1.2486017900    
  H      5.5937146800      3.3884020800      0.8478752400    
  H      4.6642243800      4.1578531700      2.1477178000    
  H      7.1741926900      2.2828817500      4.1342660900    
  H      6.5446584200      3.8711341400      3.6839994700    
  H      7.5675545800      2.9750701900      2.5489443900    
  H      2.8811546800     -2.7766550200     -1.3088537100    
  H      3.7038118400     -2.8343736600      0.2655901500    
  H      4.5668774800     -2.2654603700     -1.1722113200    
