73
 Energy =        -1168.3616828200 Eh        #Cluster:     0
  C      1.5387968152     -5.6320220287     -1.2053404254    
  C      2.0563849293     -6.9505013341     -0.6806994323    
  C      1.4013322145     -8.1193461741     -1.4276854421    
  H      1.8682774692     -7.0404579861      0.3952171909    
  H      3.1427812338     -7.0153540775     -0.8413483533    
  C      1.6725829214     -5.4751256985     -2.6706121283    
  C      1.1455280206     -6.6428732191     -3.4750815224    
  C      1.6473535277     -7.9881380289     -2.9316236429    
  H      1.4164020752     -6.5287223904     -4.5301269976    
  H      0.0461910752     -6.6297923066     -3.4229364215    
  H      2.7268673179     -8.0786812082     -3.1139913461    
  H      1.1535912038     -8.8139155714     -3.4568562501    
  O     -0.0015326478     -8.1931979954     -1.1234233015    
  H      1.8235746399     -9.0661046757     -1.0687633007    
  C      0.9511987785     -4.7310504653     -0.3824248174    
  C      2.2473045150     -4.4115975495     -3.2428622848    
  H      2.6364847668     -3.5902794716     -2.6470231045    
  H      2.3496851560     -4.3453752960     -4.3234900661    
  C      0.3307454218     -3.4893853080     -0.7831870620    
  H      0.9226861865     -4.9910575737      0.6751026726    
  C     -0.1559836746     -2.5338810859      0.0368787452    
  H      0.2485277714     -3.3259390141     -1.8554212005    
  C     -0.1072478311     -2.5582940071      1.5433420622    
  C      0.5816995991     -1.2999294635      2.1071432814    
  H      0.3880761468     -3.4532283236      1.9296547697    
  H     -1.1438782788     -2.5766300571      1.9155802908    
  C     -0.0000000000     -0.0000000000      1.5348405890    
  H      1.6560256189     -1.3533719230      1.8900116772    
  H      0.4846039792     -1.2961240776      3.1997464297    
  C      0.0000000000      0.0000000000      0.0000000000    
  H      0.5665520411      0.8480885747      1.9334889395    
  H     -1.0377697166      0.1160358677      1.8821179082    
  C     -0.7813991693     -1.2700136205     -0.4681459491    
  H     -1.7653800607     -1.1869164453      0.0285209745    
  C     -1.0079090581     -1.0399821573     -1.9595693585    
  H     -0.3502795430     -7.2904153259     -1.1313418307    
  C     -1.2377581494      0.4878688816     -2.0612120511    
  H     -1.8506925857     -1.6248172193     -2.3427150842    
  H     -0.1237365208     -1.3318688062     -2.5371859987    
  C     -0.8566994472      1.1029160656     -0.6810278618    
  H     -2.2743281905      0.7299159251     -2.3158930127    
  H     -0.6163745721      0.9258978667     -2.8510952012    
  H     -1.7729550425      1.2040298076     -0.0764379967    
  C     -0.2600933820      2.5163440342     -0.8386282469    
  C      1.4313643533     -0.0000000000     -0.5532224007    
  H      1.4417844810      0.1113755608     -1.6421717962    
  H      1.9536420019     -0.9319100349     -0.3155530009    
  H      2.0097832429      0.8281786707     -0.1292714600    
  H      0.6431268359      2.4416041629     -1.4619733623    
  C      0.1149842081      3.1758296367      0.4971640168    
  C     -1.2461571814      3.3976576955     -1.5582337169    
  C     -1.0273681459      4.0159162484     -2.7168813133    
  H     -2.2082193275      3.5385741447     -1.0552418083    
  H     -0.0643860288      3.8739809127     -3.2180997601    
  C     -2.0117326201      4.8913310288     -3.4408301460    
  C     -2.4007840418      4.2187584154     -4.7675269292    
  C     -1.4396149437      6.3149682496     -3.6516228795    
  H     -2.9154706943      4.9852988001     -2.8174744195    
  H     -0.5134174668      6.2093493202     -4.2396798205    
  C     -1.0884817391      6.9675230626     -2.3118355911    
  C     -2.4043873069      7.2137573162     -4.4302256373    
  H     -1.5430036799      4.1920831112     -5.4513744197    
  H     -3.2185483685      4.7461903141     -5.2673658273    
  H     -2.7230101071      3.1873438649     -4.5906639529    
  H     -0.3561920961      6.3763243274     -1.7537127804    
  H     -1.9868310403      7.0623100526     -1.6877937010    
  H     -0.6768988711      7.9713888450     -2.4636753296    
  H     -2.5701362202      6.8613384232     -5.4521739819    
  H     -2.0105731652      8.2342657516     -4.4908937758    
  H     -3.3772693370      7.2604763847     -3.9237591982    
  H      0.9499757292      2.6653634749      0.9837396330    
  H     -0.7377834039      3.1687740156      1.1871875346    
  H      0.4082473997      4.2185460942      0.3338898856    
73
 Energy =        -1168.3593389200 Eh        #Cluster:     0
  C      1.4532964988     -5.6792676388     -1.2209125408    
  C      1.9580271118     -7.0051590346     -0.7032337705    
  C      1.2397079468     -8.1630249020     -1.4084371918    
  H      1.8152758383     -7.0795248018      0.3808179565    
  H      3.0340536251     -7.1014003314     -0.9109296875    
  C      1.5336749266     -5.5416144886     -2.6923451768    
  C      0.9394937608     -6.7012033920     -3.4607476962    
  C      1.4247119870     -8.0547953604     -2.9228672706    
  H      1.1689380326     -6.6060713591     -4.5274060662    
  H     -0.1558703647     -6.6559149913     -3.3626294222    
  H      2.4924161712     -8.1789407303     -3.1493853741    
  H      0.8854522224     -8.8713363482     -3.4169330744    
  O     -0.1501793265     -8.1948658052     -1.0429611230    
  H      1.6515142556     -9.1172749733     -1.0572611893    
  C      0.9163022148     -4.7567189028     -0.3873661896    
  C      2.1183966708     -4.5030106723     -3.2990349223    
  H      2.5557129371     -3.6878359433     -2.7286528024    
  H      2.1802960631     -4.4511998602     -4.3835660531    
  C      0.3111582470     -3.5056248946     -0.7821571699    
  H      0.9183860629     -5.0047012410      0.6734295380    
  C     -0.1467511975     -2.5381076262      0.0406447639    
  H      0.2109213141     -3.3466970097     -1.8534990027    
  C     -0.0821254239     -2.5587357930      1.5467742405    
  C      0.5973132436     -1.2933919428      2.1058923488    
  H      0.4259655201     -3.4488527617      1.9277364047    
  H     -1.1151496339     -2.5892637647      1.9285932059    
  C     -0.0000000000     -0.0000000000      1.5350090088    
  H      1.6710704050     -1.3355778658      1.8834897367    
  H      0.5053821936     -1.2896005201      3.1989024476    
  C      0.0000000000      0.0000000000      0.0000000000    
  H      0.5556802566      0.8550243073      1.9338945792    
  H     -1.0394269297      0.1032286406      1.8815009040    
  C     -0.7710163194     -1.2750685701     -0.4670900570    
  H     -1.7596225980     -1.1961231166      0.0224640531    
  C     -0.9850515096     -1.0468647637     -1.9590410471    
  H     -0.4742643612     -7.2828608632     -1.0437106534    
  C     -1.2672259442      0.4722177997     -2.0500645474    
  H     -1.8038788534     -1.6543165032     -2.3588581489    
  H     -0.0834785555     -1.3070972653     -2.5250011820    
  C     -0.8661898996      1.1008107171     -0.6780454779    
  H     -2.3207482442      0.6625677844     -2.2725121817    
  H     -0.6921561478      0.9362870658     -2.8602644801    
  H     -1.7689790730      1.1999605403     -0.0550629438    
  C     -0.2526036320      2.4977355565     -0.8470553489    
  C      1.4326728386      0.0000000000     -0.5518641591    
  H      1.4490274786      0.1335902611     -1.6382817991    
  H      1.9444905344     -0.9423579326     -0.3328359462    
  H      2.0202839802      0.8116516454     -0.1098032280    
  H      0.6235529798      2.3938393353     -1.5066453282    
  C      0.2346917685      3.1369005950      0.4663239380    
  C     -1.1833852977      3.4863588495     -1.5140681892    
  C     -2.5123432802      3.4335896636     -1.5873933985    
  H     -0.6850563237      4.3708536375     -1.9210281579    
  H     -3.0493426955      2.5744523520     -1.1782996193    
  C     -3.3883518188      4.4987538419     -2.1864709296    
  C     -4.2733328214      5.1003029765     -1.0824648802    
  C     -4.2215842867      3.9298117694     -3.3610759571    
  H     -2.7416531904      5.2940485184     -2.5906141974    
  H     -4.8183234258      3.0938465305     -2.9606041249    
  C     -3.3107502140      3.3876919634     -4.4657204298    
  C     -5.1838449451      4.9688601206     -3.9438898278    
  H     -4.9954277994      4.3571826049     -0.7210984346    
  H     -4.8305959519      5.9723795727     -1.4367665521    
  H     -3.6594229819      5.4150163535     -0.2322915161    
  H     -2.6408426459      2.6077985674     -4.0908768868    
  H     -2.6888189626      4.1948579354     -4.8744459708    
  H     -3.9018498132      2.9686453495     -5.2874311133    
  H     -5.9505347714      5.2744660433     -3.2263843594    
  H     -5.6958276365      4.5639999422     -4.8238702827    
  H     -4.6355818382      5.8660535381     -4.2598379504    
  H      1.0952110400      2.6099444604      0.8863314751    
  H     -0.5702439356      3.1390283719      1.2108305529    
  H      0.5335965696      4.1770645603      0.2944055924    
73
 Energy =        -1168.3601585800 Eh        #Cluster:     0
  C      1.4966241166     -5.6593731801     -1.1897464019    
  C      1.9961873742     -6.9825543456     -0.6592579484    
  C      1.3223297708     -8.1461424909     -1.3976757687    
  H      1.8098162315     -7.0634012634      0.4176354931    
  H      3.0809983831     -7.0640857853     -0.8229646851    
  C      1.6267625735     -5.5125278129     -2.6563885724    
  C      1.0794110988     -6.6769551214     -3.4520298625    
  C      1.5648449517     -8.0261573242     -2.9032017359    
  H      1.3469532443     -6.5724401149     -4.5089274949    
  H     -0.0193879083     -6.6480218582     -3.3947776420    
  H      2.6424062456     -8.1320008969     -3.0888396419    
  H      1.0579078343     -8.8477975356     -3.4223001960    
  O     -0.0800714200     -8.2003231331     -1.0879641243    
  H      1.7335514360     -9.0964903256     -1.0355467924    
  C      0.9240474226     -4.7459126720     -0.3699533018    
  C      2.2144002102     -4.4605359730     -3.2368549299    
  H      2.6180174898     -3.6416786877     -2.6472369263    
  H      2.3131777449     -4.4012484670     -4.3182357606    
  C      0.3179700213     -3.4984009716     -0.7753810974    
  H      0.8946753233     -4.9998391324      0.6889796285    
  C     -0.1601988431     -2.5362839788      0.0419608640    
  H      0.2368158933     -3.3389533006     -1.8482893834    
  C     -0.1112443114     -2.5575337990      1.5483729203    
  C      0.5816554232     -1.2997171248      2.1073850238    
  H      0.3815276898     -3.4529415541      1.9366033108    
  H     -1.1479129802     -2.5713940818      1.9207161661    
  C      0.0000000000     -0.0000000000      1.5349864000    
  H      1.6551071135     -1.3555696125      1.8864133073    
  H      0.4881633548     -1.2933713841      3.2002687774    
  C      0.0000000000      0.0000000000      0.0000000000    
  H      0.5665857224      0.8473374275      1.9341927810    
  H     -1.0377903623      0.1157563501      1.8822778129    
  C     -0.7806729777     -1.2710956537     -0.4664032189    
  H     -1.7658436933     -1.1867305722      0.0277905785    
  C     -1.0034742512     -1.0462653229     -1.9586940600    
  H     -0.4194468430     -7.2941865024     -1.1046421853    
  C     -1.2250671975      0.4824693904     -2.0680904355    
  H     -1.8492596500     -1.6275431579     -2.3403163352    
  H     -0.1203296097     -1.3454341153     -2.5339591294    
  C     -0.8596736512      1.0998014919     -0.6838496660    
  H     -2.2578806369      0.7252422471     -2.3376925458    
  H     -0.5873441352      0.9067065734     -2.8528530618    
  H     -1.7830158215      1.1930794250     -0.0892322726    
  C     -0.2758042601      2.5276593276     -0.8181018628    
  C      1.4309877981     -0.0000000000     -0.5545054585    
  H      1.4414338827      0.1124366582     -1.6433307161    
  H      1.9526329161     -0.9327465166     -0.3185895652    
  H      2.0110061674      0.8266594306     -0.1297991985    
  H      0.6327303071      2.4460685966     -1.4372116251    
  C      0.1120942288      3.1518491523      0.5217227766    
  C     -1.2573754767      3.3751823992     -1.5927962468    
  C     -1.9950535754      4.3783990756     -1.1178563349    
  H     -1.3906637737      3.0996692177     -2.6406104933    
  H     -1.8986005310      4.6831193308     -0.0729456780    
  C     -2.9897364549      5.1707030554     -1.9201649670    
  C     -2.5762071741      6.6507856171     -1.9205884231    
  C     -4.4257376324      4.9622539798     -1.3760565886    
  H     -2.9732358895      4.8006812556     -2.9579182802    
  H     -4.4206953151      5.2693706965     -0.3174093293    
  C     -4.8304618204      3.4871267076     -1.4482975196    
  C     -5.4548580270      5.8187886100     -2.1194253545    
  H     -2.6716970124      7.0770717114     -0.9138601090    
  H     -3.1905120464      7.2461795360     -2.6022053335    
  H     -1.5315951076      6.7538765080     -2.2320905718    
  H     -4.1409714934      2.8502947134     -0.8858127037    
  H     -4.8287198252      3.1427455779     -2.4909647588    
  H     -5.8397816596      3.3408673232     -1.0482025900    
  H     -5.2923045297      6.8898929476     -1.9700622258    
  H     -6.4672398262      5.5852424825     -1.7717347788    
  H     -5.4166103425      5.6152930774     -3.1975974826    
  H      0.9697735876      2.6389036656      0.9615026388    
  H     -0.7144986138      3.1026595041      1.2404058885    
  H      0.3846300446      4.2046399436      0.3907367840    
73
 Energy =        -1168.3615176600 Eh        #Cluster:     0
  C      1.4721382676     -5.6660165429     -1.2023770981    
  C      1.9682211529     -6.9913601365     -0.6745181023    
  C      1.2775101751     -8.1508183587     -1.4038054464    
  H      1.7930356382     -7.0693520925      0.4045048553    
  H      3.0505788420     -7.0813101483     -0.8494872431    
  C      1.5902969573     -5.5225378521     -2.6703374943    
  C      1.0280525857     -6.6844909679     -3.4593255938    
  C      1.5071029087     -8.0364117036     -2.9117456296    
  H      1.2881957971     -6.5840611427     -4.5184505313    
  H     -0.0699685227     -6.6469043535     -3.3933795821    
  H      2.5819130531     -8.1522219791     -3.1070523898    
  H      0.9883615934     -8.8549038343     -3.4241099620    
  O     -0.1226229014     -8.1913980825     -1.0813062994    
  H      1.6834150811     -9.1040046527     -1.0429859080    
  C      0.9113765353     -4.7483457343     -0.3790242496    
  C      2.1793201915     -4.4752528279     -3.2578334498    
  H      2.5930327123     -3.6580253063     -2.6730179187    
  H      2.2686405528     -4.4186202752     -4.3401633628    
  C      0.3080096710     -3.4988115754     -0.7810540499    
  H      0.8899844828     -5.0007628346      0.6805141836    
  C     -0.1644935704     -2.5353902926      0.0381300659    
  H      0.2225702065     -3.3377835713     -1.8533362508    
  C     -0.1141545858     -2.5576367975      1.5445732514    
  C      0.5794960536     -1.3011882188      2.1063165760    
  H      0.3780577140     -3.4540109701      1.9314708855    
  H     -1.1506372730     -2.5716659905      1.9174826324    
  C      0.0000000000     -0.0000000000      1.5345680760    
  H      1.6531347241     -1.3578061677      1.8867212635    
  H      0.4847715503     -1.2965708020      3.1991083622    
  C      0.0000000000      0.0000000000      0.0000000000    
  H      0.5687802497      0.8467586200      1.9328112963    
  H     -1.0372960586      0.1177691756      1.8827176111    
  C     -0.7824489262     -1.2686121963     -0.4691496541    
  H     -1.7677607308     -1.1825927988      0.0245381331    
  C     -1.0042883988     -1.0394312312     -1.9615962794    
  H     -0.4513106203     -7.2811225370     -1.0880705130    
  C     -1.2260073337      0.4895341117     -2.0661699774    
  H     -1.8491616666     -1.6204822920     -2.3458528897    
  H     -0.1201821580     -1.3367435657     -2.5365585287    
  C     -0.8554186935      1.1026501639     -0.6825097860    
  H     -2.2585268862      0.7371301935     -2.3317839899    
  H     -0.5939336185      0.9240808485     -2.8495373478    
  H     -1.7759150565      1.1985109903     -0.0834223766    
  C     -0.2640120422      2.5188194910     -0.8324859375    
  C      1.4317999196      0.0000000000     -0.5524759647    
  H      1.4432800118      0.1154395516     -1.6409582062    
  H      1.9532716642     -0.9331478945     -0.3178560777    
  H      2.0106128645      0.8262206592     -0.1249880524    
  H      0.6487087784      2.4502271466     -1.4425790893    
  C      0.0879283019      3.1813408963      0.5084143598    
  C     -1.2453983149      3.3924275028     -1.5671734935    
  C     -1.0042018217      4.0319803080     -2.7106151002    
  H     -2.2249905776      3.5063140587     -1.0917146417    
  H     -0.0255704374      3.9081017152     -3.1820925154    
  C     -1.9858021485      4.9075037632     -3.4378950092    
  C     -2.1649081021      4.4139589974     -4.8808929400    
  C     -1.6024067289      6.4118289770     -3.3860037128    
  H     -2.9564880052      4.8191912272     -2.9271315426    
  H     -2.3512917598      6.9360008402     -3.9997606838    
  C     -0.2204424680      6.7096434438     -3.9732567591    
  C     -1.7001265037      6.9521476609     -1.9586371555    
  H     -1.2105680821      4.3966440176     -5.4186410617    
  H     -2.8550862555      5.0622087335     -5.4332542177    
  H     -2.5673156659      3.3953626677     -4.8906786127    
  H     -0.1157851641      6.3350004965     -4.9965971769    
  H      0.5704191784      6.2584526536     -3.3627393488    
  H     -0.0434540574      7.7906164796     -3.9952141859    
  H     -2.6943947179      6.7735399794     -1.5329980942    
  H     -1.5077443501      8.0306813245     -1.9348794486    
  H     -0.9647682765      6.4623363189     -1.3093487083    
  H      0.9212943080      2.6778205334      1.0050137838    
  H     -0.7733996161      3.1662480483      1.1875252132    
  H      0.3741690780      4.2264959018      0.3488375091    
73
 Energy =        -1168.3594273600 Eh        #Cluster:     0
  C      1.5165712664     -5.6514481119     -1.2082946586    
  C      2.0194189548     -6.9775995785     -0.6885109380    
  C      1.3524063910     -8.1363205598     -1.4407950657    
  H      1.8299444934     -7.0700459671      0.3868817135    
  H      3.1050982455     -7.0538947833     -0.8491943299    
  C      1.6487884822     -5.4905453678     -2.6733014359    
  C      1.1110635045     -6.6504511591     -3.4818063392    
  C      1.6018415096     -8.0015874730     -2.9440775151    
  H      1.3820636652     -6.5344025905     -4.5365671421    
  H      0.0118850017     -6.6289718841     -3.4283096321    
  H      2.6808548729     -8.1000634650     -3.1247785283    
  H      1.1021399104     -8.8213515250     -3.4732282877    
  O     -0.0515133542     -8.1962628523     -1.1379095232    
  H      1.7641516707     -9.0890178440     -1.0855131517    
  C      0.9413037871     -4.7455033080     -0.3819773187    
  C      2.2304776595     -4.4286909079     -3.2419400014    
  H      2.6268028792     -3.6132836994     -2.6427321525    
  H      2.3310923603     -4.3578376894     -4.3224808037    
  C      0.3315670411     -3.4976786782     -0.7804683947    
  H      0.9108727177     -5.0061731200      0.6753081579    
  C     -0.1429267617     -2.5368494152      0.0405495698    
  H      0.2439488542     -3.3353203922     -1.8524620353    
  C     -0.0843638504     -2.5582779476      1.5469464341    
  C      0.5972549104     -1.2935599339      2.1055384134    
  H      0.4223458635     -3.4487742572      1.9288400135    
  H     -1.1181213063     -2.5859840845      1.9265792733    
  C      0.0000000000      0.0000000000      1.5352119904    
  H      1.6705550081     -1.3366842373      1.8813172734    
  H      0.5066104840     -1.2894985013      3.1986560832    
  C      0.0000000000      0.0000000000      0.0000000000    
  H      0.5561486279      0.8549830598      1.9337447183    
  H     -1.0390333018      0.1026647528      1.8829393805    
  C     -0.7707376559     -1.2756008325     -0.4670288026    
  H     -1.7586403970     -1.1981599962      0.0239680521    
  C     -0.9875915556     -1.0475396613     -1.9589286662    
  H     -0.3916903928     -7.2902557472     -1.1471148058    
  C     -1.2619357503      0.4727267369     -2.0525388362    
  H     -1.8103739328     -1.6520086105     -2.3551670529    
  H     -0.0892748222     -1.3125076481     -2.5278794737    
  C     -0.8651739064      1.1004855369     -0.6792739852    
  H     -2.3124081351      0.6719389963     -2.2816558260    
  H     -0.6783874286      0.9322049940     -2.8594287899    
  H     -1.7699636236      1.1984899860     -0.0590395946    
  C     -0.2508782666      2.4973347536     -0.8478194551    
  C      1.4328779509      0.0000000000     -0.5517909784    
  H      1.4486455389      0.1327833895     -1.6383551214    
  H      1.9447378148     -0.9419790923     -0.3319780261    
  H      2.0198970884      0.8124945668     -0.1103571253    
  H      0.6347929692      2.3909134993     -1.4937478292    
  C      0.2155371264      3.1454945533      0.4688166153    
  C     -1.1726033322      3.4781756905     -1.5385697641    
  C     -2.5032044438      3.4396774398     -1.6021646006    
  H     -0.6657135797      4.3428200526     -1.9767262026    
  H     -3.0423329197      2.6038660002     -1.1530346838    
  C     -3.3559171605      4.4966476423     -2.2467704475    
  C     -4.2958635224      5.1281978377     -1.2094474069    
  C     -4.1317095768      3.9644744513     -3.4817583839    
  H     -2.6853619408      5.2856279504     -2.6193524534    
  H     -4.7221320255      4.8147474065     -3.8570652740    
  C     -5.1037424867      2.8285734924     -3.1519765902    
  C     -3.1686529942      3.5331059772     -4.5889432881    
  H     -4.9184401042      4.3723996243     -0.7181121856    
  H     -4.9605590311      5.8621804275     -1.6803444849    
  H     -3.7183042924      5.6364908312     -0.4302503154    
  H     -5.8206882649      3.1092482897     -2.3738845099    
  H     -4.5653116768      1.9352728227     -2.8140222839    
  H     -5.6742955953      2.5492696415     -4.0446778859    
  H     -2.4797531898      4.3430512763     -4.8560213289    
  H     -3.7174928095      3.2409044671     -5.4912481207    
  H     -2.5671569415      2.6753319230     -4.2647819801    
  H      1.0743962393      2.6259378211      0.9016070856    
  H     -0.5987185139      3.1444514650      1.2030260016    
  H      0.5093870204      4.1870180839      0.2964768661    
73
 Energy =        -1168.3602250100 Eh        #Cluster:     0
  C      1.4570803972     -5.6789172897     -1.1901284000    
  C      1.9447252164     -7.0060534155     -0.6588929590    
  C      1.2488349382     -8.1632517441     -1.3868634604    
  H      1.7674781861     -7.0808085894      0.4199681869    
  H      3.0267505371     -7.1022742791     -0.8325606785    
  C      1.5775061555     -5.5389853023     -2.6582494287    
  C      1.0106443118     -6.6995134651     -3.4458847626    
  C      1.4813393598     -8.0529193530     -2.8947395945    
  H      1.2735315901     -6.6026660446     -4.5046713346    
  H     -0.0873699029     -6.6558597322     -3.3828396139    
  H      2.5557810389     -8.1749852321     -3.0882170616    
  H      0.9588388045     -8.8695691404     -3.4062494020    
  O     -0.1516174453     -8.1967143928     -1.0657706933    
  H      1.6494337210     -9.1178294537     -1.0238854723    
  C      0.9010041362     -4.7561363538     -0.3693185662    
  C      2.1719906621     -4.4953229983     -3.2467912843    
  H      2.5888708574     -3.6794191413     -2.6624469370    
  H      2.2628801474     -4.4404841356     -4.3290834339    
  C      0.3044346065     -3.5041839335     -0.7743891235    
  H      0.8769066779     -5.0062766445      0.6906841456    
  C     -0.1639621539     -2.5373794079      0.0430537961    
  H      0.2195585957     -3.3456852120     -1.8471095135    
  C     -0.1124882733     -2.5572532484      1.5493230384    
  C      0.5820900383     -1.2998294725      2.1067210425    
  H      0.3799752495     -3.4530216699      1.9371436271    
  H     -1.1486293864     -2.5700396436      1.9231941247    
  C      0.0000000000     -0.0000000000      1.5348698911    
  H      1.6550793418     -1.3562697279      1.8837345831    
  H      0.4907314624     -1.2931140460      3.1997721920    
  C      0.0000000000      0.0000000000      0.0000000000    
  H      0.5665848491      0.8472365961      1.9342359274    
  H     -1.0376839262      0.1152407452      1.8826151981    
  C     -0.7809302294     -1.2707738225     -0.4664132909    
  H     -1.7669685444     -1.1851099335      0.0258986366    
  C     -1.0009975779     -1.0464078106     -1.9591615838    
  H     -0.4785850928     -7.2860074191     -1.0833789932    
  C     -1.2218709801      0.4822335535     -2.0693004547    
  H     -1.8461904378     -1.6274524435     -2.3424444298    
  H     -0.1166921579     -1.3459841038     -2.5324820035    
  C     -0.8598180478      1.0995554879     -0.6840944871    
  H     -2.2537609439      0.7249153120     -2.3422558348    
  H     -0.5815702861      0.9062642812     -2.8521469909    
  H     -1.7842424711      1.1908620407     -0.0908414847    
  C     -0.2768781128      2.5282588930     -0.8162076081    
  C      1.4310950165      0.0000000000     -0.5543144942    
  H      1.4424536780      0.1170702072     -1.6426248170    
  H      1.9513016927     -0.9344942605     -0.3221593624    
  H      2.0124550499      0.8237752644     -0.1258756604    
  H      0.6314134560      2.4479768521     -1.4360399916    
  C      0.1106896524      3.1516252063      0.5238462913    
  C     -1.2601968139      3.3748294516     -1.5884055972    
  C     -1.9810223866      4.3940572059     -1.1192117168    
  H     -1.4102778384      3.0865314190     -2.6306083310    
  H     -1.8588856528      4.7144899633     -0.0834887020    
  C     -2.9898916174      5.1624817466     -1.9267791975    
  C     -2.7113072181      6.6692791249     -1.8428266580    
  C     -4.4512151500      4.8215222478     -1.5226895156    
  H     -2.8835160690      4.8554907680     -2.9780432936    
  H     -5.0935005320      5.4819346043     -2.1258095477    
  C     -4.7534045230      5.0897763263     -0.0461934125    
  C     -4.7964471807      3.3747809442     -1.8802726140    
  H     -2.7138115202      7.0193730368     -0.8047007352    
  H     -3.4683145218      7.2385092252     -2.3947352991    
  H     -1.7289584714      6.9026671133     -2.2668517866    
  H     -4.5265529308      6.1210504508      0.2427771762    
  H     -4.1743104102      4.4192921749      0.5997947970    
  H     -5.8144161885      4.9121042056      0.1612698903    
  H     -4.6057254832      3.1705244567     -2.9402906853    
  H     -5.8524149413      3.1644286601     -1.6766271814    
  H     -4.1920307658      2.6751035253     -1.2905929770    
  H      0.9690359926      2.6394423569      0.9631237401    
  H     -0.7162866783      3.1009444806      1.2420223432    
  H      0.3826838807      4.2046574395      0.3940704126    
73
 Energy =        -1168.3602592700 Eh        #Cluster:     0
  C      1.4834693831     -5.6571947394     -1.2131163869    
  C      1.9914380859     -6.9797531753     -0.6897191939    
  C      1.3021367942     -8.1431348664     -1.4141980829    
  H      1.8250634971     -7.0594599806      0.3905893347    
  H      3.0729855350     -7.0629790856     -0.8729531578    
  C      1.5907854786     -5.5125977819     -2.6818829529    
  C      1.0271237573     -6.6766409558     -3.4666552038    
  C      1.5178811674     -8.0263559665     -2.9239388021    
  H      1.2774391321     -6.5744889663     -4.5279851036    
  H     -0.0704541319     -6.6445519348     -3.3911295176    
  H      2.5916023096     -8.1360764585     -3.1285724138    
  H      0.9993518362     -8.8473823461     -3.4324512842    
  O     -0.0947505565     -8.1931239514     -1.0791531157    
  H      1.7173512329     -9.0939304754     -1.0577015157    
  C      0.9227115535     -4.7432104003     -0.3857490619    
  C      2.1724934785     -4.4635423240     -3.2733677370    
  H      2.5878168001     -3.6449226415     -2.6916030606    
  H      2.2542073740     -4.4067305547     -4.3562959193    
  C      0.3116710364     -3.4962553910     -0.7840727234    
  H      0.9093040121     -4.9961001648      0.6738177567    
  C     -0.1614040296     -2.5348947478      0.0372375719    
  H      0.2221597479     -3.3343551602     -1.8558876177    
  C     -0.1080591692     -2.5584507018      1.5435961700    
  C      0.5815812230     -1.3002989407      2.1067562686    
  H      0.3879541822     -3.4535967279      1.9285832501    
  H     -1.1438385146     -2.5773112044      1.9183596884    
  C     -0.0000000000      0.0000000000      1.5347383837    
  H      1.6557779635     -1.3538714858      1.8891299689    
  H      0.4850912893     -1.2963935582      3.1994054708    
  C      0.0000000000      0.0000000000      0.0000000000    
  H      0.5669457005      0.8478276068      1.9333421295    
  H     -1.0377169661      0.1162537638      1.8821123014    
  C     -0.7826220011     -1.2690428466     -0.4680828213    
  H     -1.7669553798     -1.1840313470      0.0277706364    
  C     -1.0075574118     -1.0393872241     -1.9597093177    
  H     -0.4299814425     -7.2852232452     -1.0848880973    
  C     -1.2347251691      0.4888318686     -2.0622181112    
  H     -1.8509365421     -1.6229052159     -2.3435486561    