73
 Energy =        -1168.36168282 Eh        #Cluster:     0
  C      4.9258675117      2.7892423271      1.8698582325    
  C      6.4049203166      2.7014422114      2.1635029941    
  C      7.0991428254      4.0260444790      1.8217949913    
  H      6.8640734156      1.8811354853      1.6001660588    
  H      6.5616557611      2.5062186534      3.2347605017    
  C      4.2513121190      3.9329454866      2.5228930318    
  C      4.9415207743      5.2639466168      2.3212990093    
  C      6.4498708437      5.1760684509      2.5934574393    
  H      4.4800764647      6.0293791567      2.9543126711    
  H      4.7895408821      5.5769273242      1.2770877613    
  H      6.6209649138      5.0120043919      3.6661250829    
  H      6.9367769581      6.1199687709      2.3222495938    
  O      7.0773687868      4.2589380521      0.4035757422    
  H      8.1618586411      3.9615101531      2.0862488539    
  C      4.3249619924      1.9177415083      1.0251037189    
  C      3.1463160851      3.8036082899      3.2652695739    
  H      2.6748297664      2.8357316382      3.4134735568    
  H      2.6946733831      4.6657837008      3.7503427795    
  C      2.9478166114      1.9646516926      0.5908513249    
  H      4.9560305067      1.1289472075      0.6172592170    
  C      2.3105681085      1.0403389510     -0.1587897633    
  H      2.3835352211      2.8414255684      0.9007134945    
  C      2.9058250255     -0.2521122290     -0.6564262259    
  C      2.0657769750     -1.4675466172     -0.2170627982    
  H      3.9420015379     -0.3850171371     -0.3336797270    
  H      2.9119342143     -0.2204643890     -1.7575444242    
  C      0.5764944144     -1.3104277382     -0.5533253715    
  H      2.1891006771     -1.6151576406      0.8632986585    
  H      2.4585858819     -2.3698894361     -0.7015236116    
  C      0.0000000000      0.0000000000      0.0000000000    
  H      0.0321874005     -2.1792560897     -0.1685876382    
  H      0.4500668803     -1.3112020237     -1.6465075718    
  C      0.8732181848      1.1689640559     -0.5600829629    
  H      0.8408608736      1.0361569498     -1.6569497939    
  C      0.0695919043      2.4244385755     -0.2336882293    
  H      6.1974140825      4.0172455160      0.0811349186    
  C     -1.4004550978      1.9718267416     -0.4114379925    
  H      0.3386545916      3.2651764045     -0.8816712108    
  H      0.2481679213      2.7433713140      0.7992650073    
  C     -1.3897083816      0.4200280644     -0.5535736429    
  H     -1.8681502209      2.4338583935     -1.2864892127    
  H     -2.0078773765      2.2647822751      0.4529216337    
  H     -1.3881887393      0.1654741220     -1.6261766407    
  C     -2.6560597345     -0.2114525283      0.0597303705    
  C     -0.0000000000      0.0000000000      1.5345549637    
  H     -0.5094489829      0.8814437498      1.9368515336    
  H      1.0181035121      0.0000000000      1.9360300410    
  H     -0.5148561808     -0.8863299215      1.9212397268    
  H     -2.6906573528      0.0527956144      1.1269360054    
  C     -2.7035313781     -1.7412708606     -0.0719804614    
  C     -3.8761967291      0.3734371018     -0.6006009508    
  C     -4.8455453670      1.0415153420      0.0211797308    
  H     -3.9559206112      0.2047139784     -1.6793031752    
  H     -4.7640891826      1.2088310146      1.1001007123    
  C     -6.0616675815      1.6319279057     -0.6360007103    
  C     -6.0008291748      3.1638617663     -0.5206030562    
  C     -7.3608982126      1.0498320735     -0.0263619993    
  H     -6.0447412059      1.3600988279     -1.7036932038    
  H     -7.3506409469      1.2888038666      1.0495540574    
  C     -7.4040013226     -0.4727048630     -0.1818473312    
  C     -8.6160999202      1.6710298521     -0.6455645077    
  H     -6.1087437657      3.4754059119      0.5260300208    
  H     -6.7900665270      3.6480829056     -1.1031801893    
  H     -5.0370823796      3.5345232517     -0.8849220132    
  H     -6.5469124229     -0.9528045132      0.2999909005    
  H     -7.3867847868     -0.7472279002     -1.2447607867    
  H     -8.3201607259     -0.8831241909      0.2567985344    
  H     -8.7014284365      2.7401652521     -0.4317451019    
  H     -9.5158279635      1.1819311073     -0.2563607896    
  H     -8.6098669357      1.5408424121     -1.7356116397    
  H     -1.9323042921     -2.2266845848      0.5314469753    
  H     -2.5616940918     -2.0461592785     -1.1161643886    
  H     -3.6767237920     -2.1185279989      0.2604243058    
73
 Energy =        -1168.35933892 Eh        #Cluster:     0
  C      5.0157748635      2.7343502330      1.7950237830    
  C      6.4948412127      2.6251771996      2.0799382921    
  C      7.2162337424      3.9135097179      1.6631172328    
  H      6.9294941671      1.7656695145      1.5570619313    
  H      6.6573486472      2.4834376305      3.1587034504    
  C      4.3763276834      3.9246920964      2.3989415224    
  C      5.0938442592      5.2269516008      2.1206785872    
  C      6.6030320208      5.1173886716      2.3801233036    
  H      4.6580497167      6.0347289760      2.7182015447    
  H      4.9368356856      5.4890724102      1.0632563483    
  H      6.7835061998      5.0052863844      3.4578880725    
  H      7.1084454542      6.0339953649      2.0544997047    
  O      7.1852599595      4.0722324443      0.2347542001    
  H      8.2797650069      3.8372656431      1.9211682159    
  C      4.3856508772      1.8421378921      0.9942994536    
  C      3.2804418517      3.8580604659      3.1626589586    
  H      2.7894644316      2.9100107282      3.3657204912    
  H      2.8553982314      4.7534459714      3.6102596578    
  C      3.0056808910      1.9071584502      0.5715104737    
  H      4.9923912492      1.0207137316      0.6149373206    
  C      2.3409920187      0.9807988497     -0.1515526906    
  H      2.4640838461      2.8042337894      0.8630706127    
  C      2.9044393187     -0.3322586485     -0.6326297726    
  C      2.0264089469     -1.5225843633     -0.1995796830    
  H      3.9324537529     -0.4906368661     -0.2954362686    
  H      2.9269394447     -0.3067352087     -1.7338559057    
  C      0.5457924510     -1.3243562218     -0.5517643115    
  H      2.1333988254     -1.6714779951      0.8823541726    
  H      2.3989464102     -2.4364907247     -0.6782526088    
  C      0.0000000000      0.0000000000      0.0000000000    
  H     -0.0267948044     -2.1789649198     -0.1766048518    
  H      0.4311882687     -1.3171911351     -1.6462667878    
  C      0.9072005512      1.1450669590     -0.5515867691    
  H      0.8728758572      1.0211656092     -1.6500895030    
  C      0.1364144103      2.4164535051     -0.2150295343    
  H      6.2974001908      3.8330834804     -0.0674005453    
  C     -1.3390845918      2.0099468160     -0.4456255663    
  H      0.4437327941      3.2649869275     -0.8354132798    
  H      0.2992628868      2.7042757139      0.8297213311    
  C     -1.3774919968      0.4534211182     -0.5645705761    
  H     -1.7384623192      2.4794631411     -1.3487740340    
  H     -1.9774598579      2.3410197616      0.3822374717    
  H     -1.3713009556      0.1781833393     -1.6309532714    
  C     -2.6450919442     -0.1369503674      0.0687566169    
  C      0.0000000000     -0.0000000000      1.5352867852    
  H     -0.5075625462      0.8809889266      1.9410649185    
  H      1.0192471805      0.0000000000      1.9341656764    
  H     -0.5127616130     -0.8859445469      1.9247234324    
  H     -2.6635585599      0.1805306460      1.1234454640    
  C     -2.7023097775     -1.6755790472      0.0513839206    
  C     -3.9237834860      0.3711651638     -0.5600543260    
  C     -4.0830842407      0.8961966958     -1.7738317571    
  H     -4.8180019052      0.2196448175      0.0512510118    
  H     -3.2168480958      1.0490657310     -2.4219899258    
  C     -5.4008854805      1.2983323162     -2.3759500262    
  C     -5.6857208771      0.4107354874     -3.5986203661    
  C     -5.4066306016      2.8054417745     -2.7312758941    
  H     -6.1913102057      1.1290609566     -1.6272040881    
  H     -4.5730662401      2.9767740310     -3.4320817745    
  C     -5.1734274439      3.6623531232     -1.4842509421    
  C     -6.7063166734      3.2321613394     -3.4197274802    
  H     -4.9690708994      0.6220903541     -4.4023471117    
  H     -6.6943111172      0.5693275648     -3.9912827420    
  H     -5.5903202708     -0.6467069811     -3.3313401760    
  H     -4.2273343563      3.4134776800     -0.9938567904    
  H     -5.9798494156      3.5007430047     -0.7569698900    
  H     -5.1591210051      4.7274123016     -1.7404764689    
  H     -6.8387578713      2.7514753872     -4.3930838955    
  H     -6.7150090088      4.3157948419     -3.5811787636    
  H     -7.5730762194      2.9806853790     -2.7945399803    
  H     -1.9479077421     -2.1231445645      0.7034155089    
  H     -2.5498040420     -2.0512159324     -0.9673677890    
  H     -3.6841956400     -2.0229242474      0.3921074702    
73
 Energy =        -1168.36015858 Eh        #Cluster:     0
  C      4.9560079161      2.7910226132      1.8253940252    
  C      6.4388938137      2.7033429076      2.0995318155    
  C      7.1309027636      4.0238364962      1.7380036499    
  H      6.8887336141      1.8776452501      1.5366486627    
  H      6.6095761566      2.5168292162      3.1702056115    
  C      4.2917827978      3.9417557920      2.4766673777    
  C      4.9814924063      5.2695920822      2.2537748065    
  C      6.4930258603      5.1813622259      2.5081112607    
  H      4.5292160077      6.0418509007      2.8851203285    
  H      4.8171460407      5.5727608985      1.2085221340    
  H      6.6767248361      5.0257326115      3.5799492827    
  H      6.9780297323      6.1221139650      2.2229823443    
  O      7.0931153859      4.2451956752      0.3184409804    
  H      8.1964898909      3.9596414659      1.9905996369    
  C      4.3429027847      1.9138979426      0.9952920391    
  C      3.1961943897      3.8210691908      3.2343393385    
  H      2.7251415089      2.8553969446      3.3976483971    
  H      2.7517293960      4.6882392686      3.7171679170    
  C      2.9606706206      1.9603661459      0.5766491039    
  H      4.9673240391      1.1210061101      0.5852908716    
  C      2.3157616265      1.0345706032     -0.1645374145    
  H      2.4015471294      2.8396749662      0.8886405501    
  C      2.9057713479     -0.2597875041     -0.6631865929    
  C      2.0631033305     -1.4711451025     -0.2190799148    
  H      3.9426148051     -0.3953061831     -0.3439806063    
  H      2.9074844371     -0.2291466960     -1.7643549430    
  C      0.5741368949     -1.3110857015     -0.5546209134    
  H      2.1871978187     -1.6152877977      0.8616929443    
  H      2.4525155334     -2.3762172969     -0.7011363360    
  C      0.0000000000      0.0000000000      0.0000000000    
  H      0.0293954941     -2.1794836847     -0.1705537571    
  H      0.4475858073     -1.3106695857     -1.6477834554    
  C      0.8767490448      1.1666345818     -0.5594115538    
  H      0.8415259999      1.0367524772     -1.6565880625    
  C      0.0803404968      2.4248073596     -0.2279666484    
  H      6.2076501419      4.0082841906      0.0080192043    
  C     -1.3930454416      1.9783616209     -0.3950621406    
  H      0.3474766570      3.2638690622     -0.8787247866    
  H      0.2672171295      2.7438684567      0.8033691188    
  C     -1.3878215469      0.4274638824     -0.5545074002    
  H     -1.8659638557      2.4530902850     -1.2606881728    
  H     -1.9827527878      2.2674080792      0.4831278514    
  H     -1.3846858365      0.1877674570     -1.6303174074    
  C     -2.6613575021     -0.2238751829      0.0384248979    
  C     -0.0000000000      0.0000000000      1.5346668634    
  H     -0.5087376642      0.8814442957      1.9378213089    
  H      1.0182605100     -0.0000000000      1.9358295932    
  H     -0.5143152389     -0.8863295664      1.9220455734    
  H     -2.6865060706      0.0369538640      1.1092772514    
  C     -2.6757667421     -1.7470350059     -0.0839873831    
  C     -3.8697336198      0.4227248883     -0.5969209171    
  C     -4.7179733130     -0.1412082091     -1.4563681125    
  H     -4.0285946507      1.4723326061     -0.3426085306    
  H     -4.5922913830     -1.1878602269     -1.7439781104    
  C     -5.8879966999      0.5554680412     -2.0939622191    
  C     -7.1840037158     -0.1747494586     -1.7082171575    
  C     -5.7016687619      0.6496238012     -3.6295470975    
  H     -5.9348128347      1.5848164396     -1.7036156241    
  H     -5.5862929269     -0.3794676789     -4.0073555999    
  C     -4.4361036411      1.4370044941     -3.9808268422    
  C     -6.9134744612      1.2815903586     -4.3205483267    
  H     -7.2117796832     -1.1740242700     -2.1610067208    
  H     -8.0733798055      0.3719310405     -2.0347391481    
  H     -7.2435458580     -0.2957792551     -0.6216251404    
  H     -3.5424317095      0.9838165231     -3.5411539985    
  H     -4.5103841758      2.4651494450     -3.6024662590    
  H     -4.2987664477      1.4879995477     -5.0665212273    
  H     -7.8151999873      0.6705567681     -4.2229444724    
  H     -6.7162257021      1.4133728944     -5.3901630833    
  H     -7.1247979416      2.2714648189     -3.8953196887    
  H     -1.9170961784     -2.2007779480      0.5568476974    
  H     -2.4817005569     -2.0675734697     -1.1144116517    
  H     -3.6496362032     -2.1476679058      0.2174642777    
73
 Energy =        -1168.36151766 Eh        #Cluster:     0
  C      4.9578945074      2.8059332861      1.8062850487    
  C      6.4409643379      2.7201792328      2.0790837104    
  C      7.1327706677      4.0350433841      1.6972181319    
  H      6.8894078886      1.8862781921      1.5272044762    
  H      6.6138657971      2.5485590755      3.1518628018    
  C      4.2962637183      3.9651465176      2.4449748938    
  C      4.9865817400      5.2896717422      2.2044547156    
  C      6.4989164492      5.2032884923      2.4542633743    
  H      4.5372014268      6.0695532784      2.8284325976    
  H      4.8188003349      5.5806244458      1.1563097310    
  H      6.6868602925      5.0618839898      3.5273223082    
  H      6.9837175870      6.1396629910      2.1547474579    
  O      7.0888166113      4.2374985216      0.2748591744    
  H      8.1994450421      3.9732510064      1.9460174966    
  C      4.3428346533      1.9202150711      0.9867193306    
  C      3.2019212633      3.8548750439      3.2060009009    
  H      2.7301773437      2.8917010540      3.3814478066    
  H      2.7594785632      4.7284741803      3.6789622307    
  C      2.9607297275      1.9640388514      0.5685320545    
  H      4.9660365971      1.1219011395      0.5853368352    
  C      2.3148666714      1.0344830604     -0.1671916986    
  H      2.4011960919      2.8450160367      0.8748331290    
  C      2.9039310942     -0.2616801026     -0.6625341581    
  C      2.0611905063     -1.4729612552     -0.2176116098    
  H      3.9406535418     -0.3969545679     -0.3426017117    
  H      2.9067189624     -0.2329583862     -1.7637706796    
  C      0.5719127657     -1.3124917979     -0.5524312163    
  H      2.1856494896     -1.6168510073      0.8630980594    
  H      2.4506043425     -2.3781922251     -0.6993809482    
  C      0.0000000000      0.0000000000      0.0000000000    
  H      0.0258628776     -2.1790657856     -0.1651485816    
  H      0.4445302636     -1.3149742557     -1.6455132473    
  C      0.8756302968      1.1662515282     -0.5611003306    
  H      0.8390700505      1.0348196526     -1.6580758686    
  C      0.0774130139      2.4243785899     -0.2307988601    
  H      6.2045363978      3.9881311889     -0.0293568301    
  C     -1.3951187439      1.9762170837     -0.4000071665    
  H      0.3453853252      3.2639647045     -0.8806990931    
  H      0.2628316192      2.7431280734      0.8010144782    
  C     -1.3882269500      0.4255717978     -0.5523700875    
  H     -1.8695741435      2.4452387602     -1.2676833677    
  H     -1.9945430264      2.2640334707      0.4716950428    
  H     -1.3852074822      0.1786714984     -1.6268186443    
  C     -2.6573424787     -0.2070477117      0.0533762021    
  C     -0.0000000000      0.0000000000      1.5346923800    
  H     -0.5098405606      0.8810584954      1.9372469763    
  H      1.0178904472      0.0000000000      1.9367412607    
  H     -0.5148799213     -0.8866932393      1.9208072386    
  H     -2.6905800972      0.0409388150      1.1245324947    
  C     -2.7143606450     -1.7347026949     -0.1009915605    
  C     -3.8731564957      0.3962179911     -0.5977325041    
  C     -4.8509244396      1.0391043587      0.0389222007    
  H     -3.9412350501      0.2673574126     -1.6828097044    
  H     -4.7723400682      1.1688682923      1.1216696613    
  C     -6.0657644856      1.6353399010     -0.6150528973    
  C     -6.1768510443      3.1257775479     -0.2626840506    
  C     -7.3703764846      0.8634989112     -0.2760423935    
  H     -5.9340393127      1.5541167293     -1.7045301712    
  H     -8.1873419134      1.4261930847     -0.7537717169    
  C     -7.6635245451      0.7907224852      1.2246749756    
  C     -7.3478043591     -0.5408958937     -0.8810502071    
  H     -6.2241499542      3.2776696111      0.8212575248    
  H     -7.0762407757      3.5670212448     -0.7077443791    
  H     -5.3045713351      3.6738472380     -0.6345897015    
  H     -7.6864066554      1.7810883424      1.6907092853    
  H     -6.9086351711      0.1877922484      1.7427328332    
  H     -8.6372345827      0.3192776715      1.3977017958    
  H     -7.1684173738     -0.5054607623     -1.9618847259    
  H     -8.3000269970     -1.0555459430     -0.7101187596    
  H     -6.5510419556     -1.1432413972     -0.4287318153    
  H     -1.9478416416     -2.2333239884      0.4977304678    
  H     -2.5712923549     -2.0252500981     -1.1490463293    
  H     -3.6908124510     -2.1101911828      0.2235046716    
73
 Energy =        -1168.35942736 Eh        #Cluster:     0
  C      5.0010233845      2.6959263424      1.8494800386    
  C      6.4808970032      2.5868497550      2.1319424202    
  C      7.1923475357      3.8996063918      1.7798350020    
  H      6.9234604953      1.7575294918      1.5686647642    
  H      6.6431149782      2.3939603225      3.2028386002    
  C      4.3485314830      3.8541803447      2.4993399678    
  C      5.0587852891      5.1729379225      2.2880871407    
  C      6.5664886380      5.0619304248      2.5528372583    
  H      4.6129419357      5.9483738038      2.9200298650    
  H      4.9071939919      5.4836879761      1.2431129206    
  H      6.7411616293      4.8969883141      3.6247064954    
  H      7.0670995493      5.9972590087      2.2766770062    
  O      7.1630492223      4.1275568787      0.3608552397    
  H      8.2559484971      3.8201066622      2.0363975034    
  C      4.3791496689      1.8284366434      1.0156912700    
  C      3.2443215505      3.7460637069      3.2465201526    
  H      2.7585133267      2.7863092790      3.4010337423    
  H      2.8076910294      4.6175824277      3.7287242892    
  C      3.0002174205      1.8983010338      0.5898918277    
  H      4.9925643623      1.0261283653      0.6073394355    
  C      2.3395533403      0.9809576854     -0.1479509021    
  H      2.4562332996      2.7900364907      0.8933661695    
  C      2.9040530784     -0.3296088210     -0.6346497692    
  C      2.0276336696     -1.5206188995     -0.1993053063    
  H      3.9326727515     -0.4873496577     -0.2990301721    
  H      2.9230844858     -0.3031099719     -1.7357759277    
  C      0.5469253500     -1.3241489220     -0.5517047665    
  H      2.1348591270     -1.6672573114      0.8828720371    
  H      2.4008717519     -2.4348961993     -0.6767249332    
  C      0.0000000000      0.0000000000      0.0000000000    
  H     -0.0250263620     -2.1790109683     -0.1759285235    
  H      0.4333695488     -1.3181486241     -1.6462885540    
  C      0.9068714424      1.1457905383     -0.5514146804    
  H      0.8746841281      1.0208646552     -1.6497699602    
  C      0.1348373767      2.4175460147     -0.2176421165    
  H      6.2757119352      3.9026119912      0.0467113780    
  C     -1.3412748598      2.0090379289     -0.4400186706    
  H      0.4394858680      3.2633560205     -0.8430644862    
  H      0.3002872837      2.7110543531      0.8251259269    
  C     -1.3778258605      0.4531359465     -0.5632682879    
  H     -1.7511383649      2.4795190699     -1.3379784434    
  H     -1.9733537971      2.3357612100      0.3945161846    
  H     -1.3715756290      0.1812840184     -1.6305065310    
  C     -2.6446509402     -0.1387851677      0.0705598077    
  C     -0.0000000000     -0.0000000000      1.5354518898    
  H     -0.5076563618      0.8812536477      1.9406416095    
  H      1.0191679842     -0.0000000000      1.9341240416    
  H     -0.5131623304     -0.8858984277      1.9246191214    
  H     -2.6548982952      0.1647916696      1.1291903293    
  C     -2.7106762256     -1.6767673977      0.0326611452    
  C     -3.9237405297      0.3887079051     -0.5413575963    
  C     -4.0933602157      0.9002153713     -1.7602156729    
  H     -4.8094535190      0.2681788947      0.0891290547    
  H     -3.2348099374      1.0109804724     -2.4247308874    
  C     -5.4169062472      1.3359226948     -2.3243138156    
  C     -5.7600262072      0.5123166258     -3.5742480696    
  C     -5.4714392945      2.8619627072     -2.6044662898    
  H     -6.1868712100      1.1333583412     -1.5646604611    
  H     -6.4720201018      3.0571830986     -3.0205733372    
  C     -4.4374361876      3.3340180636     -3.6300765047    
  C     -5.3350579152      3.6617291597     -1.3078596051    
  H     -4.9718416889      0.5838505416     -4.3318039442    
  H     -6.6973681174      0.8590497398     -4.0253144844    
  H     -5.8729946500     -0.5456357765     -3.3152898026    
  H     -4.5180134767      2.7938829936     -4.5787483567    
  H     -3.4175262450      3.2047100986     -3.2490645680    
  H     -4.5755890458      4.4001247255     -3.8417070024    
  H     -6.0842971260      3.3540689970     -0.5690018128    
  H     -5.4617323796      4.7338307552     -1.4957761432    
  H     -4.3442457401      3.5098082857     -0.8630386696    
  H     -1.9584583300     -2.1369827537      0.6786145713    
  H     -2.5598555472     -2.0391836836     -0.9910499065    
  H     -3.6944009247     -2.0233319394      0.3688140109    
73
 Energy =        -1168.36022501 Eh        #Cluster:     0
  C      4.9801553134      2.7908124928      1.7885774122    
  C      6.4648260366      2.7015833310      2.0514269136    
  C      7.1574525722      4.0148240990      1.6654483268    
  H      6.9075383347      1.8667307567      1.4964735658    
  H      6.6440261520      2.5297475020      3.1231346594    
  C      4.3253231751      3.9517470989      2.4311413312    
  C      5.0174181820      5.2746008597      2.1870310807    
  C      6.5311400465      5.1843840552      2.4268838838    
  H      4.5741488643      6.0551115379      2.8145926650    
  H      4.8432023426      5.5672843415      1.1403693514    
  H      6.7256358507      5.0422793126      3.4986749807    
  H      7.0162564651      6.1196571585      2.1244069896    
  O      7.1061908067      4.2175480929      0.2435614094    
  H      8.2254080609      3.9504891588      1.9079005859    
  C      4.3574662062      1.9062215435      0.9735735011    
  C      3.2348123535      3.8438879340      3.1980682493    
  H      2.7622027702      2.8815903557      3.3757479326    
  H      2.7967207292      4.7182123840      3.6737330278    
  C      2.9728939508      1.9534429842      0.5635832232    
  H      4.9761240839      1.1063929303      0.5682424989    
  C      2.3211316447      1.0251858162     -0.1684440776    
  H      2.4180002325      2.8366724434      0.8718907008    
  C      2.9045637180     -0.2730574457     -0.6644914637    
  C      2.0565987726     -1.4796894569     -0.2181275326    
  H      3.9409232998     -0.4124597042     -0.3453488271    
  H      2.9061281154     -0.2444760556     -1.7657235665    
  C      0.5684007615     -1.3135496592     -0.5543766318    
  H      2.1797297259     -1.6221210029      0.8629675290    
  H      2.4421153444     -2.3875113444     -0.6981157566    
  C      0.0000000000      0.0000000000      0.0000000000    
  H      0.0200067915     -2.1796098540     -0.1702864541    
  H      0.4425705791     -1.3129422537     -1.6476110782    
  C      0.8815246729      1.1626928691     -0.5597490800    
  H      0.8437836563      1.0342056948     -1.6570400879    
  C      0.0912418363      2.4240400104     -0.2257975287    
  H      6.2169588544      3.9793288803     -0.0549737281    
  C     -1.3841540795      1.9844373886     -0.3919795898    
  H      0.3613277684      3.2629762672     -0.8754967838    
  H      0.2807111414      2.7405294844      0.8058875639    
  C     -1.3857983423      0.4337963352     -0.5546875766    
  H     -1.8559745084      2.4637118639     -1.2556215486    
  H     -1.9713755438      2.2737548561      0.4878511274    
  H     -1.3824990562      0.1962583415     -1.6309827694    
  C     -2.6623136281     -0.2137631440      0.0366175139    
  C     -0.0000000000      0.0000000000      1.5346978546    
  H     -0.5088416886      0.8811238298      1.9383743881    
  H      1.0182332918      0.0000000000      1.9359352875    
  H     -0.5139763470     -0.8865212835      1.9220650418    
  H     -2.6878878857      0.0474911945      1.1074690870    
  C     -2.6825662723     -1.7366210141     -0.0859896831    
  C     -3.8662742943      0.4368401465     -0.6014116278    
  C     -4.7313223448     -0.1305266081     -1.4430436465    
  H     -4.0091671824      1.4930052195     -0.3649299817    
  H     -4.6243293734     -1.1846450202     -1.7032427514    
  C     -5.8803268665      0.5898501437     -2.0921234416    
  C     -7.1921560038     -0.1727442385     -1.8626680897    
  C     -5.6273757124      0.8638403379     -3.6007497719    
  H     -5.9726335779      1.5761823147     -1.6132249791    
  H     -6.5489560544      1.3306285347     -3.9818366628    
  C     -5.3701313156     -0.4061146793     -4.4158319672    
  C     -4.4815558641      1.8588514766     -3.7935214915    
  H     -7.1293735441     -1.1993820157     -2.2399619906    
  H     -8.0275437493      0.3244570852     -2.3692293118    
  H     -7.4224691076     -0.2281807037     -0.7934819528    
  H     -6.1770412552     -1.1381693355     -4.3086671616    
  H     -4.4324964864     -0.8846429291     -4.1091539656    
  H     -5.2824337244     -0.1613946548     -5.4801511867    
  H     -4.6592914185      2.7839165386     -3.2328090038    
  H     -4.3645560652      2.1181452968     -4.8517583359    
  H     -3.5343488469      1.4317121070     -3.4428926378    
  H     -1.9267082992     -2.1936796799      0.5557505202    
  H     -2.4887165684     -2.0569832661     -1.1165359211    
  H     -3.6580419800     -2.1339152183      0.2145165266    
73
 Energy =        -1168.36025927 Eh        #Cluster:     0
  C      4.9458084815      2.8105284101      1.8210144477    
  C      6.4264881926      2.7244718865      2.1061802048    
  C      7.1228858852      4.0369882431      1.7243504551    
  H      6.8787339940      1.8878112432      1.5615951346    
  H      6.5903565875      2.5571357568      3.1810717766    
  C      4.2805956825      3.9728118784      2.4505295955    
  C      4.9732167482      5.2956318413      2.2076264505    
  C      6.4835125870      5.2096113919      2.4697743090    
  H      4.5195898872      6.0793589921      2.8236689783    
  H      4.8137027987      5.5807995362      1.1566051647    
  H      6.6625468622      5.0737551635      3.5450791059    
  H      6.9713852790      6.1441128788      2.1693926600    
  O      7.0922846933      4.2320171115      0.3005963974    
  H      8.1871904401      3.9755005992      1.9831558005    
  C      4.3360906139      1.9227856258      0.9997287016    
  C      3.1823138620      3.8665456141      3.2063340175    
  H      2.7091015390      2.9044795211      3.3840436540    
  H      2.7378630524      4.7425729253      3.6728935674    
  C      2.9565135773      1.9662203584      0.5733372476    
  H      4.9613722796      1.1226186445      0.6053044645    
  C      2.3137620345      1.0357346251     -0.1639765661    
  H      2.3952064108      2.8472619400      0.8761756854    
  C      2.9052456623     -0.2601873949     -0.6571803974    
  C      2.0618361583     -1.4728297697     -0.2168874258    
  H      3.9408353882     -0.3949875629     -0.3332768023    
  H      2.9130190881     -0.2308547610     -1.7584167190    
  C      0.5727938878     -1.3119860553     -0.5531922445    
  H      2.1846322819     -1.6202018234      0.8635441782    
  H      2.4521388961     -2.3765799651     -0.7007336777    
  C      0.0000000000      0.0000000000      0.0000000000    
  H      0.0263213861     -2.1792482958     -0.1680324914    
  H      0.4462380633     -1.3126603493     -1.6463634327    
  C      0.8754656249      1.1664376157     -0.5612946631    
  H      0.8406566615      1.0337000558     -1.6581897736    
  C      0.0758503342      2.4239849091     -0.2334571417    
  H      6.2097380420      3.9843941504     -0.0100329743    
  C     -1.3957292728      1.9751939296     -0.4084055766    
  H      0.3457353760      3.2641876342     -0.8817901477    