73
 Energy =        -1168.36168282 Eh        #Cluster:     0
  C     -4.9970955600      0.2151337400     -0.4994928600    
  C     -6.4448492500     -0.1838003900     -0.6619555300    
  C     -7.3540414000      0.7603346300      0.1350759100    
  H     -6.6008698400     -1.2184816400     -0.3361250800    
  H     -6.7342648200     -0.1147645300     -1.7210794900    
  C     -4.7238973500      1.6309414100     -0.8317393400    
  C     -5.6547439200      2.6202012000     -0.1657949900    
  C     -7.1268698700      2.2074689000     -0.3051145900    
  H     -5.4959495400      3.6237627900     -0.5746624500    
  H     -5.4014204500      2.6660448500      0.9043253400    
  H     -7.4374041800      2.3018160400     -1.3546254900    
  H     -7.7625319600      2.8748051100      0.2883288900    
  O     -7.1430383300      0.5953810000      1.5472824700    
  H     -8.4031109300      0.4869088500     -0.0327242500    
  C     -4.0772516200     -0.6583761700     -0.0250680800    
  C     -3.7627750400      2.0106351300     -1.6808234700    
  H     -3.1153103500      1.2835236000     -2.1636767400    
  H     -3.6100863700      3.0606795500     -1.9189756700    
  C     -2.6936961000     -0.3628925300      0.2677947700    
  H     -4.4318995900     -1.6678537100      0.1797756900    
  C     -1.7432806500     -1.2495370200      0.6324500600    
  H     -2.4063349100      0.6832439100      0.1891654100    
  C     -1.9331742200     -2.7391576100      0.7642598800    
  C     -0.9259202000     -3.5166390500     -0.1057767000    
  H     -2.9511966100     -3.0527502800      0.5177221900    
  H     -1.7573360400     -3.0112407900      1.8171377800    
  C      0.5231174400     -3.0625083500      0.1173300700    
  H     -1.1957523100     -3.3921508300     -1.1621251000    
  H     -1.0131578200     -4.5878069900      0.1137968000    
  C      0.6813700100     -1.5461681200     -0.0598818500    
  H      1.1771646400     -3.6141505700     -0.5660944500    
  H      0.8320131600     -3.3267464000      1.1399705400    
  C     -0.3263467100     -0.8533960600      0.9133877800    
  H     -0.0768146900     -1.2659202900      1.9080531000    
  C      0.1010593600      0.6114888600      0.9122866200    
  H     -6.1892273200      0.5209515500      1.6935987800    
  C      1.6437218000      0.5402493100      0.8000005500    
  H     -0.2376311400      1.1395491400      1.8098153700    
  H     -0.3201419600      1.1392626200      0.0493589400    
  C      2.0122215700     -0.9350519700      0.4592789300    
  H      2.1365410400      0.8547408400      1.7252847700    
  H      2.0106273300      1.2095011100      0.0129905800    
  H      2.2529307200     -1.4625659700      1.3968637500    
  C      3.2648047400     -1.0110335500     -0.4372797700    
  C      0.4180836900     -1.1285237900     -1.5128486300    
  H      0.6359715000     -0.0676608600     -1.6722808300    
  H     -0.6264802400     -1.2930370400     -1.7948744900    
  H      1.0475702800     -1.7037256800     -2.2006510300    
  H      3.0545073000     -0.4671368800     -1.3699658600    
  C      3.6822884300     -2.4475341500     -0.7867348100    
  C      4.4138146500     -0.3222542500      0.2499079200    
  C      5.0835123000      0.7248840000     -0.2271487600    
  H      4.7138258700     -0.7502807300      1.2117855000    
  H      4.7821248700      1.1512038200     -1.1894985700    
  C      6.2268727400      1.4185439400      0.4591377400    
  C      5.7988949600      2.8489648500      0.8259760200    
  C      7.5003151800      1.3960336400     -0.4219597500    
  H      6.4559200400      0.8722626200      1.3882549900    
  H      7.2513101800      1.9068858300     -1.3663297200    
  C      7.9160284100     -0.0413847900     -0.7462482900    
  C      8.6675798700      2.1389814100      0.2340520700    
  H      5.6515874200      3.4506756100     -0.0797782300    
  H      6.5446106000      3.3500233300      1.4501638200    
  H      4.8531568600      2.8331094100      1.3775684200    
  H      7.1216310500     -0.5842984500     -1.2672499500    
  H      8.1445929600     -0.5889324600      0.1775450400    
  H      8.8124897600     -0.0548301000     -1.3758343000    
  H      8.4684899000      3.2079088400      0.3515575200    
  H      9.5747468200      2.0349683900     -0.3712884000    
  H      8.8783611700      1.7203562400      1.2267829400    
  H      2.9505276700     -2.9391767100     -1.4327658900    
  H      3.7951464400     -3.0515512000      0.1220123000    
  H      4.6440605200     -2.4439182600     -1.3110445700    
73
 Energy =        -1168.36168282 Eh        #Cluster:     0
  C     -4.9970955600      0.2151337400     -0.4994928600    
  C     -6.4448492500     -0.1838003900     -0.6619555300    
  C     -7.3540414000      0.7603346300      0.1350759100    
  H     -6.6008698400     -1.2184816400     -0.3361250800    
  H     -6.7342648200     -0.1147645300     -1.7210794900    
  C     -4.7238973500      1.6309414100     -0.8317393400    
  C     -5.6547439200      2.6202012000     -0.1657949900    
  C     -7.1268698700      2.2074689000     -0.3051145900    
  H     -5.4959495400      3.6237627900     -0.5746624500    
  H     -5.4014204500      2.6660448500      0.9043253400    
  H     -7.4374041800      2.3018160400     -1.3546254900    
  H     -7.7625319600      2.8748051100      0.2883288900    
  O     -7.1430383300      0.5953810000      1.5472824700    
  H     -8.4031109300      0.4869088500     -0.0327242500    
  C     -4.0772516200     -0.6583761700     -0.0250680800    
  C     -3.7627750400      2.0106351300     -1.6808234700    
  H     -3.1153103500      1.2835236000     -2.1636767400    
  H     -3.6100863700      3.0606795500     -1.9189756700    
  C     -2.6936961000     -0.3628925300      0.2677947700    
  H     -4.4318995900     -1.6678537100      0.1797756900    
  C     -1.7432806500     -1.2495370200      0.6324500600    
  H     -2.4063349100      0.6832439100      0.1891654100    
  C     -1.9331742200     -2.7391576100      0.7642598800    
  C     -0.9259202000     -3.5166390500     -0.1057767000    
  H     -2.9511966100     -3.0527502800      0.5177221900    
  H     -1.7573360400     -3.0112407900      1.8171377800    
  C      0.5231174400     -3.0625083500      0.1173300700    
  H     -1.1957523100     -3.3921508300     -1.1621251000    
  H     -1.0131578200     -4.5878069900      0.1137968000    
  C      0.6813700100     -1.5461681200     -0.0598818500    
  H      1.1771646400     -3.6141505700     -0.5660944500    
  H      0.8320131600     -3.3267464000      1.1399705400    
  C     -0.3263467100     -0.8533960600      0.9133877800    
  H     -0.0768146900     -1.2659202900      1.9080531000    
  C      0.1010593600      0.6114888600      0.9122866200    
  H     -6.1892273200      0.5209515500      1.6935987800    
  C      1.6437218000      0.5402493100      0.8000005500    
  H     -0.2376311400      1.1395491400      1.8098153700    
  H     -0.3201419600      1.1392626200      0.0493589400    
  C      2.0122215700     -0.9350519700      0.4592789300    
  H      2.1365410400      0.8547408400      1.7252847700    
  H      2.0106273300      1.2095011100      0.0129905800    
  H      2.2529307200     -1.4625659700      1.3968637500    
  C      3.2648047400     -1.0110335500     -0.4372797700    
  C      0.4180836900     -1.1285237900     -1.5128486300    
  H      0.6359715000     -0.0676608600     -1.6722808300    
  H     -0.6264802400     -1.2930370400     -1.7948744900    
  H      1.0475702800     -1.7037256800     -2.2006510300    
  H      3.0545073000     -0.4671368800     -1.3699658600    
  C      3.6822884300     -2.4475341500     -0.7867348100    
  C      4.4138146500     -0.3222542500      0.2499079200    
  C      5.0835123000      0.7248840000     -0.2271487600    
  H      4.7138258700     -0.7502807300      1.2117855000    
  H      4.7821248700      1.1512038200     -1.1894985700    
  C      6.2268727400      1.4185439400      0.4591377400    
  C      5.6654960301      2.4511461781      1.4503128461    
  C      7.1882008918      2.0592328251     -0.5722986785    
  H      6.7996171713      0.6657850154      1.0243479914    
  H      6.5988182702      2.7801742251     -1.1619423958    
  C      7.7510713935      1.0020127139     -1.5260359194    
  C      8.3367881182      2.8142242524      0.1026569359    
  H      5.1663072181      3.2677677868      0.9135766077    
  H      6.4513547083      2.8849015150      2.0756481734    
  H      4.9289642704      1.9823755788      2.1111465746    
  H      6.9554759406      0.4810814019     -2.0672600700    
  H      8.3221137281      0.2498625945     -0.9660134457    
  H      8.4247945670      1.4584669285     -2.2594859230    
  H      7.9877683666      3.6742550049      0.6810880168    
  H      9.0437509140      3.1840711507     -0.6480923867    
  H      8.8867971173      2.1482339702      0.7802537294    
  H      2.9505276700     -2.9391767100     -1.4327658900    
  H      3.7951464400     -3.0515512000      0.1220123000    
  H      4.6440605200     -2.4439182600     -1.3110445700    
73
 Energy =        -1168.36168282 Eh        #Cluster:     0
  C     -4.9970955600      0.2151337400     -0.4994928600    
  C     -6.4448492500     -0.1838003900     -0.6619555300    
  C     -7.3540414000      0.7603346300      0.1350759100    
  H     -6.6008698400     -1.2184816400     -0.3361250800    
  H     -6.7342648200     -0.1147645300     -1.7210794900    
  C     -4.7238973500      1.6309414100     -0.8317393400    
  C     -5.6547439200      2.6202012000     -0.1657949900    
  C     -7.1268698700      2.2074689000     -0.3051145900    
  H     -5.4959495400      3.6237627900     -0.5746624500    
  H     -5.4014204500      2.6660448500      0.9043253400    
  H     -7.4374041800      2.3018160400     -1.3546254900    
  H     -7.7625319600      2.8748051100      0.2883288900    
  O     -7.1430383300      0.5953810000      1.5472824700    
  H     -8.4031109300      0.4869088500     -0.0327242500    
  C     -4.0772516200     -0.6583761700     -0.0250680800    
  C     -3.7627750400      2.0106351300     -1.6808234700    
  H     -3.1153103500      1.2835236000     -2.1636767400    
  H     -3.6100863700      3.0606795500     -1.9189756700    
  C     -2.6936961000     -0.3628925300      0.2677947700    
  H     -4.4318995900     -1.6678537100      0.1797756900    
  C     -1.7432806500     -1.2495370200      0.6324500600    
  H     -2.4063349100      0.6832439100      0.1891654100    
  C     -1.9331742200     -2.7391576100      0.7642598800    
  C     -0.9259202000     -3.5166390500     -0.1057767000    
  H     -2.9511966100     -3.0527502800      0.5177221900    
  H     -1.7573360400     -3.0112407900      1.8171377800    
  C      0.5231174400     -3.0625083500      0.1173300700    
  H     -1.1957523100     -3.3921508300     -1.1621251000    
  H     -1.0131578200     -4.5878069900      0.1137968000    
  C      0.6813700100     -1.5461681200     -0.0598818500    
  H      1.1771646400     -3.6141505700     -0.5660944500    
  H      0.8320131600     -3.3267464000      1.1399705400    
  C     -0.3263467100     -0.8533960600      0.9133877800    
  H     -0.0768146900     -1.2659202900      1.9080531000    
  C      0.1010593600      0.6114888600      0.9122866200    
  H     -6.1892273200      0.5209515500      1.6935987800    
  C      1.6437218000      0.5402493100      0.8000005500    
  H     -0.2376311400      1.1395491400      1.8098153700    
  H     -0.3201419600      1.1392626200      0.0493589400    
  C      2.0122215700     -0.9350519700      0.4592789300    
  H      2.1365410400      0.8547408400      1.7252847700    
  H      2.0106273300      1.2095011100      0.0129905800    
  H      2.2529307200     -1.4625659700      1.3968637500    
  C      3.2648047400     -1.0110335500     -0.4372797700    
  C      0.4180836900     -1.1285237900     -1.5128486300    
  H      0.6359715000     -0.0676608600     -1.6722808300    
  H     -0.6264802400     -1.2930370400     -1.7948744900    
  H      1.0475702800     -1.7037256800     -2.2006510300    
  H      3.0545073000     -0.4671368800     -1.3699658600    
  C      3.6822884300     -2.4475341500     -0.7867348100    
  C      4.4138146500     -0.3222542500      0.2499079200    
  C      5.0835123000      0.7248840000     -0.2271487600    
  H      4.7138258700     -0.7502807300      1.2117855000    
  H      4.7821248700      1.1512038200     -1.1894985700    
  C      6.2268727400      1.4185439400      0.4591377400    
  C      5.7848426910      1.8387217348      1.8704843807    
  C      6.7318151406      2.6195068700     -0.3782488860    
  H      7.0604363850      0.7038335541      0.5513631402    
  H      5.8815452724      3.3097769265     -0.5022508643    
  C      7.1900970083      2.1645365146     -1.7664606836    
  C      7.8658488662      3.3734598504      0.3220026159    
  H      5.0170011135      2.6207860537      1.8162550134    
  H      6.6210952995      2.2229184396      2.4619539849    
  H      5.3580884655      0.9839265285      2.4053975613    
  H      6.3837796682      1.6700600730     -2.3165611593    
  H      8.0205059156      1.4517287299     -1.6783106426    
  H      7.5396872179      3.0165899889     -2.3597513667    
  H      7.5410266476      3.8430529170      1.2547528910    
  H      8.2577036950      4.1632804964     -0.3282594917    
  H      8.6933941451      2.6905386575      0.5543338993    
  H      2.9505276700     -2.9391767100     -1.4327658900    
  H      3.7951464400     -3.0515512000      0.1220123000    
  H      4.6440605200     -2.4439182600     -1.3110445700    
73
 Energy =        -1168.36168282 Eh        #Cluster:     0
  C     -4.9970955600      0.2151337400     -0.4994928600    
  C     -6.4448492500     -0.1838003900     -0.6619555300    
  C     -7.3540414000      0.7603346300      0.1350759100    
  H     -6.6008698400     -1.2184816400     -0.3361250800    
  H     -6.7342648200     -0.1147645300     -1.7210794900    
  C     -4.7238973500      1.6309414100     -0.8317393400    
  C     -5.6547439200      2.6202012000     -0.1657949900    
  C     -7.1268698700      2.2074689000     -0.3051145900    
  H     -5.4959495400      3.6237627900     -0.5746624500    
  H     -5.4014204500      2.6660448500      0.9043253400    
  H     -7.4374041800      2.3018160400     -1.3546254900    
  H     -7.7625319600      2.8748051100      0.2883288900    
  O     -7.1430383300      0.5953810000      1.5472824700    
  H     -8.4031109300      0.4869088500     -0.0327242500    
  C     -4.0772516200     -0.6583761700     -0.0250680800    
  C     -3.7627750400      2.0106351300     -1.6808234700    
  H     -3.1153103500      1.2835236000     -2.1636767400    
  H     -3.6100863700      3.0606795500     -1.9189756700    
  C     -2.6936961000     -0.3628925300      0.2677947700    
  H     -4.4318995900     -1.6678537100      0.1797756900    
  C     -1.7432806500     -1.2495370200      0.6324500600    
  H     -2.4063349100      0.6832439100      0.1891654100    
  C     -1.9331742200     -2.7391576100      0.7642598800    
  C     -0.9259202000     -3.5166390500     -0.1057767000    
  H     -2.9511966100     -3.0527502800      0.5177221900    
  H     -1.7573360400     -3.0112407900      1.8171377800    
  C      0.5231174400     -3.0625083500      0.1173300700    
  H     -1.1957523100     -3.3921508300     -1.1621251000    
  H     -1.0131578200     -4.5878069900      0.1137968000    
  C      0.6813700100     -1.5461681200     -0.0598818500    
  H      1.1771646400     -3.6141505700     -0.5660944500    
  H      0.8320131600     -3.3267464000      1.1399705400    
  C     -0.3263467100     -0.8533960600      0.9133877800    
  H     -0.0768146900     -1.2659202900      1.9080531000    
  C      0.1010593600      0.6114888600      0.9122866200    
  H     -6.1892273200      0.5209515500      1.6935987800    
  C      1.6437218000      0.5402493100      0.8000005500    
  H     -0.2376311400      1.1395491400      1.8098153700    
  H     -0.3201419600      1.1392626200      0.0493589400    
  C      2.0122215700     -0.9350519700      0.4592789300    
  H      2.1365410400      0.8547408400      1.7252847700    
  H      2.0106273300      1.2095011100      0.0129905800    
  H      2.2529307200     -1.4625659700      1.3968637500    
  C      3.2648047400     -1.0110335500     -0.4372797700    
  C      0.4180836900     -1.1285237900     -1.5128486300    
  H      0.6359715000     -0.0676608600     -1.6722808300    
  H     -0.6264802400     -1.2930370400     -1.7948744900    
  H      1.0475702800     -1.7037256800     -2.2006510300    
  H      3.0545073000     -0.4671368800     -1.3699658600    
  C      3.6822884300     -2.4475341500     -0.7867348100    
  C      4.4138146500     -0.3222542500      0.2499079200    
  C      5.0835123000      0.7248840000     -0.2271487600    
  H      4.7138258700     -0.7502807300      1.2117855000    
  H      4.7821248700      1.1512038200     -1.1894985700    
  C      6.2268727400      1.4185439400      0.4591377400    
  C      6.1249561014      1.1757901551      1.9739060003    
  C      6.2534461197      2.9267307969      0.1081941425    
  H      7.1684913834      0.9762131610      0.0960363455    
  H      5.2916839071      3.3537873181      0.4359810616    
  C      6.3834178879      3.1346892985     -1.4031009613    
  C      7.3809499062      3.6668414772      0.8333156122    
  H      5.2436755563      1.6830886437      2.3863850371    
  H      7.0083505192      1.5414519343      2.5055709245    
  H      6.0255459638      0.1052958759      2.1814770658    
  H      5.5597277871      2.6640516885     -1.9483531923    
  H      7.3205850925      2.6946268859     -1.7684870921    
  H      6.3943315120      4.2020412654     -1.6497645864    
  H      7.2479688260      3.6690733123      1.9188391028    
  H      7.4272258807      4.7102180737      0.5025113193    
  H      8.3499744235      3.2019601989      0.6095584859    
  H      2.9505276700     -2.9391767100     -1.4327658900    
  H      3.7951464400     -3.0515512000      0.1220123000    
  H      4.6440605200     -2.4439182600     -1.3110445700    
73
 Energy =        -1168.36168282 Eh        #Cluster:     0
  C     -4.9970955600      0.2151337400     -0.4994928600    
  C     -6.4448492500     -0.1838003900     -0.6619555300    
  C     -7.3540414000      0.7603346300      0.1350759100    
  H     -6.6008698400     -1.2184816400     -0.3361250800    
  H     -6.7342648200     -0.1147645300     -1.7210794900    
  C     -4.7238973500      1.6309414100     -0.8317393400    
  C     -5.6547439200      2.6202012000     -0.1657949900    
  C     -7.1268698700      2.2074689000     -0.3051145900    
  H     -5.4959495400      3.6237627900     -0.5746624500    
  H     -5.4014204500      2.6660448500      0.9043253400    
  H     -7.4374041800      2.3018160400     -1.3546254900    
  H     -7.7625319600      2.8748051100      0.2883288900    
  O     -7.1430383300      0.5953810000      1.5472824700    
  H     -8.4031109300      0.4869088500     -0.0327242500    
  C     -4.0772516200     -0.6583761700     -0.0250680800    
  C     -3.7627750400      2.0106351300     -1.6808234700    
  H     -3.1153103500      1.2835236000     -2.1636767400    
  H     -3.6100863700      3.0606795500     -1.9189756700    
  C     -2.6936961000     -0.3628925300      0.2677947700    
  H     -4.4318995900     -1.6678537100      0.1797756900    
  C     -1.7432806500     -1.2495370200      0.6324500600    
  H     -2.4063349100      0.6832439100      0.1891654100    
  C     -1.9331742200     -2.7391576100      0.7642598800    
  C     -0.9259202000     -3.5166390500     -0.1057767000    
  H     -2.9511966100     -3.0527502800      0.5177221900    
  H     -1.7573360400     -3.0112407900      1.8171377800    
  C      0.5231174400     -3.0625083500      0.1173300700    
  H     -1.1957523100     -3.3921508300     -1.1621251000    
  H     -1.0131578200     -4.5878069900      0.1137968000    
  C      0.6813700100     -1.5461681200     -0.0598818500    
  H      1.1771646400     -3.6141505700     -0.5660944500    
  H      0.8320131600     -3.3267464000      1.1399705400    
  C     -0.3263467100     -0.8533960600      0.9133877800    
  H     -0.0768146900     -1.2659202900      1.9080531000    
  C      0.1010593600      0.6114888600      0.9122866200    
  H     -6.1892273200      0.5209515500      1.6935987800    
  C      1.6437218000      0.5402493100      0.8000005500    
  H     -0.2376311400      1.1395491400      1.8098153700    
  H     -0.3201419600      1.1392626200      0.0493589400    
  C      2.0122215700     -0.9350519700      0.4592789300    
  H      2.1365410400      0.8547408400      1.7252847700    
  H      2.0106273300      1.2095011100      0.0129905800    
  H      2.2529307200     -1.4625659700      1.3968637500    
  C      3.2648047400     -1.0110335500     -0.4372797700    
  C      0.4180836900     -1.1285237900     -1.5128486300    
  H      0.6359715000     -0.0676608600     -1.6722808300    
  H     -0.6264802400     -1.2930370400     -1.7948744900    
  H      1.0475702800     -1.7037256800     -2.2006510300    
  H      3.0545073000     -0.4671368800     -1.3699658600    
  C      3.6822884300     -2.4475341500     -0.7867348100    
  C      4.4138146500     -0.3222542500      0.2499079200    
  C      5.0835123000      0.7248840000     -0.2271487600    
  H      4.7138258700     -0.7502807300      1.2117855000    
  H      4.7821248700      1.1512038200     -1.1894985700    
  C      6.2268727400      1.4185439400      0.4591377400    
  C      6.5947031475      0.6399834204      1.7328659654    
  C      5.8812724221      2.8985842027      0.7566883903    
  H      7.0948289170      1.4099399403     -0.2196279459    
  H      4.9872870507      2.9004128510      1.4013548949    
  C      5.5471830512      3.6525194108     -0.5333186965    
  C      7.0120195230      3.6157577628      1.4995900203    
  H      5.7855933127      0.7059308204      2.4712007994    
  H      7.5093556440      1.0231003988      2.1948118683    
  H      6.7524920676     -0.4180880052      1.4993844041    
  H      4.7041243335      3.1967169978     -1.0612971964    
  H      6.4098944779      3.6455235052     -1.2123800874    
  H      5.2956245859      4.6971800459     -0.3197659667    
  H      7.1871195084      3.1989338852      2.4954052882    
  H      6.7748433306      4.6783324005      1.6216156782    
  H      7.9485569897      3.5454636054      0.9311301057    
  H      2.9505276700     -2.9391767100     -1.4327658900    
  H      3.7951464400     -3.0515512000      0.1220123000    
  H      4.6440605200     -2.4439182600     -1.3110445700    
73
 Energy =        -1168.36168282 Eh        #Cluster:     0
  C     -4.9970955600      0.2151337400     -0.4994928600    
  C     -6.4448492500     -0.1838003900     -0.6619555300    
  C     -7.3540414000      0.7603346300      0.1350759100    
  H     -6.6008698400     -1.2184816400     -0.3361250800    
  H     -6.7342648200     -0.1147645300     -1.7210794900    
  C     -4.7238973500      1.6309414100     -0.8317393400    
  C     -5.6547439200      2.6202012000     -0.1657949900    
  C     -7.1268698700      2.2074689000     -0.3051145900    
  H     -5.4959495400      3.6237627900     -0.5746624500    
  H     -5.4014204500      2.6660448500      0.9043253400    
  H     -7.4374041800      2.3018160400     -1.3546254900    
  H     -7.7625319600      2.8748051100      0.2883288900    
  O     -7.1430383300      0.5953810000      1.5472824700    
  H     -8.4031109300      0.4869088500     -0.0327242500    
  C     -4.0772516200     -0.6583761700     -0.0250680800    
  C     -3.7627750400      2.0106351300     -1.6808234700    
  H     -3.1153103500      1.2835236000     -2.1636767400    
  H     -3.6100863700      3.0606795500     -1.9189756700    
  C     -2.6936961000     -0.3628925300      0.2677947700    
  H     -4.4318995900     -1.6678537100      0.1797756900    
  C     -1.7432806500     -1.2495370200      0.6324500600    
  H     -2.4063349100      0.6832439100      0.1891654100    
  C     -1.9331742200     -2.7391576100      0.7642598800    
  C     -0.9259202000     -3.5166390500     -0.1057767000    
  H     -2.9511966100     -3.0527502800      0.5177221900    
  H     -1.7573360400     -3.0112407900      1.8171377800    
  C      0.5231174400     -3.0625083500      0.1173300700    
  H     -1.1957523100     -3.3921508300     -1.1621251000    
  H     -1.0131578200     -4.5878069900      0.1137968000    
  C      0.6813700100     -1.5461681200     -0.0598818500    
  H      1.1771646400     -3.6141505700     -0.5660944500    
  H      0.8320131600     -3.3267464000      1.1399705400    
  C     -0.3263467100     -0.8533960600      0.9133877800    
  H     -0.0768146900     -1.2659202900      1.9080531000    
  C      0.1010593600      0.6114888600      0.9122866200    
  H     -6.1892273200      0.5209515500      1.6935987800    
  C      1.6437218000      0.5402493100      0.8000005500    
  H     -0.2376311400      1.1395491400      1.8098153700    
  H     -0.3201419600      1.1392626200      0.0493589400    
  C      2.0122215700     -0.9350519700      0.4592789300    
  H      2.1365410400      0.8547408400      1.7252847700    
  H      2.0106273300      1.2095011100      0.0129905800    
  H      2.2529307200     -1.4625659700      1.3968637500    
  C      3.2648047400     -1.0110335500     -0.4372797700    
  C      0.4180836900     -1.1285237900     -1.5128486300    
  H      0.6359715000     -0.0676608600     -1.6722808300    
  H     -0.6264802400     -1.2930370400     -1.7948744900    
  H      1.0475702800     -1.7037256800     -2.2006510300    
  H      3.0545073000     -0.4671368800     -1.3699658600    
  C      3.6822884300     -2.4475341500     -0.7867348100    
  C      4.4138146500     -0.3222542500      0.2499079200    
  C      5.0835123000      0.7248840000     -0.2271487600    
  H      4.7138258700     -0.7502807300      1.2117855000    
  H      4.7821248700      1.1512038200     -1.1894985700    
  C      6.2268727400      1.4185439400      0.4591377400    
  C      7.0682154877      0.3748705126      1.2119507589    
  C      5.7150176893      2.5426089446      1.3934703473    
  H      6.8591867841      1.8887971519     -0.3110477420    
  H      5.0499175952      2.0711348476      2.1351994966    
  C      4.9054609474      3.5792746909      0.6098286552    
  C      6.8579123147      3.2338965471      2.1422981508    
  H      6.4975479574     -0.0488587665      2.0479759854    
  H      7.9898667554      0.8067557086      1.6129444544    
  H      7.3441421554     -0.4459848266      0.5418857540    
  H      4.0462275618      3.1253287614      0.1069208906    
  H      5.5324528866      4.0496266066     -0.1589980512    
  H      4.5379640730      4.3693342938      1.2738724366    
  H      7.3747832202      2.5586081156      2.8299610034    
  H      6.4753614223      4.0761672171      2.7291904759    
  H      7.5967013208      3.6290074166      1.4328839029    
  H      2.9505276700     -2.9391767100     -1.4327658900    
  H      3.7951464400     -3.0515512000      0.1220123000    
  H      4.6440605200     -2.4439182600     -1.3110445700    
73
 Energy =        -1168.36168282 Eh        #Cluster:     0
  C     -4.9970955600      0.2151337400     -0.4994928600    
  C     -6.4448492500     -0.1838003900     -0.6619555300    
  C     -7.3540414000      0.7603346300      0.1350759100    
  H     -6.6008698400     -1.2184816400     -0.3361250800    
  H     -6.7342648200     -0.1147645300     -1.7210794900    
  C     -4.7238973500      1.6309414100     -0.8317393400    
  C     -5.6547439200      2.6202012000     -0.1657949900    
  C     -7.1268698700      2.2074689000     -0.3051145900    
  H     -5.4959495400      3.6237627900     -0.5746624500    
  H     -5.4014204500      2.6660448500      0.9043253400    
  H     -7.4374041800      2.3018160400     -1.3546254900    
  H     -7.7625319600      2.8748051100      0.2883288900    
  O     -7.1430383300      0.5953810000      1.5472824700    
  H     -8.4031109300      0.4869088500     -0.0327242500    
  C     -4.0772516200     -0.6583761700     -0.0250680800    
  C     -3.7627750400      2.0106351300     -1.6808234700    
  H     -3.1153103500      1.2835236000     -2.1636767400    
  H     -3.6100863700      3.0606795500     -1.9189756700    
  C     -2.6936961000     -0.3628925300      0.2677947700    
  H     -4.4318995900     -1.6678537100      0.1797756900    
  C     -1.7432806500     -1.2495370200      0.6324500600    
  H     -2.4063349100      0.6832439100      0.1891654100    
  C     -1.9331742200     -2.7391576100      0.7642598800    
  C     -0.9259202000     -3.5166390500     -0.1057767000    
  H     -2.9511966100     -3.0527502800      0.5177221900    
  H     -1.7573360400     -3.0112407900      1.8171377800    
  C      0.5231174400     -3.0625083500      0.1173300700    
  H     -1.1957523100     -3.3921508300     -1.1621251000    
  H     -1.0131578200     -4.5878069900      0.1137968000    
  C      0.6813700100     -1.5461681200     -0.0598818500    
  H      1.1771646400     -3.6141505700     -0.5660944500    
  H      0.8320131600     -3.3267464000      1.1399705400    
  C     -0.3263467100     -0.8533960600      0.9133877800    
  H     -0.0768146900     -1.2659202900      1.9080531000    
  C      0.1010593600      0.6114888600      0.9122866200    
  H     -6.1892273200      0.5209515500      1.6935987800    
  C      1.6437218000      0.5402493100      0.8000005500    
  H     -0.2376311400      1.1395491400      1.8098153700    