73
 Energy =        -1168.3616828200 Eh        #Cluster:     2
  C     -4.9970955600      0.2151337400     -0.4994928600    
  C     -6.4448492500     -0.1838003900     -0.6619555300    
  C     -7.3540414000      0.7603346300      0.1350759100    
  H     -6.6008698400     -1.2184816400     -0.3361250800    
  H     -6.7342648200     -0.1147645300     -1.7210794900    
  C     -4.7238973500      1.6309414100     -0.8317393400    
  C     -5.6547439200      2.6202012000     -0.1657949900    
  C     -7.1268698700      2.2074689000     -0.3051145900    
  H     -5.4959495400      3.6237627900     -0.5746624500    
  H     -5.4014204500      2.6660448500      0.9043253400    
  H     -7.4374041800      2.3018160400     -1.3546254900    
  H     -7.7625319600      2.8748051100      0.2883288900    
  O     -7.1430383300      0.5953810000      1.5472824700    
  H     -8.4031109300      0.4869088500     -0.0327242500    
  C     -4.0772516200     -0.6583761700     -0.0250680800    
  C     -3.7627750400      2.0106351300     -1.6808234700    
  H     -3.1153103500      1.2835236000     -2.1636767400    
  H     -3.6100863700      3.0606795500     -1.9189756700    
  C     -2.6936961000     -0.3628925300      0.2677947700    
  H     -4.4318995900     -1.6678537100      0.1797756900    
  C     -1.7432806500     -1.2495370200      0.6324500600    
  H     -2.4063349100      0.6832439100      0.1891654100    
  C     -1.9331742200     -2.7391576100      0.7642598800    
  C     -0.9259202000     -3.5166390500     -0.1057767000    
  H     -2.9511966100     -3.0527502800      0.5177221900    
  H     -1.7573360400     -3.0112407900      1.8171377800    
  C      0.5231174400     -3.0625083500      0.1173300700    
  H     -1.1957523100     -3.3921508300     -1.1621251000    
  H     -1.0131578200     -4.5878069900      0.1137968000    
  C      0.6813700100     -1.5461681200     -0.0598818500    
  H      1.1771646400     -3.6141505700     -0.5660944500    
  H      0.8320131600     -3.3267464000      1.1399705400    
  C     -0.3263467100     -0.8533960600      0.9133877800    
  H     -0.0768146900     -1.2659202900      1.9080531000    
  C      0.1010593600      0.6114888600      0.9122866200    
  H     -6.1892273200      0.5209515500      1.6935987800    
  C      1.6437218000      0.5402493100      0.8000005500    
  H     -0.2376311400      1.1395491400      1.8098153700    
  H     -0.3201419600      1.1392626200      0.0493589400    
  C      2.0122215700     -0.9350519700      0.4592789300    
  H      2.1365410400      0.8547408400      1.7252847700    
  H      2.0106273300      1.2095011100      0.0129905800    
  H      2.2529307200     -1.4625659700      1.3968637500    
  C      3.2648047400     -1.0110335500     -0.4372797700    
  C      0.4180836900     -1.1285237900     -1.5128486300    
  H      0.6359715000     -0.0676608600     -1.6722808300    
  H     -0.6264802400     -1.2930370400     -1.7948744900    
  H      1.0475702800     -1.7037256800     -2.2006510300    
  H      3.0545073000     -0.4671368800     -1.3699658600    
  C      3.6822884300     -2.4475341500     -0.7867348100    
  C      4.4138146500     -0.3222542500      0.2499079200    
  C      5.0835123000      0.7248840000     -0.2271487600    
  H      4.7138258700     -0.7502807300      1.2117855000    
  H      4.7821248700      1.1512038200     -1.1894985700    
  C      6.2268727400      1.4185439400      0.4591377400    
  C      5.7988949600      2.8489648500      0.8259760200    
  C      7.5003151800      1.3960336400     -0.4219597500    
  H      6.4559200400      0.8722626200      1.3882549900    
  H      7.2513101800      1.9068858300     -1.3663297200    
  C      7.9160284100     -0.0413847900     -0.7462482900    
  C      8.6675798700      2.1389814100      0.2340520700    
  H      5.6515874200      3.4506756100     -0.0797782300    
  H      6.5446106000      3.3500233300      1.4501638200    
  H      4.8531568600      2.8331094100      1.3775684200    
  H      7.1216310500     -0.5842984500     -1.2672499500    
  H      8.1445929600     -0.5889324600      0.1775450400    
  H      8.8124897600     -0.0548301000     -1.3758343000    
  H      8.4684899000      3.2079088400      0.3515575200    
  H      9.5747468200      2.0349683900     -0.3712884000    
  H      8.8783611700      1.7203562400      1.2267829400    
  H      2.9505276700     -2.9391767100     -1.4327658900    
  H      3.7951464400     -3.0515512000      0.1220123000    
  H      4.6440605200     -2.4439182600     -1.3110445700    
73
 Energy =        -1168.3593389200 Eh        #Cluster:     4
  C     -5.1413635800      0.1267026700     -0.6092433500    
  C     -6.5746565300     -0.3278903200     -0.7497738700    
  C     -7.5139040700      0.6248034900      0.0013161500    
  H     -6.6974478600     -1.3499093900     -0.3736413800    
  H     -6.8662010700     -0.3196507400     -1.8105127300    
  C     -4.9164140900      1.5314789500     -1.0173173800    
  C     -5.8772927400      2.5223610600     -0.3984434200    
  C     -7.3352733300      2.0548410500     -0.5110530800    
  H     -5.7525717200      3.5086031300     -0.8580368300    
  H     -5.6238325300      2.6303234500      0.6672032600    
  H     -7.6510961700      2.0861099100     -1.5627150700    
  H     -7.9914220700      2.7297481100      0.0507392200    
  O     -7.2970030900      0.5366061400      1.4196068200    
  H     -8.5534919700      0.3092560600     -0.1509633200    
  C     -4.1935924800     -0.6860286200     -0.0844040000    
  C     -3.9726627900      1.8970964600     -1.8915754500    
  H     -3.3032323800      1.1673191400     -2.3392127000    
  H     -3.8559243800      2.9374787900     -2.1860248000    
  C     -2.8224727100     -0.3239101300      0.1916324700    
  H     -4.5130375100     -1.6937680000      0.1786613400    
  C     -1.8455767200     -1.1461968400      0.6301442000    
  H     -2.5699512000      0.7226571900      0.0366854800    
  C     -1.9872512700     -2.6253754600      0.8850695700    
  C     -0.9247032100     -3.4400418400      0.1217509400    
  H     -2.9853003600     -2.9954083300      0.6349286400    
  H     -1.8407056500     -2.7976450200      1.9633572300    
  C      0.4989376100     -2.9123212700      0.3460530400    
  H     -1.1618904500     -3.4229982400     -0.9495327500    
  H     -0.9817647300     -4.4891184800      0.4369000400    
  C      0.6097704900     -1.4150043200      0.0266619300    
  H      1.1963399400     -3.5017664400     -0.2582161000    
  H      0.7800655900     -3.0636934400      1.3992266500    
  C     -0.4508486400     -0.6715851900      0.8989315000    
  H     -0.2138247700     -0.9695048300      1.9373445000    
  C     -0.0777616500      0.7992868400      0.7535101600    
  H     -6.3413378900      0.4982888200      1.5679998600    
  C      1.4696577200      0.7739518100      0.7342500200    
  H     -0.4811011200      1.4124122000      1.5663595400    
  H     -0.4693206300      1.2083517500     -0.1846865600    
  C      1.9059582100     -0.7102466800      0.5216658800    
  H      1.8798224500      1.1706060400      1.6670177400    
  H      1.8683137400      1.4034153100     -0.0703235100    
  H      2.1361572400     -1.1569001900      1.5017042800    
  C      3.1627219400     -0.8166603300     -0.3533612700    
  C      0.3667504600     -1.1496277800     -1.4658601200    
  H      0.5725693000     -0.1077663800     -1.7315301200    
  H     -0.6714157600     -1.3566395900     -1.7439360000    
  H      1.0123275700     -1.7824779600     -2.0840946700    
  H      2.9357840900     -0.3286999900     -1.3145572400    
  C      3.5965612600     -2.2612604600     -0.6629865500    
  C      4.3611857400     -0.0979608300      0.2261145300    
  C      4.5772792200      0.2325736700      1.4982548700    
  H      5.1569081700      0.1063210600     -0.4959477500    
  H      3.8138286000      0.0307750600      2.2534127900    
  C      5.8348538500      0.8661124000      2.0255065200    
  C      6.5179772000     -0.1086679700      2.9986600600    
  C      5.5279499200      2.2334892500      2.6841102900    
  H      6.5138721400      1.0492389200      1.1773064500    
  H      4.7995710600      2.0489209700      3.4907774800    
  C      4.8978694700      3.1973993500      1.6753348200    
  C      6.7758476500      2.8704816200      3.3023586500    
  H      5.9079421100     -0.2414703900      3.9011319200    
  H      7.5061726400      0.2467205000      3.3048597800    
  H      6.6430619000     -1.0897008200      2.5289229900    
  H      3.9760734800      2.7903261200      1.2486017900    
  H      5.5937146800      3.3884020800      0.8478752400    
  H      4.6642243800      4.1578531700      2.1477178000    
  H      7.1741926900      2.2828817500      4.1342660900    
  H      6.5446584200      3.8711341400      3.6839994700    
  H      7.5675545800      2.9750701900      2.5489443900    
  H      2.8811546800     -2.7766550200     -1.3088537100    
  H      3.7038118400     -2.8343736600      0.2655901500    
  H      4.5668774800     -2.2654603700     -1.1722113200    
73
 Energy =        -1168.3601585800 Eh        #Cluster:     6
  C     -4.9403425600      0.2388672000     -0.4050174500    
  C     -6.3989112800     -0.1354880400     -0.5242872600    
  C     -7.2636987600      0.7916007400      0.3393859000    
  H     -6.5564905000     -1.1788623100     -0.2284683400    
  H     -6.7277657200     -0.0254054000     -1.5683173200    
  C     -4.6596652300      1.6620504100     -0.6970938500    
  C     -5.5499997200      2.6385181500      0.0393468500    
  C     -7.0322244500      2.2503685700     -0.0584011700    
  H     -5.3921821700      3.6542025000     -0.3388246900    
  H     -5.2557695600      2.6416656800      1.0999565400    
  H     -7.3800836600      2.3858575600     -1.0915707300    
  H     -7.6354128400      2.9045211700      0.5817466500    
  O     -7.0034976000      0.5739074800      1.7359856800    
  H     -8.3221032400      0.5383663200      0.2013498700    
  C     -4.0157731600     -0.6625612100      0.0035326000    
  C     -3.7262264000      2.0595626400     -1.5686568100    
  H     -3.1082946300      1.3420269600     -2.1019357500    
  H     -3.5670785700      3.1153743400     -1.7750305800    
  C     -2.6181378700     -0.3954728300      0.2550606300    
  H     -4.3766887000     -1.6738187600      0.1873217700    
  C     -1.6699639500     -1.3065427300      0.5604788800    
  H     -2.3189542700      0.6488168500      0.1994730400    
  C     -1.8790555400     -2.7964620800      0.6529257400    
  C     -0.9073808100     -3.5599767100     -0.2677267400    
  H     -2.9079631500     -3.0876848700      0.4252405500    
  H     -1.6783308800     -3.1027673700      1.6918676100    
  C      0.5539422300     -3.1362307600     -0.0672219700    
  H     -1.2020121600     -3.3960756300     -1.3120328900    
  H     -1.0060834200     -4.6363657800     -0.0811247600    
  C      0.7337816200     -1.6180074400     -0.2044771800    
  H      1.1810588900     -3.6787404100     -0.7819063800    
  H      0.8825077600     -3.4352565700      0.9395788800    
  C     -0.2396940000     -0.9392029300      0.8124968000    
  H      0.0283983800     -1.3823234100      1.7890606900    
  C      0.2066982200      0.5192406400      0.8407346900    
  H     -6.0459336700      0.4872896300      1.8460133900    
  C      1.7444798300      0.4331353600      0.6797551100    
  H     -0.0972629900      1.0244902600      1.7633412300    
  H     -0.2330708900      1.0775684100      0.0069184300    
  C      2.0850469400     -1.0408217100      0.3026629800    
  H      2.2662106400      0.7267662200      1.5962186600    
  H      2.0858158300      1.1148737900     -0.1084344100    
  H      2.3345752600     -1.5880609100      1.2262950800    
  C      3.3285407100     -1.1353642300     -0.6152096000    
  C      0.4430601200     -1.1525090000     -1.6376535800    
  H      0.6761390300     -0.0914157900     -1.7719926500    
  H     -0.6110804000     -1.2896947700     -1.8979492400    
  H      1.0439683900     -1.7182167300     -2.3581024300    
  H      3.0967998100     -0.5646254500     -1.5295084600    
  C      3.6753115100     -2.5676240500     -1.0196722800    
  C      4.4781815300     -0.4270745500      0.0619761300    
  C      5.5704927200     -0.9900076800      0.5778667700    
  H      4.3691667800      0.6543569200      0.1630193800    
  H      5.7170861900     -2.0703897300      0.5051970700    
  C      6.6735344700     -0.2461627600      1.2784610900    
  C      7.9939030200     -0.4702750000      0.5247690900    
  C      6.7662954900     -0.6728410100      2.7653859000    
  H      6.4352388700      0.8294411500      1.2581688300    
  H      6.9363049100     -1.7618354900      2.7817548300    
  C      5.4570162500     -0.3780398100      3.5028823500    
  C      7.9327497100      0.0060003600      3.4891928000    
  H      8.3095655300     -1.5182380100      0.6052100700    
  H      8.7989275100      0.1588289300      0.9154477600    
  H      7.8698714200     -0.2366981000     -0.5377438200    
  H      4.6074182500     -0.8880559000      3.0387617900    
  H      5.2476183900      0.6998054300      3.4902909400    
  H      5.5203893300     -0.6954382400      4.5495133200    
  H      8.9047175500     -0.2962952600      3.0893261200    
  H      7.9190969800     -0.2475606600      4.5549647500    
  H      7.8538998700      1.0977557900      3.4044506100    
  H      2.9174018900     -2.9828121100     -1.6869991600    
  H      3.7492729400     -3.2238772800     -0.1444339300    
  H      4.6351792700     -2.5965260100     -1.5465689600    
