73
 Energy =        -1168.36168282 Eh        #Cluster:     0
  C      0.0029044400      0.2151337400     -0.4994928600    
  C     -1.4448492500     -0.1838003900     -0.6619555300    
  C     -2.3540414000      0.7603346300      0.1350759100    
  H     -1.6008698400     -1.2184816400     -0.3361250800    
  H     -1.7342648200     -0.1147645300     -1.7210794900    
  C      0.2761026500      1.6309414100     -0.8317393400    
  C     -0.6547439200      2.6202012000     -0.1657949900    
  C     -2.1268698700      2.2074689000     -0.3051145900    
  H     -0.4959495400      3.6237627900     -0.5746624500    
  H     -0.4014204500      2.6660448500      0.9043253400    
  H     -2.4374041800      2.3018160400     -1.3546254900    
  H     -2.7625319600      2.8748051100      0.2883288900    
  O     -2.1430383300      0.5953810000      1.5472824700    
  H     -3.4031109300      0.4869088500     -0.0327242500    
  C      0.9227483800     -0.6583761700     -0.0250680800    
  C      1.2372249600      2.0106351300     -1.6808234700    
  H      1.8846896500      1.2835236000     -2.1636767400    
  H      1.3899136300      3.0606795500     -1.9189756700    
  C      2.3063039000     -0.3628925300      0.2677947700    
  H      0.5681004100     -1.6678537100      0.1797756900    
  C      3.2567193500     -1.2495370200      0.6324500600    
  H      2.5936650900      0.6832439100      0.1891654100    
  C      3.0668257800     -2.7391576100      0.7642598800    
  C      4.0740798000     -3.5166390500     -0.1057767000    
  H      2.0488033900     -3.0527502800      0.5177221900    
  H      3.2426639600     -3.0112407900      1.8171377800    
  C      5.5231174400     -3.0625083500      0.1173300700    
  H      3.8042476900     -3.3921508300     -1.1621251000    
  H      3.9868421800     -4.5878069900      0.1137968000    
  C      5.6813700100     -1.5461681200     -0.0598818500    
  H      6.1771646400     -3.6141505700     -0.5660944500    
  H      5.8320131600     -3.3267464000      1.1399705400    
  C      4.6736532900     -0.8533960600      0.9133877800    
  H      4.9231853100     -1.2659202900      1.9080531000    
  C      5.1010593600      0.6114888600      0.9122866200    
  H     -1.1892273200      0.5209515500      1.6935987800    
  C      6.6437218000      0.5402493100      0.8000005500    
  H      4.7623688600      1.1395491400      1.8098153700    
  H      4.6798580400      1.1392626200      0.0493589400    
  C      7.0122215700     -0.9350519700      0.4592789300    
  H      7.1365410400      0.8547408400      1.7252847700    
  H      7.0106273300      1.2095011100      0.0129905800    
  H      7.2529307200     -1.4625659700      1.3968637500    
  C      8.2648047400     -1.0110335500     -0.4372797700    
  C      5.4180836900     -1.1285237900     -1.5128486300    
  H      5.6359715000     -0.0676608600     -1.6722808300    
  H      4.3735197600     -1.2930370400     -1.7948744900    
  H      6.0475702800     -1.7037256800     -2.2006510300    
  H      8.0545073000     -0.4671368800     -1.3699658600    
  C      8.6822884300     -2.4475341500     -0.7867348100    
  C      9.4138146500     -0.3222542500      0.2499079200    
  C     10.0835123000      0.7248840000     -0.2271487600    
  H      9.7138258700     -0.7502807300      1.2117855000    
  H      9.7821248700      1.1512038200     -1.1894985700    
  C     11.2268727400      1.4185439400      0.4591377400    
  C     10.7988949600      2.8489648500      0.8259760200    
  C     12.5003151800      1.3960336400     -0.4219597500    
  H     11.4559200400      0.8722626200      1.3882549900    
  H     12.2513101800      1.9068858300     -1.3663297200    
  C     12.9160284100     -0.0413847900     -0.7462482900    
  C     13.6675798700      2.1389814100      0.2340520700    
  H     10.6515874200      3.4506756100     -0.0797782300    
  H     11.5446106000      3.3500233300      1.4501638200    
  H      9.8531568600      2.8331094100      1.3775684200    
  H     12.1216310500     -0.5842984500     -1.2672499500    
  H     13.1445929600     -0.5889324600      0.1775450400    
  H     13.8124897600     -0.0548301000     -1.3758343000    
  H     13.4684899000      3.2079088400      0.3515575200    
  H     14.5747468200      2.0349683900     -0.3712884000    
  H     13.8783611700      1.7203562400      1.2267829400    
  H      7.9505276700     -2.9391767100     -1.4327658900    
  H      8.7951464400     -3.0515512000      0.1220123000    
  H      9.6440605200     -2.4439182600     -1.3110445700    
73
 Energy =        -1168.35933892 Eh        #Cluster:     0
  C     -0.1413635800      0.1267026700     -0.6092433500    
  C     -1.5746565300     -0.3278903200     -0.7497738700    
  C     -2.5139040700      0.6248034900      0.0013161500    
  H     -1.6974478600     -1.3499093900     -0.3736413800    
  H     -1.8662010700     -0.3196507400     -1.8105127300    
  C      0.0835859100      1.5314789500     -1.0173173800    
  C     -0.8772927400      2.5223610600     -0.3984434200    
  C     -2.3352733300      2.0548410500     -0.5110530800    
  H     -0.7525717200      3.5086031300     -0.8580368300    
  H     -0.6238325300      2.6303234500      0.6672032600    
  H     -2.6510961700      2.0861099100     -1.5627150700    
  H     -2.9914220700      2.7297481100      0.0507392200    
  O     -2.2970030900      0.5366061400      1.4196068200    
  H     -3.5534919700      0.3092560600     -0.1509633200    
  C      0.8064075200     -0.6860286200     -0.0844040000    
  C      1.0273372100      1.8970964600     -1.8915754500    
  H      1.6967676200      1.1673191400     -2.3392127000    
  H      1.1440756200      2.9374787900     -2.1860248000    
  C      2.1775272900     -0.3239101300      0.1916324700    
  H      0.4869624900     -1.6937680000      0.1786613400    
  C      3.1544232800     -1.1461968400      0.6301442000    
  H      2.4300488000      0.7226571900      0.0366854800    
  C      3.0127487300     -2.6253754600      0.8850695700    
  C      4.0752967900     -3.4400418400      0.1217509400    
  H      2.0146996400     -2.9954083300      0.6349286400    
  H      3.1592943500     -2.7976450200      1.9633572300    
  C      5.4989376100     -2.9123212700      0.3460530400    
  H      3.8381095500     -3.4229982400     -0.9495327500    
  H      4.0182352700     -4.4891184800      0.4369000400    
  C      5.6097704900     -1.4150043200      0.0266619300    
  H      6.1963399400     -3.5017664400     -0.2582161000    
  H      5.7800655900     -3.0636934400      1.3992266500    
  C      4.5491513600     -0.6715851900      0.8989315000    
  H      4.7861752300     -0.9695048300      1.9373445000    
  C      4.9222383500      0.7992868400      0.7535101600    
  H     -1.3413378900      0.4982888200      1.5679998600    
  C      6.4696577200      0.7739518100      0.7342500200    
  H      4.5188988800      1.4124122000      1.5663595400    
  H      4.5306793700      1.2083517500     -0.1846865600    
  C      6.9059582100     -0.7102466800      0.5216658800    
  H      6.8798224500      1.1706060400      1.6670177400    
  H      6.8683137400      1.4034153100     -0.0703235100    
  H      7.1361572400     -1.1569001900      1.5017042800    
  C      8.1627219400     -0.8166603300     -0.3533612700    
  C      5.3667504600     -1.1496277800     -1.4658601200    
  H      5.5725693000     -0.1077663800     -1.7315301200    
  H      4.3285842400     -1.3566395900     -1.7439360000    
  H      6.0123275700     -1.7824779600     -2.0840946700    
  H      7.9357840900     -0.3286999900     -1.3145572400    
  C      8.5965612600     -2.2612604600     -0.6629865500    
  C      9.3611857400     -0.0979608300      0.2261145300    
  C      9.5772792200      0.2325736700      1.4982548700    
  H     10.1569081700      0.1063210600     -0.4959477500    
  H      8.8138286000      0.0307750600      2.2534127900    
  C     10.8348538500      0.8661124000      2.0255065200    
  C     11.5179772000     -0.1086679700      2.9986600600    
  C     10.5279499200      2.2334892500      2.6841102900    
  H     11.5138721400      1.0492389200      1.1773064500    
  H      9.7995710600      2.0489209700      3.4907774800    
  C      9.8978694700      3.1973993500      1.6753348200    
  C     11.7758476500      2.8704816200      3.3023586500    
  H     10.9079421100     -0.2414703900      3.9011319200    
  H     12.5061726400      0.2467205000      3.3048597800    
  H     11.6430619000     -1.0897008200      2.5289229900    
  H      8.9760734800      2.7903261200      1.2486017900    
  H     10.5937146800      3.3884020800      0.8478752400    
  H      9.6642243800      4.1578531700      2.1477178000    
  H     12.1741926900      2.2828817500      4.1342660900    
  H     11.5446584200      3.8711341400      3.6839994700    
  H     12.5675545800      2.9750701900      2.5489443900    
  H      7.8811546800     -2.7766550200     -1.3088537100    
  H      8.7038118400     -2.8343736600      0.2655901500    
  H      9.5668774800     -2.2654603700     -1.1722113200    
73
 Energy =        -1168.36015858 Eh        #Cluster:     0
  C      0.0596574400      0.2388672000     -0.4050174500    
  C     -1.3989112800     -0.1354880400     -0.5242872600    
  C     -2.2636987600      0.7916007400      0.3393859000    
  H     -1.5564905000     -1.1788623100     -0.2284683400    
  H     -1.7277657200     -0.0254054000     -1.5683173200    
  C      0.3403347700      1.6620504100     -0.6970938500    
  C     -0.5499997200      2.6385181500      0.0393468500    
  C     -2.0322244500      2.2503685700     -0.0584011700    
  H     -0.3921821700      3.6542025000     -0.3388246900    
  H     -0.2557695600      2.6416656800      1.0999565400    
  H     -2.3800836600      2.3858575600     -1.0915707300    
  H     -2.6354128400      2.9045211700      0.5817466500    
  O     -2.0034976000      0.5739074800      1.7359856800    
  H     -3.3221032400      0.5383663200      0.2013498700    
  C      0.9842268400     -0.6625612100      0.0035326000    
  C      1.2737736000      2.0595626400     -1.5686568100    
  H      1.8917053700      1.3420269600     -2.1019357500    
  H      1.4329214300      3.1153743400     -1.7750305800    
  C      2.3818621300     -0.3954728300      0.2550606300    
  H      0.6233113000     -1.6738187600      0.1873217700    
  C      3.3300360500     -1.3065427300      0.5604788800    
  H      2.6810457300      0.6488168500      0.1994730400    
  C      3.1209444600     -2.7964620800      0.6529257400    
  C      4.0926191900     -3.5599767100     -0.2677267400    
  H      2.0920368500     -3.0876848700      0.4252405500    
  H      3.3216691200     -3.1027673700      1.6918676100    
  C      5.5539422300     -3.1362307600     -0.0672219700    
  H      3.7979878400     -3.3960756300     -1.3120328900    
  H      3.9939165800     -4.6363657800     -0.0811247600    
  C      5.7337816200     -1.6180074400     -0.2044771800    
  H      6.1810588900     -3.6787404100     -0.7819063800    
  H      5.8825077600     -3.4352565700      0.9395788800    
  C      4.7603060000     -0.9392029300      0.8124968000    
  H      5.0283983800     -1.3823234100      1.7890606900    
  C      5.2066982200      0.5192406400      0.8407346900    
  H     -1.0459336700      0.4872896300      1.8460133900    
  C      6.7444798300      0.4331353600      0.6797551100    
  H      4.9027370100      1.0244902600      1.7633412300    
  H      4.7669291100      1.0775684100      0.0069184300    
  C      7.0850469400     -1.0408217100      0.3026629800    
  H      7.2662106400      0.7267662200      1.5962186600    
  H      7.0858158300      1.1148737900     -0.1084344100    
  H      7.3345752600     -1.5880609100      1.2262950800    
  C      8.3285407100     -1.1353642300     -0.6152096000    
  C      5.4430601200     -1.1525090000     -1.6376535800    
  H      5.6761390300     -0.0914157900     -1.7719926500    
  H      4.3889196000     -1.2896947700     -1.8979492400    
  H      6.0439683900     -1.7182167300     -2.3581024300    
  H      8.0967998100     -0.5646254500     -1.5295084600    
  C      8.6753115100     -2.5676240500     -1.0196722800    
  C      9.4781815300     -0.4270745500      0.0619761300    
  C     10.5704927200     -0.9900076800      0.5778667700    
  H      9.3691667800      0.6543569200      0.1630193800    
  H     10.7170861900     -2.0703897300      0.5051970700    
  C     11.6735344700     -0.2461627600      1.2784610900    
  C     12.9939030200     -0.4702750000      0.5247690900    
  C     11.7662954900     -0.6728410100      2.7653859000    
  H     11.4352388700      0.8294411500      1.2581688300    
  H     11.9363049100     -1.7618354900      2.7817548300    
  C     10.4570162500     -0.3780398100      3.5028823500    
  C     12.9327497100      0.0060003600      3.4891928000    
  H     13.3095655300     -1.5182380100      0.6052100700    
  H     13.7989275100      0.1588289300      0.9154477600    
  H     12.8698714200     -0.2366981000     -0.5377438200    
  H      9.6074182500     -0.8880559000      3.0387617900    
  H     10.2476183900      0.6998054300      3.4902909400    
  H     10.5203893300     -0.6954382400      4.5495133200    
  H     13.9047175500     -0.2962952600      3.0893261200    
  H     12.9190969800     -0.2475606600      4.5549647500    
  H     12.8538998700      1.0977557900      3.4044506100    
  H      7.9174018900     -2.9828121100     -1.6869991600    
  H      8.7492729400     -3.2238772800     -0.1444339300    
  H      9.6351792700     -2.5965260100     -1.5465689600    
73
 Energy =        -1168.36151766 Eh        #Cluster:     0
  C     -0.0486647100      0.1934272600     -0.4613964200    
  C     -1.4926790600     -0.2252913100     -0.6055016100    
  C     -2.3983220400      0.6721027700      0.2475984500    
  H     -1.6233371600     -1.2740653300     -0.3155623600    
  H     -1.8084874900     -0.1217409200     -1.6541892300    
  C      0.1924290700      1.6250848000     -0.7472037200    
  C     -0.7393510400      2.5725042100     -0.0240590000    
  C     -2.2070435500      2.1383125000     -0.1439713000    
  H     -0.6078017000      3.5929153700     -0.3995082100    
  H     -0.4612822200      2.5837882500      1.0408177000    
  H     -2.5444650900      2.2653383200     -1.1816536900    
  H     -2.8395583200      2.7716572900      0.4887518400    
  O     -2.1504962900      0.4595134400      1.6473888700    
  H     -3.4462758900      0.3860094400      0.0944417400    
  C      0.8960648800     -0.6795365200     -0.0372459900    
  C      1.1273892500      2.0528233400     -1.6026538900    
  H      1.7759968700      1.3554882300     -2.1261612700    
  H      1.2569548500      3.1134604400     -1.8048545600    
  C      2.2796732500     -0.3696325800      0.2395257100    
  H      0.5632107600     -1.7017131500      0.1392668300    
  C      3.2492784400     -1.2498201800      0.5676081100    
  H      2.5490307600      0.6827635500      0.1854151200    
  C      3.0844941900     -2.7449292800      0.6670813300    
  C      4.0982546600     -3.4867335500     -0.2258833600    
  H      2.0699417400     -3.0692737400      0.4202344500    
  H      3.2717456900     -3.0370525800      1.7126220700    
  C      5.5414631600     -3.0157928800      0.0003176900    
  H      3.8206604300     -3.3418414600     -1.2775845600    
  H      4.0284249200     -4.5638708300     -0.0307243800    
  C      5.6757815100     -1.4941247200     -0.1459142200    
  H      6.2001221800     -3.5426630500     -0.6980267200    
  H      5.8589560400     -3.2973416800      1.0156941400    
  C      4.6621184600     -0.8363157000      0.8447820700    
  H      4.9243527900     -1.2626174900      1.8304119500    
  C      5.0651137400      0.6354765400      0.8683617700    
  H     -1.1925668700      0.3934242000      1.7685762400    
  C      6.6078532400      0.5926223200      0.7420751300    
  H      4.7252605000      1.1404652800      1.7786202300    
  H      4.6277646800      1.1723092300      0.0191524200    
  C      6.9981942500     -0.8719350300      0.3808710000    
  H      7.1039697400      0.9054996700      1.6661570700    
  H      6.9556866100      1.2766812400     -0.0409241200    
  H      7.2461507700     -1.4085609900      1.3114400300    
  C      8.2522700600     -0.9175009600     -0.5152360500    
  C      5.4015745200     -1.0514967000     -1.5895802700    
  H      5.6062784900      0.0146973000     -1.7295027900    
  H      4.3580754700     -1.2230768500     -1.8713856100    
  H      6.0354845000     -1.6059155300     -2.2904289100    
  H      8.0334886300     -0.3722946400     -1.4452159500    
  C      8.6984956100     -2.3435494900     -0.8731167200    
  C      9.3853768100     -0.2099226900      0.1786500100    
  C     10.0517143100      0.8380700700     -0.3033953800    
  H      9.6749591400     -0.6215369800      1.1509401000    
  H      9.7523041600      1.2468711800     -1.2722046800    
  C     11.1860795600      1.5381146900      0.3909889500    
  C     10.8738203000      3.0347067400      0.5345674900    
  C     12.5548905600      1.2982733000     -0.3029214600    
  H     11.2743607400      1.1123730400      1.4018598300    
  H     13.2859567600      1.9060703000      0.2524230900    
  C     12.5839400000      1.7473295600     -1.7660993100    
  C     12.9762701600     -0.1674601600     -0.1891964400    
  H     10.6890875500      3.4996569300     -0.4400775000    
  H     11.7066861400      3.5640958600      1.0118077200    
  H      9.9769355300      3.1824616300      1.1455767300    
  H     12.2863976500      2.7942784400     -1.8840089900    
  H     11.9145180200      1.1318878600     -2.3783676400    
  H     13.5949143800      1.6409706200     -2.1746679200    
  H     12.9896967500     -0.4974434900      0.8560639700    
  H     13.9774081200     -0.3200212200     -0.6078348200    
  H     12.2784831800     -0.8131555600     -0.7354684800    
  H      7.9786909000     -2.8435806200     -1.5261808000    
  H      8.8184537500     -2.9520567500      0.0316672800    
  H      9.6621464500     -2.3176586100     -1.3931688900    
73
 Energy =        -1168.35942736 Eh        #Cluster:     0
  C     -0.1923445600      0.0870798100     -0.5682693100    
  C     -1.6229940800     -0.3888938300     -0.6599190300    
  C     -2.5620389400      0.5946777100      0.0501888900    
  H     -1.7280225300     -1.3888898900     -0.2241517000    
  H     -1.9307862900     -0.4447371100     -1.7146631300    
  C      0.0128420900      1.4713977900     -1.0490791600    
  C     -0.9531898800      2.4836589600     -0.4743450200    
  C     -2.4064234900      1.9951414400     -0.5453899700    
  H     -0.8444661000      3.4446830600     -0.9881937600    
  H     -0.6900328100      2.6521222400      0.5810625400    
  H     -2.7332528100      1.9623615900     -1.5935923800    
  H     -3.0647353600      2.6936357700     -0.0158179900    
  O     -2.3234689400      0.5900643000      1.4677171800    
  H     -3.6001025500      0.2601671200     -0.0677862600    
  C      0.7737220600     -0.6916843600     -0.0253967100    
  C      0.9470018300      1.8015715500     -1.9477325300    
  H      1.6203917900      1.0562112500     -2.3624572900    
  H      1.0511009000      2.8267415900     -2.2954417400    
  C      2.1455034400     -0.3043990300      0.2109637400    
  H      0.4704512800     -1.6894885400      0.2894699800    
  C      3.1428040100     -1.1038940900      0.6452527700    
  H      2.3801880300      0.7414585200      0.0257269900    
  C      3.0286304400     -2.5811006000      0.9244402200    
  C      4.0779115800     -3.3895159200      0.1360148600    
  H      2.0285176500     -2.9669813200      0.7089139000    
  H      3.2119485200     -2.7386975300      1.9991964200    
  C      5.5005818100     -2.8419255400      0.3133201100    
  H      3.8085522700     -3.3842631500     -0.9277172000    
  H      4.0438385200     -4.4364300800      0.4615128100    
  C      5.5823741600     -1.3463773600     -0.0236094200    
  H      6.1875468100     -3.4281267500     -0.3060125100    
  H      5.8136746200     -2.9803754800      1.3591925200    
  C      4.5374939600     -0.6080164900      0.8721352500    
  H      4.8070003100     -0.8938788400      1.9059030500    
  C      4.8873206100      0.8665316600      0.7044099300    
  H     -1.3652486600      0.5775949200      1.6030406400    
  C      6.4332565100      0.8616810700      0.6316350200    
  H      4.5035302900      1.4795380400      1.5267763800    
  H      4.4594114200      1.2651901500     -0.2223322900    
  C      6.8826588600     -0.6191101200      0.4251104400    
  H      6.8736088800      1.2778603400      1.5418860600    
  H      6.7933632700      1.4836549000     -0.1967320400    
  H      7.1467627100     -1.0497627400      1.4037459600    
  C      8.1143040200     -0.7187117900     -0.4859791000    
  C      5.2922622700     -1.0991782500     -1.5110031800    
  H      5.4758825200     -0.0571253100     -1.7919141200    
  H      4.2495248000     -1.3230745300     -1.7563842900    
  H      5.9287011400     -1.7291895100     -2.1415855400    
  H      7.8476395900     -0.2583156600     -1.4502860900    
  C      8.5710493500     -2.1604855500     -0.7755600300    
  C      9.3113523400      0.0431272300      0.0388434000    
  C      9.5739714600      0.3785308400      1.3016028200    
  H     10.0632820500      0.2810158700     -0.7191400200    
  H      8.8567108100      0.1336087900      2.0867832500    
  C     10.8272741700      1.0738409000      1.7550318900    
  C     11.5963306700      0.1907834100      2.7485888700    
  C     10.5480624900      2.4871947900      2.3335895800    
  H     11.4655665900      1.2222334200      0.8709990700    
  H     11.5273390200      2.8876330900      2.6386873900    
  C      9.6415949000      2.4761851600      3.5673117100    
  C      9.9724247000      3.4136604200      1.2613406700    
  H     10.9733111500     -0.0863254200      3.6060853500    
  H     12.4840688100      0.7109905200      3.1275350100    
  H     11.9207846100     -0.7360068200      2.2639508100    
  H     10.0332070500      1.8354720400      4.3637685500    
  H      8.6340201000      2.1269607400      3.3124739900    
  H      9.5445159300      3.4892881600      3.9730888400    
  H     10.6214121500      3.4534666800      0.3786426700    
  H      9.8584615200      4.4330056100      1.6469682800    
  H      8.9861025300      3.0615506800      0.9360074700    
  H      7.8507605200     -2.7042996100     -1.3922739300    
  H      8.7124837700     -2.7106339200      0.1622085100    
  H      9.5284896200     -2.1560208000     -1.3085780500    
73
 Energy =        -1168.36022501 Eh        #Cluster:     0
  C      0.0002257400      0.2050671900     -0.3849669300    
  C     -1.4514193800     -0.1967748800     -0.4969859300    
  C     -2.3239711800      0.6902087300      0.4003577800    
  H     -1.5842919500     -1.2503180700     -0.2261763200    
  H     -1.7952576800     -0.0668815100     -1.5338565400    
  C      0.2477747300      1.6403830300     -0.6458320600    
  C     -0.6541473800      2.5805996300      0.1229700200    
  C     -2.1288511000      2.1627904200      0.0351820700    
  H     -0.5231331500      3.6075158500     -0.2345163400    
  H     -0.3462880100      2.5671951900      1.1796433300    
  H     -2.4938031700      2.3156261000     -0.9896153600    
  H     -2.7370625300      2.7880812400      0.6990015000    
  O     -2.0406021700      0.4442871000      1.7876975900    
  H     -3.3785925100      0.4177004600      0.2701114700    
  C      0.9478121100     -0.6860070400     -0.0074208600    
  C      1.1637545400      2.0777111800     -1.5168943000    
  H      1.7903327900      1.3854233800     -2.0728473700    
  H      1.2991454200      3.1411542700     -1.6996033600    
  C      2.3417099600     -0.3955466500      0.2376174400    
  H      0.6097776800     -1.7086355800      0.1560422700    
  C      3.3103494000     -1.2925530300      0.5194624900    
  H      2.6196222900      0.6553854500      0.2007219800    
  C      3.1322655200     -2.7877080000      0.5879410100    
  C      4.1183114600     -3.5166284000     -0.3451370000    
  H      2.1091763900     -3.0960146300      0.3565066800    
  H      3.3402313400     -3.1062776200      1.6217664800    
  C      5.5709621200     -3.0667532700     -0.1382127700    
  H      3.8198448000     -3.3418227100     -1.3865663700    
  H      4.0413299000     -4.5976545300     -0.1759960900    
  C      5.7199173300     -1.5435123800     -0.2538636200    
  H      6.2086255900     -3.5863640200     -0.8605087200    
  H      5.9052614200     -3.3737300300      0.8642863100    
  C      4.7335552700     -0.8991318400      0.7728413500    
  H      5.0125243900     -1.3487942100      1.7433880400    
  C      5.1492020100      0.5678897900      0.8192367800    
  H     -1.0800216800      0.3753542500      1.8832929400    
  C      6.6881690300      0.5160055700      0.6562994000    
  H      4.8355727000      1.0552975100      1.7481823900    
  H      4.6970782700      1.1270355500     -0.0074303100    
  C      7.0591727100     -0.9460231400      0.2615937000    
  H      7.2041220000      0.8103964000      1.5757136400    
  H      7.0143459900      1.2136566300     -0.1244229100    
  H      7.3185280200     -1.4995314100      1.1787686800    
  C      8.3048891200     -1.0044379100     -0.6566898100    
  C      5.4193365700     -1.0638785600     -1.6803628700    
  H      5.6349953200      0.0024491000     -1.8015669800    
  H      4.3671534100     -1.2147064300     -1.9410390400    
  H      6.0279035600     -1.6104286600     -2.4091112600    
  H      8.0627356200     -0.4249980400     -1.5629138900    
  C      8.6797832500     -2.4235936100     -1.0809424200    
  C      9.4394034300     -0.2849539000      0.0325903600    
  C     10.5548824600     -0.8298185900      0.5198137400    
  H      9.2997960000      0.7891953100      0.1687514700    
  H     10.7330157800     -1.8997780700      0.4024598800    
  C     11.6238248100     -0.0651784600      1.2499824600    
  C     12.9992200500     -0.3318228600      0.6236564000    
  C     11.6177906600     -0.3558579100      2.7765725700    
  H     11.4035719000      1.0074371800      1.1418170200    
  H     12.4719944900      0.1999877000      3.1934661300    
  C     11.8079226600     -1.8364797200      3.1155833200    
  C     10.3433472600      0.1788662300      3.4322976200    
  H     13.2365773200     -1.4013672300      0.6199392300    
  H     13.7889638600      0.1891130100      1.1773861600    
  H     13.0220981200      0.0143387600     -0.4150567700    
  H     12.7178354000     -2.2505152900      2.6693487200    
  H     10.9554973100     -2.4306228700      2.7654909100    
  H     11.8792494600     -1.9701176600      4.2006674400    
  H     10.2020919600      1.2444515300      3.2171030600    
  H     10.3822924500      0.0524473600      4.5200885000    
  H      9.4619742500     -0.3573560400      3.0604951700    
  H      7.9308684700     -2.8441638900     -1.7549614700    
  H      8.7660111300     -3.0898953900     -0.2144310700    
  H      9.6401302500     -2.4267277500     -1.6076523400    
73
 Energy =        -1168.36025927 Eh        #Cluster:     0
  C     -0.0420712100      0.1777732900     -0.4780462600    
  C     -1.4850292200     -0.2440945100     -0.6230889500    
  C     -2.3967425800      0.6716815800      0.2037095700    
  H     -1.6180309600     -1.2862664000     -0.3111779300    
  H     -1.7932571000     -0.1636708100     -1.6760722000    
  C      0.2006546000      1.6027466000     -0.7946461600    
  C     -0.7347628900      2.5654246800     -0.0969187300    
  C     -2.2018716100      2.1292311700     -0.2170926200    
  H     -0.6004893100      3.5778010300     -0.4926190000    
  H     -0.4632836600      2.5987998600      0.9691939200    
  H     -2.5322108100      2.2345546200     -1.2594810200    
  H     -2.8383151400      2.7760397200      0.3978222200    
  O     -2.1599673300      0.4880747300      1.6095098100    
  H     -3.4436427100      0.3828614500      0.0485059200    
  C      0.8998551000     -0.6848428100     -0.0274669700    
  C      1.1389609900      2.0115590100     -1.6555813100    
  H      1.7899692900      1.3030980400     -2.1609059900    
  H      1.2690070200      3.0674777100     -1.8808853600    
  C      2.2818414200     -0.3677233200      0.2490797500    
  H      0.5661526300     -1.7027894800      0.1706291600    
  C      3.2505519300     -1.2385407900      0.6038216100    
  H      2.5514334200      0.6829240800      0.1686352500    
  C      3.0859345000     -2.7304854700      0.7435318700    
  C      4.1034483800     -3.4973689400     -0.1237940600    
  H      2.0724205700     -3.0618804800      0.5016691700    
  H      3.2682891900     -2.9935414500      1.7976621200    
  C      5.5455453600     -3.0174732400      0.0913220300    
  H      3.8286168000     -3.3854989400     -1.1802421500    
  H      4.0348181600     -4.5681528600      0.1040645100    
  C      5.6777477500     -1.5002758200     -0.0985632600    
  H      6.2065802100     -3.5635355200     -0.5898335600    
  H      5.8618327100     -3.2682938800      1.1150853800    
  C      4.6623845300     -0.8167157800      0.8729570300    
  H      4.9235533800     -1.2162700800      1.8700312500    
  C      5.0643566000      0.6551747300      0.8573355700    
  H     -1.2029021700      0.4267831700      1.7397632300    
  C      6.6075159900      0.6095207600      0.7384169000    
  H      4.7207490100      1.1853332600      1.7517515800    