73
 Energy =        -1168.3616828200 Eh        #Cluster:     0
  C     -4.9970955600      0.2151337400     -0.4994928600    
  C     -6.4448492500     -0.1838003900     -0.6619555300    
  C     -7.3540414000      0.7603346300      0.1350759100    
  H     -6.6008698400     -1.2184816400     -0.3361250800    
  H     -6.7342648200     -0.1147645300     -1.7210794900    
  C     -4.7238973500      1.6309414100     -0.8317393400    
  C     -5.6547439200      2.6202012000     -0.1657949900    
  C     -7.1268698700      2.2074689000     -0.3051145900    
  H     -5.4959495400      3.6237627900     -0.5746624500    
  H     -5.4014204500      2.6660448500      0.9043253400    
  H     -7.4374041800      2.3018160400     -1.3546254900    
  H     -7.7625319600      2.8748051100      0.2883288900    
  O     -7.1430383300      0.5953810000      1.5472824700    
  H     -8.4031109300      0.4869088500     -0.0327242500    
  C     -4.0772516200     -0.6583761700     -0.0250680800    
  C     -3.7627750400      2.0106351300     -1.6808234700    
  H     -3.1153103500      1.2835236000     -2.1636767400    
  H     -3.6100863700      3.0606795500     -1.9189756700    
  C     -2.6936961000     -0.3628925300      0.2677947700    
  H     -4.4318995900     -1.6678537100      0.1797756900    
  C     -1.7432806500     -1.2495370200      0.6324500600    
  H     -2.4063349100      0.6832439100      0.1891654100    
  C     -1.9331742200     -2.7391576100      0.7642598800    
  C     -0.9259202000     -3.5166390500     -0.1057767000    
  H     -2.9511966100     -3.0527502800      0.5177221900    
  H     -1.7573360400     -3.0112407900      1.8171377800    
  C      0.5231174400     -3.0625083500      0.1173300700    
  H     -1.1957523100     -3.3921508300     -1.1621251000    
  H     -1.0131578200     -4.5878069900      0.1137968000    
  C      0.6813700100     -1.5461681200     -0.0598818500    
  H      1.1771646400     -3.6141505700     -0.5660944500    
  H      0.8320131600     -3.3267464000      1.1399705400    
  C     -0.3263467100     -0.8533960600      0.9133877800    
  H     -0.0768146900     -1.2659202900      1.9080531000    
  C      0.1010593600      0.6114888600      0.9122866200    
  H     -6.1892273200      0.5209515500      1.6935987800    
  C      1.6437218000      0.5402493100      0.8000005500    
  H     -0.2376311400      1.1395491400      1.8098153700    
  H     -0.3201419600      1.1392626200      0.0493589400    
  C      2.0122215700     -0.9350519700      0.4592789300    
  H      2.1365410400      0.8547408400      1.7252847700    
  H      2.0106273300      1.2095011100      0.0129905800    
  H      2.2529307200     -1.4625659700      1.3968637500    
  C      3.2648047400     -1.0110335500     -0.4372797700    
  C      0.4180836900     -1.1285237900     -1.5128486300    
  H      0.6359715000     -0.0676608600     -1.6722808300    
  H     -0.6264802400     -1.2930370400     -1.7948744900    
  H      1.0475702800     -1.7037256800     -2.2006510300    
  H      3.0545073000     -0.4671368800     -1.3699658600    
  C      3.6822884300     -2.4475341500     -0.7867348100    
  C      4.4138146500     -0.3222542500      0.2499079200    
  C      5.0835123000      0.7248840000     -0.2271487600    
  H      4.7138258700     -0.7502807300      1.2117855000    
  H      4.7821248700      1.1512038200     -1.1894985700    
  C      6.2268727400      1.4185439400      0.4591377400    
  C      5.7988949600      2.8489648500      0.8259760200    
  C      7.5003151800      1.3960336400     -0.4219597500    
  H      6.4559200400      0.8722626200      1.3882549900    
  H      7.2513101800      1.9068858300     -1.3663297200    
  C      7.9160284100     -0.0413847900     -0.7462482900    
  C      8.6675798700      2.1389814100      0.2340520700    
  H      5.6515874200      3.4506756100     -0.0797782300    
  H      6.5446106000      3.3500233300      1.4501638200    
  H      4.8531568600      2.8331094100      1.3775684200    
  H      7.1216310500     -0.5842984500     -1.2672499500    
  H      8.1445929600     -0.5889324600      0.1775450400    
  H      8.8124897600     -0.0548301000     -1.3758343000    
  H      8.4684899000      3.2079088400      0.3515575200    
  H      9.5747468200      2.0349683900     -0.3712884000    
  H      8.8783611700      1.7203562400      1.2267829400    
  H      2.9505276700     -2.9391767100     -1.4327658900    
  H      3.7951464400     -3.0515512000      0.1220123000    
  H      4.6440605200     -2.4439182600     -1.3110445700    
73
 Energy =        -1168.3616828200 Eh        #Cluster:     0
  C     -4.9970955600      0.2151337400      1.1671738067    
  C     -6.4448492500     -0.1838003900      1.0047111367    
  C     -7.3540414000      0.7603346300      1.8017425767    
  H     -6.6008698400     -1.2184816400      1.3305415867    
  H     -6.7342648200     -0.1147645300     -0.0544128233    
  C     -4.7238973500      1.6309414100      0.8349273267    
  C     -5.6547439200      2.6202012000      1.5008716767    
  C     -7.1268698700      2.2074689000      1.3615520767    
  H     -5.4959495400      3.6237627900      1.0920042167    
  H     -5.4014204500      2.6660448500      2.5709920067    
  H     -7.4374041800      2.3018160400      0.3120411767    
  H     -7.7625319600      2.8748051100      1.9549955567    
  O     -7.1430383300      0.5953810000      3.2139491367    
  H     -8.4031109300      0.4869088500      1.6339424167    
  C     -4.0772516200     -0.6583761700      1.6415985867    
  C     -3.7627750400      2.0106351300     -0.0141568033    
  H     -3.1153103500      1.2835236000     -0.4970100733    
  H     -3.6100863700      3.0606795500     -0.2523090033    
  C     -2.6936961000     -0.3628925300      1.9344614367    
  H     -4.4318995900     -1.6678537100      1.8464423567    
  C     -1.7432806500     -1.2495370200      2.2991167267    
  H     -2.4063349100      0.6832439100      1.8558320767    
  C     -1.9331742200     -2.7391576100      2.4309265467    
  C     -0.9259202000     -3.5166390500      1.5608899667    
  H     -2.9511966100     -3.0527502800      2.1843888567    
  H     -1.7573360400     -3.0112407900      3.4838044467    
  C      0.5231174400     -3.0625083500      1.7839967367    
  H     -1.1957523100     -3.3921508300      0.5045415667    
  H     -1.0131578200     -4.5878069900      1.7804634667    
  C      0.6813700100     -1.5461681200      1.6067848167    
  H      1.1771646400     -3.6141505700      1.1005722167    
  H      0.8320131600     -3.3267464000      2.8066372067    
  C     -0.3263467100     -0.8533960600      2.5800544467    
  H     -0.0768146900     -1.2659202900      3.5747197667    
  C      0.1010593600      0.6114888600      2.5789532867    
  H     -6.1892273200      0.5209515500      3.3602654467    
  C      1.6437218000      0.5402493100      2.4666672167    
  H     -0.2376311400      1.1395491400      3.4764820367    
  H     -0.3201419600      1.1392626200      1.7160256067    
  C      2.0122215700     -0.9350519700      2.1259455967    
  H      2.1365410400      0.8547408400      3.3919514367    
  H      2.0106273300      1.2095011100      1.6796572467    
  H      2.2529307200     -1.4625659700      3.0635304167    
  C      3.2648047400     -1.0110335500      1.2293868967    
  C      0.4180836900     -1.1285237900      0.1538180367    
  H      0.6359715000     -0.0676608600     -0.0056141633    
  H     -0.6264802400     -1.2930370400     -0.1282078233    
  H      1.0475702800     -1.7037256800     -0.5339843633    
  H      3.0545073000     -0.4671368800      0.2967008067    
  C      3.6822884300     -2.4475341500      0.8799318567    
  C      4.4138146500     -0.3222542500      1.9165745867    
  C      5.0835123000      0.7248840000      1.4395179067    
  H      4.7138258700     -0.7502807300      2.8784521667    
  H      4.7821248700      1.1512038200      0.4771680967    
  C      6.2268727400      1.4185439400      2.1258044067    
  C      5.7988949600      2.8489648500      2.4926426867    
  C      7.5003151800      1.3960336400      1.2447069167    
  H      6.4559200400      0.8722626200      3.0549216567    
  H      7.2513101800      1.9068858300      0.3003369467    
  C      7.9160284100     -0.0413847900      0.9204183767    
  C      8.6675798700      2.1389814100      1.9007187367    
  H      5.6515874200      3.4506756100      1.5868884367    
  H      6.5446106000      3.3500233300      3.1168304867    
  H      4.8531568600      2.8331094100      3.0442350867    
  H      7.1216310500     -0.5842984500      0.3994167167    
  H      8.1445929600     -0.5889324600      1.8442117067    
  H      8.8124897600     -0.0548301000      0.2908323667    
  H      8.4684899000      3.2079088400      2.0182241867    
  H      9.5747468200      2.0349683900      1.2953782667    
  H      8.8783611700      1.7203562400      2.8934496067    
  H      2.9505276700     -2.9391767100      0.2339007767    
  H      3.7951464400     -3.0515512000      1.7886789667    
  H      4.6440605200     -2.4439182600      0.3556220967    
73
 Energy =        -1168.3616828200 Eh        #Cluster:     0
  C     -4.9970955600      0.2151337400      2.8338404733    
  C     -6.4448492500     -0.1838003900      2.6713778033    
  C     -7.3540414000      0.7603346300      3.4684092433    
  H     -6.6008698400     -1.2184816400      2.9972082533    
  H     -6.7342648200     -0.1147645300      1.6122538433    
  C     -4.7238973500      1.6309414100      2.5015939933    
  C     -5.6547439200      2.6202012000      3.1675383433    
  C     -7.1268698700      2.2074689000      3.0282187433    
  H     -5.4959495400      3.6237627900      2.7586708833    
  H     -5.4014204500      2.6660448500      4.2376586733    
  H     -7.4374041800      2.3018160400      1.9787078433    
  H     -7.7625319600      2.8748051100      3.6216622233    
  O     -7.1430383300      0.5953810000      4.8806158033    
  H     -8.4031109300      0.4869088500      3.3006090833    
  C     -4.0772516200     -0.6583761700      3.3082652533    
  C     -3.7627750400      2.0106351300      1.6525098633    
  H     -3.1153103500      1.2835236000      1.1696565933    
  H     -3.6100863700      3.0606795500      1.4143576633    
  C     -2.6936961000     -0.3628925300      3.6011281033    
  H     -4.4318995900     -1.6678537100      3.5131090233    
  C     -1.7432806500     -1.2495370200      3.9657833933    
  H     -2.4063349100      0.6832439100      3.5224987433    
  C     -1.9331742200     -2.7391576100      4.0975932133    
  C     -0.9259202000     -3.5166390500      3.2275566333    
  H     -2.9511966100     -3.0527502800      3.8510555233    
  H     -1.7573360400     -3.0112407900      5.1504711133    
  C      0.5231174400     -3.0625083500      3.4506634033    
  H     -1.1957523100     -3.3921508300      2.1712082333    
  H     -1.0131578200     -4.5878069900      3.4471301333    
  C      0.6813700100     -1.5461681200      3.2734514833    
  H      1.1771646400     -3.6141505700      2.7672388833    
  H      0.8320131600     -3.3267464000      4.4733038733    
  C     -0.3263467100     -0.8533960600      4.2467211133    
  H     -0.0768146900     -1.2659202900      5.2413864333    
  C      0.1010593600      0.6114888600      4.2456199533    
  H     -6.1892273200      0.5209515500      5.0269321133    
  C      1.6437218000      0.5402493100      4.1333338833    
  H     -0.2376311400      1.1395491400      5.1431487033    
  H     -0.3201419600      1.1392626200      3.3826922733    
  C      2.0122215700     -0.9350519700      3.7926122633    
  H      2.1365410400      0.8547408400      5.0586181033    
  H      2.0106273300      1.2095011100      3.3463239133    
  H      2.2529307200     -1.4625659700      4.7301970833    
  C      3.2648047400     -1.0110335500      2.8960535633    
  C      0.4180836900     -1.1285237900      1.8204847033    
  H      0.6359715000     -0.0676608600      1.6610525033    
  H     -0.6264802400     -1.2930370400      1.5384588433    
  H      1.0475702800     -1.7037256800      1.1326823033    
  H      3.0545073000     -0.4671368800      1.9633674733    
  C      3.6822884300     -2.4475341500      2.5465985233    
  C      4.4138146500     -0.3222542500      3.5832412533    
  C      5.0835123000      0.7248840000      3.1061845733    
  H      4.7138258700     -0.7502807300      4.5451188333    
  H      4.7821248700      1.1512038200      2.1438347633    
  C      6.2268727400      1.4185439400      3.7924710733    
  C      5.7988949600      2.8489648500      4.1593093533    
  C      7.5003151800      1.3960336400      2.9113735833    
  H      6.4559200400      0.8722626200      4.7215883233    
  H      7.2513101800      1.9068858300      1.9670036133    
  C      7.9160284100     -0.0413847900      2.5870850433    
  C      8.6675798700      2.1389814100      3.5673854033    
  H      5.6515874200      3.4506756100      3.2535551033    
  H      6.5446106000      3.3500233300      4.7834971533    
  H      4.8531568600      2.8331094100      4.7109017533    
  H      7.1216310500     -0.5842984500      2.0660833833    
  H      8.1445929600     -0.5889324600      3.5108783733    
  H      8.8124897600     -0.0548301000      1.9574990333    
  H      8.4684899000      3.2079088400      3.6848908533    
  H      9.5747468200      2.0349683900      2.9620449333    
  H      8.8783611700      1.7203562400      4.5601162733    
  H      2.9505276700     -2.9391767100      1.9005674433    
  H      3.7951464400     -3.0515512000      3.4553456333    
  H      4.6440605200     -2.4439182600      2.0222887633    
73
 Energy =        -1168.3616828200 Eh        #Cluster:     0
  C     -4.9970955600      0.2151337400      4.5005071400    
  C     -6.4448492500     -0.1838003900      4.3380444700    
  C     -7.3540414000      0.7603346300      5.1350759100    
  H     -6.6008698400     -1.2184816400      4.6638749200    
  H     -6.7342648200     -0.1147645300      3.2789205100    
  C     -4.7238973500      1.6309414100      4.1682606600    
  C     -5.6547439200      2.6202012000      4.8342050100    
  C     -7.1268698700      2.2074689000      4.6948854100    
  H     -5.4959495400      3.6237627900      4.4253375500    
  H     -5.4014204500      2.6660448500      5.9043253400    
  H     -7.4374041800      2.3018160400      3.6453745100    
  H     -7.7625319600      2.8748051100      5.2883288900    
  O     -7.1430383300      0.5953810000      6.5472824700    
  H     -8.4031109300      0.4869088500      4.9672757500    
  C     -4.0772516200     -0.6583761700      4.9749319200    
  C     -3.7627750400      2.0106351300      3.3191765300    
  H     -3.1153103500      1.2835236000      2.8363232600    
  H     -3.6100863700      3.0606795500      3.0810243300    
  C     -2.6936961000     -0.3628925300      5.2677947700    
  H     -4.4318995900     -1.6678537100      5.1797756900    
  C     -1.7432806500     -1.2495370200      5.6324500600    
  H     -2.4063349100      0.6832439100      5.1891654100    
  C     -1.9331742200     -2.7391576100      5.7642598800    
  C     -0.9259202000     -3.5166390500      4.8942233000    
  H     -2.9511966100     -3.0527502800      5.5177221900    
  H     -1.7573360400     -3.0112407900      6.8171377800    
  C      0.5231174400     -3.0625083500      5.1173300700    
  H     -1.1957523100     -3.3921508300      3.8378749000    
  H     -1.0131578200     -4.5878069900      5.1137968000    
  C      0.6813700100     -1.5461681200      4.9401181500    
  H      1.1771646400     -3.6141505700      4.4339055500    
  H      0.8320131600     -3.3267464000      6.1399705400    
  C     -0.3263467100     -0.8533960600      5.9133877800    
  H     -0.0768146900     -1.2659202900      6.9080531000    
  C      0.1010593600      0.6114888600      5.9122866200    
  H     -6.1892273200      0.5209515500      6.6935987800    
  C      1.6437218000      0.5402493100      5.8000005500    
  H     -0.2376311400      1.1395491400      6.8098153700    
  H     -0.3201419600      1.1392626200      5.0493589400    
  C      2.0122215700     -0.9350519700      5.4592789300    
  H      2.1365410400      0.8547408400      6.7252847700    
  H      2.0106273300      1.2095011100      5.0129905800    
  H      2.2529307200     -1.4625659700      6.3968637500    
  C      3.2648047400     -1.0110335500      4.5627202300    
  C      0.4180836900     -1.1285237900      3.4871513700    
  H      0.6359715000     -0.0676608600      3.3277191700    
  H     -0.6264802400     -1.2930370400      3.2051255100    
  H      1.0475702800     -1.7037256800      2.7993489700    
  H      3.0545073000     -0.4671368800      3.6300341400    
  C      3.6822884300     -2.4475341500      4.2132651900    
  C      4.4138146500     -0.3222542500      5.2499079200    
  C      5.0835123000      0.7248840000      4.7728512400    
  H      4.7138258700     -0.7502807300      6.2117855000    
  H      4.7821248700      1.1512038200      3.8105014300    
  C      6.2268727400      1.4185439400      5.4591377400    
  C      5.7988949600      2.8489648500      5.8259760200    
  C      7.5003151800      1.3960336400      4.5780402500    
  H      6.4559200400      0.8722626200      6.3882549900    
  H      7.2513101800      1.9068858300      3.6336702800    
  C      7.9160284100     -0.0413847900      4.2537517100    
  C      8.6675798700      2.1389814100      5.2340520700    
  H      5.6515874200      3.4506756100      4.9202217700    
  H      6.5446106000      3.3500233300      6.4501638200    
  H      4.8531568600      2.8331094100      6.3775684200    
  H      7.1216310500     -0.5842984500      3.7327500500    
  H      8.1445929600     -0.5889324600      5.1775450400    
  H      8.8124897600     -0.0548301000      3.6241657000    
  H      8.4684899000      3.2079088400      5.3515575200    
  H      9.5747468200      2.0349683900      4.6287116000    
  H      8.8783611700      1.7203562400      6.2267829400    
  H      2.9505276700     -2.9391767100      3.5672341100    
  H      3.7951464400     -3.0515512000      5.1220123000    
  H      4.6440605200     -2.4439182600      3.6889554300    
73
 Energy =        -1168.3616828200 Eh        #Cluster:     0
  C     -3.3304288933      0.2151337400     -0.4994928600    
  C     -4.7781825833     -0.1838003900     -0.6619555300    
  C     -5.6873747333      0.7603346300      0.1350759100    
  H     -4.9342031733     -1.2184816400     -0.3361250800    
  H     -5.0675981533     -0.1147645300     -1.7210794900    
  C     -3.0572306833      1.6309414100     -0.8317393400    
  C     -3.9880772533      2.6202012000     -0.1657949900    
  C     -5.4602032033      2.2074689000     -0.3051145900    
  H     -3.8292828733      3.6237627900     -0.5746624500    
  H     -3.7347537833      2.6660448500      0.9043253400    
  H     -5.7707375133      2.3018160400     -1.3546254900    
  H     -6.0958652933      2.8748051100      0.2883288900    
  O     -5.4763716633      0.5953810000      1.5472824700    
  H     -6.7364442633      0.4869088500     -0.0327242500    
  C     -2.4105849533     -0.6583761700     -0.0250680800    
  C     -2.0961083733      2.0106351300     -1.6808234700    
  H     -1.4486436833      1.2835236000     -2.1636767400    
  H     -1.9434197033      3.0606795500     -1.9189756700    
  C     -1.0270294333     -0.3628925300      0.2677947700    
  H     -2.7652329233     -1.6678537100      0.1797756900    
  C     -0.0766139833     -1.2495370200      0.6324500600    
  H     -0.7396682433      0.6832439100      0.1891654100    
  C     -0.2665075533     -2.7391576100      0.7642598800    
  C      0.7407464667     -3.5166390500     -0.1057767000    
  H     -1.2845299433     -3.0527502800      0.5177221900    
  H     -0.0906693733     -3.0112407900      1.8171377800    
  C      2.1897841067     -3.0625083500      0.1173300700    
  H      0.4709143567     -3.3921508300     -1.1621251000    
  H      0.6535088467     -4.5878069900      0.1137968000    
  C      2.3480366767     -1.5461681200     -0.0598818500    
  H      2.8438313067     -3.6141505700     -0.5660944500    
  H      2.4986798267     -3.3267464000      1.1399705400    
  C      1.3403199567     -0.8533960600      0.9133877800    
  H      1.5898519767     -1.2659202900      1.9080531000    
  C      1.7677260267      0.6114888600      0.9122866200    
  H     -4.5225606533      0.5209515500      1.6935987800    
  C      3.3103884667      0.5402493100      0.8000005500    
  H      1.4290355267      1.1395491400      1.8098153700    
  H      1.3465247067      1.1392626200      0.0493589400    
  C      3.6788882367     -0.9350519700      0.4592789300    
  H      3.8032077067      0.8547408400      1.7252847700    
  H      3.6772939967      1.2095011100      0.0129905800    
  H      3.9195973867     -1.4625659700      1.3968637500    
  C      4.9314714067     -1.0110335500     -0.4372797700    
  C      2.0847503567     -1.1285237900     -1.5128486300    
  H      2.3026381667     -0.0676608600     -1.6722808300    
  H      1.0401864267     -1.2930370400     -1.7948744900    
  H      2.7142369467     -1.7037256800     -2.2006510300    
  H      4.7211739667     -0.4671368800     -1.3699658600    
  C      5.3489550967     -2.4475341500     -0.7867348100    
  C      6.0804813167     -0.3222542500      0.2499079200    
  C      6.7501789667      0.7248840000     -0.2271487600    
  H      6.3804925367     -0.7502807300      1.2117855000    
  H      6.4487915367      1.1512038200     -1.1894985700    
  C      7.8935394067      1.4185439400      0.4591377400    
  C      7.4655616267      2.8489648500      0.8259760200    
  C      9.1669818467      1.3960336400     -0.4219597500    
  H      8.1225867067      0.8722626200      1.3882549900    
  H      8.9179768467      1.9068858300     -1.3663297200    
  C      9.5826950767     -0.0413847900     -0.7462482900    
  C     10.3342465367      2.1389814100      0.2340520700    
  H      7.3182540867      3.4506756100     -0.0797782300    
  H      8.2112772667      3.3500233300      1.4501638200    
  H      6.5198235267      2.8331094100      1.3775684200    
  H      8.7882977167     -0.5842984500     -1.2672499500    
  H      9.8112596267     -0.5889324600      0.1775450400    
  H     10.4791564267     -0.0548301000     -1.3758343000    
  H     10.1351565667      3.2079088400      0.3515575200    
  H     11.2414134867      2.0349683900     -0.3712884000    
  H     10.5450278367      1.7203562400      1.2267829400    
  H      4.6171943367     -2.9391767100     -1.4327658900    
  H      5.4618131067     -3.0515512000      0.1220123000    
  H      6.3107271867     -2.4439182600     -1.3110445700    
73
 Energy =        -1168.3616828200 Eh        #Cluster:     0
  C     -3.3304288933      0.2151337400      1.1671738067    
  C     -4.7781825833     -0.1838003900      1.0047111367    
  C     -5.6873747333      0.7603346300      1.8017425767    
  H     -4.9342031733     -1.2184816400      1.3305415867    
  H     -5.0675981533     -0.1147645300     -0.0544128233    
  C     -3.0572306833      1.6309414100      0.8349273267    
  C     -3.9880772533      2.6202012000      1.5008716767    
  C     -5.4602032033      2.2074689000      1.3615520767    
  H     -3.8292828733      3.6237627900      1.0920042167    
  H     -3.7347537833      2.6660448500      2.5709920067    
  H     -5.7707375133      2.3018160400      0.3120411767    
  H     -6.0958652933      2.8748051100      1.9549955567    
  O     -5.4763716633      0.5953810000      3.2139491367    
  H     -6.7364442633      0.4869088500      1.6339424167    
  C     -2.4105849533     -0.6583761700      1.6415985867    
  C     -2.0961083733      2.0106351300     -0.0141568033    
  H     -1.4486436833      1.2835236000     -0.4970100733    
  H     -1.9434197033      3.0606795500     -0.2523090033    
  C     -1.0270294333     -0.3628925300      1.9344614367    
  H     -2.7652329233     -1.6678537100      1.8464423567    
  C     -0.0766139833     -1.2495370200      2.2991167267    
  H     -0.7396682433      0.6832439100      1.8558320767    
  C     -0.2665075533     -2.7391576100      2.4309265467    
  C      0.7407464667     -3.5166390500      1.5608899667    
  H     -1.2845299433     -3.0527502800      2.1843888567    
  H     -0.0906693733     -3.0112407900      3.4838044467    
  C      2.1897841067     -3.0625083500      1.7839967367    
  H      0.4709143567     -3.3921508300      0.5045415667    
  H      0.6535088467     -4.5878069900      1.7804634667    
  C      2.3480366767     -1.5461681200      1.6067848167    
  H      2.8438313067     -3.6141505700      1.1005722167    
  H      2.4986798267     -3.3267464000      2.8066372067    
  C      1.3403199567     -0.8533960600      2.5800544467    
  H      1.5898519767     -1.2659202900      3.5747197667    
  C      1.7677260267      0.6114888600      2.5789532867    
  H     -4.5225606533      0.5209515500      3.3602654467    
  C      3.3103884667      0.5402493100      2.4666672167    
  H      1.4290355267      1.1395491400      3.4764820367    
  H      1.3465247067      1.1392626200      1.7160256067    
  C      3.6788882367     -0.9350519700      2.1259455967    
  H      3.8032077067      0.8547408400      3.3919514367    
  H      3.6772939967      1.2095011100      1.6796572467    
  H      3.9195973867     -1.4625659700      3.0635304167    
  C      4.9314714067     -1.0110335500      1.2293868967    
  C      2.0847503567     -1.1285237900      0.1538180367    
  H      2.3026381667     -0.0676608600     -0.0056141633    
  H      1.0401864267     -1.2930370400     -0.1282078233    
  H      2.7142369467     -1.7037256800     -0.5339843633    
  H      4.7211739667     -0.4671368800      0.2967008067    
  C      5.3489550967     -2.4475341500      0.8799318567    
  C      6.0804813167     -0.3222542500      1.9165745867    
  C      6.7501789667      0.7248840000      1.4395179067    
  H      6.3804925367     -0.7502807300      2.8784521667    
  H      6.4487915367      1.1512038200      0.4771680967    
  C      7.8935394067      1.4185439400      2.1258044067    
  C      7.4655616267      2.8489648500      2.4926426867    
  C      9.1669818467      1.3960336400      1.2447069167    
  H      8.1225867067      0.8722626200      3.0549216567    
  H      8.9179768467      1.9068858300      0.3003369467    
  C      9.5826950767     -0.0413847900      0.9204183767    
  C     10.3342465367      2.1389814100      1.9007187367    
  H      7.3182540867      3.4506756100      1.5868884367    
  H      8.2112772667      3.3500233300      3.1168304867    
  H      6.5198235267      2.8331094100      3.0442350867    
  H      8.7882977167     -0.5842984500      0.3994167167    
  H      9.8112596267     -0.5889324600      1.8442117067    
  H     10.4791564267     -0.0548301000      0.2908323667    
  H     10.1351565667      3.2079088400      2.0182241867    
  H     11.2414134867      2.0349683900      1.2953782667    
  H     10.5450278367      1.7203562400      2.8934496067    
  H      4.6171943367     -2.9391767100      0.2339007767    
  H      5.4618131067     -3.0515512000      1.7886789667    
  H      6.3107271867     -2.4439182600      0.3556220967    
73
 Energy =        -1168.3616828200 Eh        #Cluster:     0
  C     -3.3304288933      0.2151337400      2.8338404733    
  C     -4.7781825833     -0.1838003900      2.6713778033    
  C     -5.6873747333      0.7603346300      3.4684092433    
  H     -4.9342031733     -1.2184816400      2.9972082533    
  H     -5.0675981533     -0.1147645300      1.6122538433    
  C     -3.0572306833      1.6309414100      2.5015939933    
  C     -3.9880772533      2.6202012000      3.1675383433    
  C     -5.4602032033      2.2074689000      3.0282187433    
  H     -3.8292828733      3.6237627900      2.7586708833    
  H     -3.7347537833      2.6660448500      4.2376586733    
  H     -5.7707375133      2.3018160400      1.9787078433    
  H     -6.0958652933      2.8748051100      3.6216622233    
  O     -5.4763716633      0.5953810000      4.8806158033    
  H     -6.7364442633      0.4869088500      3.3006090833    
  C     -2.4105849533     -0.6583761700      3.3082652533    
  C     -2.0961083733      2.0106351300      1.6525098633    
  H     -1.4486436833      1.2835236000      1.1696565933    
  H     -1.9434197033      3.0606795500      1.4143576633    
  C     -1.0270294333     -0.3628925300      3.6011281033    
  H     -2.7652329233     -1.6678537100      3.5131090233    
  C     -0.0766139833     -1.2495370200      3.9657833933    
  H     -0.7396682433      0.6832439100      3.5224987433    
  C     -0.2665075533     -2.7391576100      4.0975932133    
  C      0.7407464667     -3.5166390500      3.2275566333    
  H     -1.2845299433     -3.0527502800      3.8510555233    
  H     -0.0906693733     -3.0112407900      5.1504711133    
  C      2.1897841067     -3.0625083500      3.4506634033    
  H      0.4709143567     -3.3921508300      2.1712082333    
  H      0.6535088467     -4.5878069900      3.4471301333    
  C      2.3480366767     -1.5461681200      3.2734514833    
  H      2.8438313067     -3.6141505700      2.7672388833    
  H      2.4986798267     -3.3267464000      4.4733038733    
  C      1.3403199567     -0.8533960600      4.2467211133    
  H      1.5898519767     -1.2659202900      5.2413864333    
  C      1.7677260267      0.6114888600      4.2456199533    
  H     -4.5225606533      0.5209515500      5.0269321133    
  C      3.3103884667      0.5402493100      4.1333338833    
  H      1.4290355267      1.1395491400      5.1431487033    