73
 Energy =        -1168.3616828200 Eh        #Cluster:     0
  C     -4.9970955600      0.2151337400     -0.4994928600    
  C     -6.4448492500     -0.1838003900     -0.6619555300    
  C     -7.3540414000      0.7603346300      0.1350759100    
  H     -6.6008698400     -1.2184816400     -0.3361250800    
  H     -6.7342648200     -0.1147645300     -1.7210794900    
  C     -4.7238973500      1.6309414100     -0.8317393400    
  C     -5.6547439200      2.6202012000     -0.1657949900    
  C     -7.1268698700      2.2074689000     -0.3051145900    
  H     -5.4959495400      3.6237627900     -0.5746624500    
  H     -5.4014204500      2.6660448500      0.9043253400    
  H     -7.4374041800      2.3018160400     -1.3546254900    
  H     -7.7625319600      2.8748051100      0.2883288900    
  O     -7.1430383300      0.5953810000      1.5472824700    
  H     -8.4031109300      0.4869088500     -0.0327242500    
  C     -4.0772516200     -0.6583761700     -0.0250680800    
  C     -3.7627750400      2.0106351300     -1.6808234700    
  H     -3.1153103500      1.2835236000     -2.1636767400    
  H     -3.6100863700      3.0606795500     -1.9189756700    
  C     -2.6936961000     -0.3628925300      0.2677947700    
  H     -4.4318995900     -1.6678537100      0.1797756900    
  C     -1.7432806500     -1.2495370200      0.6324500600    
  H     -2.4063349100      0.6832439100      0.1891654100    
  C     -1.9331742200     -2.7391576100      0.7642598800    
  C     -0.9259202000     -3.5166390500     -0.1057767000    
  H     -2.9511966100     -3.0527502800      0.5177221900    
  H     -1.7573360400     -3.0112407900      1.8171377800    
  C      0.5231174400     -3.0625083500      0.1173300700    
  H     -1.1957523100     -3.3921508300     -1.1621251000    
  H     -1.0131578200     -4.5878069900      0.1137968000    
  C      0.6813700100     -1.5461681200     -0.0598818500    
  H      1.1771646400     -3.6141505700     -0.5660944500    
  H      0.8320131600     -3.3267464000      1.1399705400    
  C     -0.3263467100     -0.8533960600      0.9133877800    
  H     -0.0768146900     -1.2659202900      1.9080531000    
  C      0.1010593600      0.6114888600      0.9122866200    
  H     -6.1892273200      0.5209515500      1.6935987800    
  C      1.6437218000      0.5402493100      0.8000005500    
  H     -0.2376311400      1.1395491400      1.8098153700    
  H     -0.3201419600      1.1392626200      0.0493589400    
  C      2.0122215700     -0.9350519700      0.4592789300    
  H      2.1365410400      0.8547408400      1.7252847700    
  H      2.0106273300      1.2095011100      0.0129905800    
  H      2.2529307200     -1.4625659700      1.3968637500    
  C      3.2648047400     -1.0110335500     -0.4372797700    
  C      0.4180836900     -1.1285237900     -1.5128486300    
  H      0.6359715000     -0.0676608600     -1.6722808300    
  H     -0.6264802400     -1.2930370400     -1.7948744900    
  H      1.0475702800     -1.7037256800     -2.2006510300    
  H      3.0545073000     -0.4671368800     -1.3699658600    
  C      3.6822884300     -2.4475341500     -0.7867348100    
  C      4.4138146500     -0.3222542500      0.2499079200    
  C      5.0835123000      0.7248840000     -0.2271487600    
  H      4.7138258700     -0.7502807300      1.2117855000    
  H      4.7821248700      1.1512038200     -1.1894985700    
  C      6.2268727400      1.4185439400      0.4591377400    
  C      5.7988949600      2.8489648500      0.8259760200    
  C      7.5003151800      1.3960336400     -0.4219597500    
  H      6.4559200400      0.8722626200      1.3882549900    
  H      7.2513101800      1.9068858300     -1.3663297200    
  C      7.9160284100     -0.0413847900     -0.7462482900    
  C      8.6675798700      2.1389814100      0.2340520700    
  H      5.6515874200      3.4506756100     -0.0797782300    
  H      6.5446106000      3.3500233300      1.4501638200    
  H      4.8531568600      2.8331094100      1.3775684200    
  H      7.1216310500     -0.5842984500     -1.2672499500    
  H      8.1445929600     -0.5889324600      0.1775450400    
  H      8.8124897600     -0.0548301000     -1.3758343000    
  H      8.4684899000      3.2079088400      0.3515575200    
  H      9.5747468200      2.0349683900     -0.3712884000    
  H      8.8783611700      1.7203562400      1.2267829400    
  H      2.9505276700     -2.9391767100     -1.4327658900    
  H      3.7951464400     -3.0515512000      0.1220123000    
  H      4.6440605200     -2.4439182600     -1.3110445700    
73
 Energy =        -1168.3616828200 Eh        #Cluster:     0
  C     -4.4970955600      0.2151337400     -0.4994928600    
  C     -5.9448492500     -0.1838003900     -0.6619555300    
  C     -6.8540414000      0.7603346300      0.1350759100    
  H     -6.1008698400     -1.2184816400     -0.3361250800    
  H     -6.2342648200     -0.1147645300     -1.7210794900    
  C     -4.2238973500      1.6309414100     -0.8317393400    
  C     -5.1547439200      2.6202012000     -0.1657949900    
  C     -6.6268698700      2.2074689000     -0.3051145900    
  H     -4.9959495400      3.6237627900     -0.5746624500    
  H     -4.9014204500      2.6660448500      0.9043253400    
  H     -6.9374041800      2.3018160400     -1.3546254900    
  H     -7.2625319600      2.8748051100      0.2883288900    
  O     -6.6430383300      0.5953810000      1.5472824700    
  H     -7.9031109300      0.4869088500     -0.0327242500    
  C     -3.5772516200     -0.6583761700     -0.0250680800    
  C     -3.2627750400      2.0106351300     -1.6808234700    
  H     -2.6153103500      1.2835236000     -2.1636767400    
  H     -3.1100863700      3.0606795500     -1.9189756700    
  C     -2.1936961000     -0.3628925300      0.2677947700    
  H     -3.9318995900     -1.6678537100      0.1797756900    
  C     -1.2432806500     -1.2495370200      0.6324500600    
  H     -1.9063349100      0.6832439100      0.1891654100    
  C     -1.4331742200     -2.7391576100      0.7642598800    
  C     -0.4259202000     -3.5166390500     -0.1057767000    
  H     -2.4511966100     -3.0527502800      0.5177221900    
  H     -1.2573360400     -3.0112407900      1.8171377800    
  C      1.0231174400     -3.0625083500      0.1173300700    
  H     -0.6957523100     -3.3921508300     -1.1621251000    
  H     -0.5131578200     -4.5878069900      0.1137968000    
  C      1.1813700100     -1.5461681200     -0.0598818500    
  H      1.6771646400     -3.6141505700     -0.5660944500    
  H      1.3320131600     -3.3267464000      1.1399705400    
  C      0.1736532900     -0.8533960600      0.9133877800    
  H      0.4231853100     -1.2659202900      1.9080531000    
  C      0.6010593600      0.6114888600      0.9122866200    
  H     -5.6892273200      0.5209515500      1.6935987800    
  C      2.1437218000      0.5402493100      0.8000005500    
  H      0.2623688600      1.1395491400      1.8098153700    
  H      0.1798580400      1.1392626200      0.0493589400    
  C      2.5122215700     -0.9350519700      0.4592789300    
  H      2.6365410400      0.8547408400      1.7252847700    
  H      2.5106273300      1.2095011100      0.0129905800    
  H      2.7529307200     -1.4625659700      1.3968637500    
  C      3.7648047400     -1.0110335500     -0.4372797700    
  C      0.9180836900     -1.1285237900     -1.5128486300    
  H      1.1359715000     -0.0676608600     -1.6722808300    
  H     -0.1264802400     -1.2930370400     -1.7948744900    
  H      1.5475702800     -1.7037256800     -2.2006510300    
  H      3.5545073000     -0.4671368800     -1.3699658600    
  C      4.1822884300     -2.4475341500     -0.7867348100    
  C      4.9138146500     -0.3222542500      0.2499079200    
  C      5.5835123000      0.7248840000     -0.2271487600    
  H      5.2138258700     -0.7502807300      1.2117855000    
  H      5.2821248700      1.1512038200     -1.1894985700    
  C      6.7268727400      1.4185439400      0.4591377400    
  C      6.2988949600      2.8489648500      0.8259760200    
  C      8.0003151800      1.3960336400     -0.4219597500    
  H      6.9559200400      0.8722626200      1.3882549900    
  H      7.7513101800      1.9068858300     -1.3663297200    
  C      8.4160284100     -0.0413847900     -0.7462482900    
  C      9.1675798700      2.1389814100      0.2340520700    
  H      6.1515874200      3.4506756100     -0.0797782300    
  H      7.0446106000      3.3500233300      1.4501638200    
  H      5.3531568600      2.8331094100      1.3775684200    
  H      7.6216310500     -0.5842984500     -1.2672499500    
  H      8.6445929600     -0.5889324600      0.1775450400    
  H      9.3124897600     -0.0548301000     -1.3758343000    
  H      8.9684899000      3.2079088400      0.3515575200    
  H     10.0747468200      2.0349683900     -0.3712884000    
  H      9.3783611700      1.7203562400      1.2267829400    
  H      3.4505276700     -2.9391767100     -1.4327658900    
  H      4.2951464400     -3.0515512000      0.1220123000    
  H      5.1440605200     -2.4439182600     -1.3110445700    
73
 Energy =        -1168.3616828200 Eh        #Cluster:     0
  C     -3.9970955600      0.2151337400     -0.4994928600    
  C     -5.4448492500     -0.1838003900     -0.6619555300    
  C     -6.3540414000      0.7603346300      0.1350759100    
  H     -5.6008698400     -1.2184816400     -0.3361250800    
  H     -5.7342648200     -0.1147645300     -1.7210794900    
  C     -3.7238973500      1.6309414100     -0.8317393400    
  C     -4.6547439200      2.6202012000     -0.1657949900    
  C     -6.1268698700      2.2074689000     -0.3051145900    
  H     -4.4959495400      3.6237627900     -0.5746624500    
  H     -4.4014204500      2.6660448500      0.9043253400    
  H     -6.4374041800      2.3018160400     -1.3546254900    
  H     -6.7625319600      2.8748051100      0.2883288900    
  O     -6.1430383300      0.5953810000      1.5472824700    
  H     -7.4031109300      0.4869088500     -0.0327242500    
  C     -3.0772516200     -0.6583761700     -0.0250680800    
  C     -2.7627750400      2.0106351300     -1.6808234700    
  H     -2.1153103500      1.2835236000     -2.1636767400    
  H     -2.6100863700      3.0606795500     -1.9189756700    
  C     -1.6936961000     -0.3628925300      0.2677947700    
  H     -3.4318995900     -1.6678537100      0.1797756900    
  C     -0.7432806500     -1.2495370200      0.6324500600    
  H     -1.4063349100      0.6832439100      0.1891654100    
  C     -0.9331742200     -2.7391576100      0.7642598800    
  C      0.0740798000     -3.5166390500     -0.1057767000    
  H     -1.9511966100     -3.0527502800      0.5177221900    
  H     -0.7573360400     -3.0112407900      1.8171377800    
  C      1.5231174400     -3.0625083500      0.1173300700    
  H     -0.1957523100     -3.3921508300     -1.1621251000    
  H     -0.0131578200     -4.5878069900      0.1137968000    
  C      1.6813700100     -1.5461681200     -0.0598818500    
  H      2.1771646400     -3.6141505700     -0.5660944500    
  H      1.8320131600     -3.3267464000      1.1399705400    
  C      0.6736532900     -0.8533960600      0.9133877800    
  H      0.9231853100     -1.2659202900      1.9080531000    
  C      1.1010593600      0.6114888600      0.9122866200    
  H     -5.1892273200      0.5209515500      1.6935987800    
  C      2.6437218000      0.5402493100      0.8000005500    
  H      0.7623688600      1.1395491400      1.8098153700    
  H      0.6798580400      1.1392626200      0.0493589400    
  C      3.0122215700     -0.9350519700      0.4592789300    
  H      3.1365410400      0.8547408400      1.7252847700    
  H      3.0106273300      1.2095011100      0.0129905800    
  H      3.2529307200     -1.4625659700      1.3968637500    
  C      4.2648047400     -1.0110335500     -0.4372797700    
  C      1.4180836900     -1.1285237900     -1.5128486300    
  H      1.6359715000     -0.0676608600     -1.6722808300    
  H      0.3735197600     -1.2930370400     -1.7948744900    
  H      2.0475702800     -1.7037256800     -2.2006510300    
  H      4.0545073000     -0.4671368800     -1.3699658600    
  C      4.6822884300     -2.4475341500     -0.7867348100    
  C      5.4138146500     -0.3222542500      0.2499079200    
  C      6.0835123000      0.7248840000     -0.2271487600    
  H      5.7138258700     -0.7502807300      1.2117855000    
  H      5.7821248700      1.1512038200     -1.1894985700    
  C      7.2268727400      1.4185439400      0.4591377400    
  C      6.7988949600      2.8489648500      0.8259760200    
  C      8.5003151800      1.3960336400     -0.4219597500    
  H      7.4559200400      0.8722626200      1.3882549900    
  H      8.2513101800      1.9068858300     -1.3663297200    
  C      8.9160284100     -0.0413847900     -0.7462482900    
  C      9.6675798700      2.1389814100      0.2340520700    
  H      6.6515874200      3.4506756100     -0.0797782300    
  H      7.5446106000      3.3500233300      1.4501638200    
  H      5.8531568600      2.8331094100      1.3775684200    
  H      8.1216310500     -0.5842984500     -1.2672499500    
  H      9.1445929600     -0.5889324600      0.1775450400    
  H      9.8124897600     -0.0548301000     -1.3758343000    
  H      9.4684899000      3.2079088400      0.3515575200    
  H     10.5747468200      2.0349683900     -0.3712884000    
  H      9.8783611700      1.7203562400      1.2267829400    
  H      3.9505276700     -2.9391767100     -1.4327658900    
  H      4.7951464400     -3.0515512000      0.1220123000    
  H      5.6440605200     -2.4439182600     -1.3110445700    
73
 Energy =        -1168.3616828200 Eh        #Cluster:     0
  C     -3.4970955600      0.2151337400     -0.4994928600    
  C     -4.9448492500     -0.1838003900     -0.6619555300    
  C     -5.8540414000      0.7603346300      0.1350759100    
  H     -5.1008698400     -1.2184816400     -0.3361250800    
  H     -5.2342648200     -0.1147645300     -1.7210794900    
  C     -3.2238973500      1.6309414100     -0.8317393400    
  C     -4.1547439200      2.6202012000     -0.1657949900    
  C     -5.6268698700      2.2074689000     -0.3051145900    
  H     -3.9959495400      3.6237627900     -0.5746624500    
  H     -3.9014204500      2.6660448500      0.9043253400    
  H     -5.9374041800      2.3018160400     -1.3546254900    
  H     -6.2625319600      2.8748051100      0.2883288900    
  O     -5.6430383300      0.5953810000      1.5472824700    
  H     -6.9031109300      0.4869088500     -0.0327242500    
  C     -2.5772516200     -0.6583761700     -0.0250680800    
  C     -2.2627750400      2.0106351300     -1.6808234700    
  H     -1.6153103500      1.2835236000     -2.1636767400    
  H     -2.1100863700      3.0606795500     -1.9189756700    
  C     -1.1936961000     -0.3628925300      0.2677947700    
  H     -2.9318995900     -1.6678537100      0.1797756900    
  C     -0.2432806500     -1.2495370200      0.6324500600    
  H     -0.9063349100      0.6832439100      0.1891654100    
  C     -0.4331742200     -2.7391576100      0.7642598800    
  C      0.5740798000     -3.5166390500     -0.1057767000    
  H     -1.4511966100     -3.0527502800      0.5177221900    
  H     -0.2573360400     -3.0112407900      1.8171377800    
  C      2.0231174400     -3.0625083500      0.1173300700    
  H      0.3042476900     -3.3921508300     -1.1621251000    
  H      0.4868421800     -4.5878069900      0.1137968000    
  C      2.1813700100     -1.5461681200     -0.0598818500    
  H      2.6771646400     -3.6141505700     -0.5660944500    
  H      2.3320131600     -3.3267464000      1.1399705400    
  C      1.1736532900     -0.8533960600      0.9133877800    
  H      1.4231853100     -1.2659202900      1.9080531000    
  C      1.6010593600      0.6114888600      0.9122866200    
  H     -4.6892273200      0.5209515500      1.6935987800    
  C      3.1437218000      0.5402493100      0.8000005500    
  H      1.2623688600      1.1395491400      1.8098153700    
  H      1.1798580400      1.1392626200      0.0493589400    
  C      3.5122215700     -0.9350519700      0.4592789300    
  H      3.6365410400      0.8547408400      1.7252847700    
  H      3.5106273300      1.2095011100      0.0129905800    
  H      3.7529307200     -1.4625659700      1.3968637500    
  C      4.7648047400     -1.0110335500     -0.4372797700    
  C      1.9180836900     -1.1285237900     -1.5128486300    
  H      2.1359715000     -0.0676608600     -1.6722808300    
  H      0.8735197600     -1.2930370400     -1.7948744900    
  H      2.5475702800     -1.7037256800     -2.2006510300    
  H      4.5545073000     -0.4671368800     -1.3699658600    
  C      5.1822884300     -2.4475341500     -0.7867348100    
  C      5.9138146500     -0.3222542500      0.2499079200    
  C      6.5835123000      0.7248840000     -0.2271487600    
  H      6.2138258700     -0.7502807300      1.2117855000    
  H      6.2821248700      1.1512038200     -1.1894985700    
  C      7.7268727400      1.4185439400      0.4591377400    
  C      7.2988949600      2.8489648500      0.8259760200    
  C      9.0003151800      1.3960336400     -0.4219597500    
  H      7.9559200400      0.8722626200      1.3882549900    
  H      8.7513101800      1.9068858300     -1.3663297200    
  C      9.4160284100     -0.0413847900     -0.7462482900    
  C     10.1675798700      2.1389814100      0.2340520700    
  H      7.1515874200      3.4506756100     -0.0797782300    
  H      8.0446106000      3.3500233300      1.4501638200    
  H      6.3531568600      2.8331094100      1.3775684200    
  H      8.6216310500     -0.5842984500     -1.2672499500    
  H      9.6445929600     -0.5889324600      0.1775450400    
  H     10.3124897600     -0.0548301000     -1.3758343000    
  H      9.9684899000      3.2079088400      0.3515575200    
  H     11.0747468200      2.0349683900     -0.3712884000    
  H     10.3783611700      1.7203562400      1.2267829400    
  H      4.4505276700     -2.9391767100     -1.4327658900    
  H      5.2951464400     -3.0515512000      0.1220123000    
  H      6.1440605200     -2.4439182600     -1.3110445700    
73
 Energy =        -1168.3616828200 Eh        #Cluster:     0
  C     -2.9970955600      0.2151337400     -0.4994928600    
  C     -4.4448492500     -0.1838003900     -0.6619555300    
  C     -5.3540414000      0.7603346300      0.1350759100    
  H     -4.6008698400     -1.2184816400     -0.3361250800    
  H     -4.7342648200     -0.1147645300     -1.7210794900    
  C     -2.7238973500      1.6309414100     -0.8317393400    
  C     -3.6547439200      2.6202012000     -0.1657949900    
  C     -5.1268698700      2.2074689000     -0.3051145900    
  H     -3.4959495400      3.6237627900     -0.5746624500    
  H     -3.4014204500      2.6660448500      0.9043253400    
  H     -5.4374041800      2.3018160400     -1.3546254900    
  H     -5.7625319600      2.8748051100      0.2883288900    
  O     -5.1430383300      0.5953810000      1.5472824700    
  H     -6.4031109300      0.4869088500     -0.0327242500    
  C     -2.0772516200     -0.6583761700     -0.0250680800    
  C     -1.7627750400      2.0106351300     -1.6808234700    
  H     -1.1153103500      1.2835236000     -2.1636767400    
  H     -1.6100863700      3.0606795500     -1.9189756700    
  C     -0.6936961000     -0.3628925300      0.2677947700    
  H     -2.4318995900     -1.6678537100      0.1797756900    
  C      0.2567193500     -1.2495370200      0.6324500600    
  H     -0.4063349100      0.6832439100      0.1891654100    
  C      0.0668257800     -2.7391576100      0.7642598800    
  C      1.0740798000     -3.5166390500     -0.1057767000    
  H     -0.9511966100     -3.0527502800      0.5177221900    
  H      0.2426639600     -3.0112407900      1.8171377800    
  C      2.5231174400     -3.0625083500      0.1173300700    
  H      0.8042476900     -3.3921508300     -1.1621251000    
  H      0.9868421800     -4.5878069900      0.1137968000    
  C      2.6813700100     -1.5461681200     -0.0598818500    
  H      3.1771646400     -3.6141505700     -0.5660944500    
  H      2.8320131600     -3.3267464000      1.1399705400    
  C      1.6736532900     -0.8533960600      0.9133877800    
  H      1.9231853100     -1.2659202900      1.9080531000    
  C      2.1010593600      0.6114888600      0.9122866200    
  H     -4.1892273200      0.5209515500      1.6935987800    
  C      3.6437218000      0.5402493100      0.8000005500    
  H      1.7623688600      1.1395491400      1.8098153700    
  H      1.6798580400      1.1392626200      0.0493589400    
  C      4.0122215700     -0.9350519700      0.4592789300    
  H      4.1365410400      0.8547408400      1.7252847700    
  H      4.0106273300      1.2095011100      0.0129905800    
  H      4.2529307200     -1.4625659700      1.3968637500    
  C      5.2648047400     -1.0110335500     -0.4372797700    
  C      2.4180836900     -1.1285237900     -1.5128486300    
  H      2.6359715000     -0.0676608600     -1.6722808300    
  H      1.3735197600     -1.2930370400     -1.7948744900    
  H      3.0475702800     -1.7037256800     -2.2006510300    
  H      5.0545073000     -0.4671368800     -1.3699658600    
  C      5.6822884300     -2.4475341500     -0.7867348100    
  C      6.4138146500     -0.3222542500      0.2499079200    
  C      7.0835123000      0.7248840000     -0.2271487600    
  H      6.7138258700     -0.7502807300      1.2117855000    
  H      6.7821248700      1.1512038200     -1.1894985700    
  C      8.2268727400      1.4185439400      0.4591377400    
  C      7.7988949600      2.8489648500      0.8259760200    
  C      9.5003151800      1.3960336400     -0.4219597500    
  H      8.4559200400      0.8722626200      1.3882549900    
  H      9.2513101800      1.9068858300     -1.3663297200    
  C      9.9160284100     -0.0413847900     -0.7462482900    
  C     10.6675798700      2.1389814100      0.2340520700    
  H      7.6515874200      3.4506756100     -0.0797782300    
  H      8.5446106000      3.3500233300      1.4501638200    
  H      6.8531568600      2.8331094100      1.3775684200    
  H      9.1216310500     -0.5842984500     -1.2672499500    
  H     10.1445929600     -0.5889324600      0.1775450400    
  H     10.8124897600     -0.0548301000     -1.3758343000    
  H     10.4684899000      3.2079088400      0.3515575200    
  H     11.5747468200      2.0349683900     -0.3712884000    
  H     10.8783611700      1.7203562400      1.2267829400    
  H      4.9505276700     -2.9391767100     -1.4327658900    
  H      5.7951464400     -3.0515512000      0.1220123000    
  H      6.6440605200     -2.4439182600     -1.3110445700    
73
 Energy =        -1168.3616828200 Eh        #Cluster:     0
  C     -2.4970955600      0.2151337400     -0.4994928600    
  C     -3.9448492500     -0.1838003900     -0.6619555300    
  C     -4.8540414000      0.7603346300      0.1350759100    
  H     -4.1008698400     -1.2184816400     -0.3361250800    
  H     -4.2342648200     -0.1147645300     -1.7210794900    
  C     -2.2238973500      1.6309414100     -0.8317393400    
  C     -3.1547439200      2.6202012000     -0.1657949900    
  C     -4.6268698700      2.2074689000     -0.3051145900    
  H     -2.9959495400      3.6237627900     -0.5746624500    
  H     -2.9014204500      2.6660448500      0.9043253400    
  H     -4.9374041800      2.3018160400     -1.3546254900    
  H     -5.2625319600      2.8748051100      0.2883288900    
  O     -4.6430383300      0.5953810000      1.5472824700    
  H     -5.9031109300      0.4869088500     -0.0327242500    
  C     -1.5772516200     -0.6583761700     -0.0250680800    
  C     -1.2627750400      2.0106351300     -1.6808234700    
  H     -0.6153103500      1.2835236000     -2.1636767400    
  H     -1.1100863700      3.0606795500     -1.9189756700    
  C     -0.1936961000     -0.3628925300      0.2677947700    
  H     -1.9318995900     -1.6678537100      0.1797756900    
  C      0.7567193500     -1.2495370200      0.6324500600    
  H      0.0936650900      0.6832439100      0.1891654100    
  C      0.5668257800     -2.7391576100      0.7642598800    
  C      1.5740798000     -3.5166390500     -0.1057767000    
  H     -0.4511966100     -3.0527502800      0.5177221900    
  H      0.7426639600     -3.0112407900      1.8171377800    
  C      3.0231174400     -3.0625083500      0.1173300700    
  H      1.3042476900     -3.3921508300     -1.1621251000    
  H      1.4868421800     -4.5878069900      0.1137968000    
  C      3.1813700100     -1.5461681200     -0.0598818500    
  H      3.6771646400     -3.6141505700     -0.5660944500    
  H      3.3320131600     -3.3267464000      1.1399705400    
  C      2.1736532900     -0.8533960600      0.9133877800    
  H      2.4231853100     -1.2659202900      1.9080531000    
  C      2.6010593600      0.6114888600      0.9122866200    
  H     -3.6892273200      0.5209515500      1.6935987800    
  C      4.1437218000      0.5402493100      0.8000005500    
  H      2.2623688600      1.1395491400      1.8098153700    
  H      2.1798580400      1.1392626200      0.0493589400    
  C      4.5122215700     -0.9350519700      0.4592789300    
  H      4.6365410400      0.8547408400      1.7252847700    
  H      4.5106273300      1.2095011100      0.0129905800    
  H      4.7529307200     -1.4625659700      1.3968637500    
  C      5.7648047400     -1.0110335500     -0.4372797700    
  C      2.9180836900     -1.1285237900     -1.5128486300    
  H      3.1359715000     -0.0676608600     -1.6722808300    
  H      1.8735197600     -1.2930370400     -1.7948744900    
  H      3.5475702800     -1.7037256800     -2.2006510300    
  H      5.5545073000     -0.4671368800     -1.3699658600    
  C      6.1822884300     -2.4475341500     -0.7867348100    
  C      6.9138146500     -0.3222542500      0.2499079200    
  C      7.5835123000      0.7248840000     -0.2271487600    
  H      7.2138258700     -0.7502807300      1.2117855000    
  H      7.2821248700      1.1512038200     -1.1894985700    
  C      8.7268727400      1.4185439400      0.4591377400    
  C      8.2988949600      2.8489648500      0.8259760200    
  C     10.0003151800      1.3960336400     -0.4219597500    
  H      8.9559200400      0.8722626200      1.3882549900    
  H      9.7513101800      1.9068858300     -1.3663297200    
  C     10.4160284100     -0.0413847900     -0.7462482900    
  C     11.1675798700      2.1389814100      0.2340520700    
  H      8.1515874200      3.4506756100     -0.0797782300    
  H      9.0446106000      3.3500233300      1.4501638200    
  H      7.3531568600      2.8331094100      1.3775684200    
  H      9.6216310500     -0.5842984500     -1.2672499500    
  H     10.6445929600     -0.5889324600      0.1775450400    
  H     11.3124897600     -0.0548301000     -1.3758343000    
  H     10.9684899000      3.2079088400      0.3515575200    
  H     12.0747468200      2.0349683900     -0.3712884000    
  H     11.3783611700      1.7203562400      1.2267829400    
  H      5.4505276700     -2.9391767100     -1.4327658900    
  H      6.2951464400     -3.0515512000      0.1220123000    
  H      7.1440605200     -2.4439182600     -1.3110445700    
73
 Energy =        -1168.3616828200 Eh        #Cluster:     0
  C     -1.9970955600      0.2151337400     -0.4994928600    
  C     -3.4448492500     -0.1838003900     -0.6619555300    
  C     -4.3540414000      0.7603346300      0.1350759100    
  H     -3.6008698400     -1.2184816400     -0.3361250800    
  H     -3.7342648200     -0.1147645300     -1.7210794900    
  C     -1.7238973500      1.6309414100     -0.8317393400    
  C     -2.6547439200      2.6202012000     -0.1657949900    
  C     -4.1268698700      2.2074689000     -0.3051145900    
  H     -2.4959495400      3.6237627900     -0.5746624500    
  H     -2.4014204500      2.6660448500      0.9043253400    
  H     -4.4374041800      2.3018160400     -1.3546254900    
  H     -4.7625319600      2.8748051100      0.2883288900    
  O     -4.1430383300      0.5953810000      1.5472824700    
  H     -5.4031109300      0.4869088500     -0.0327242500    
  C     -1.0772516200     -0.6583761700     -0.0250680800    
  C     -0.7627750400      2.0106351300     -1.6808234700    
  H     -0.1153103500      1.2835236000     -2.1636767400    
  H     -0.6100863700      3.0606795500     -1.9189756700    
  C      0.3063039000     -0.3628925300      0.2677947700    
  H     -1.4318995900     -1.6678537100      0.1797756900    
  C      1.2567193500     -1.2495370200      0.6324500600    
  H      0.5936650900      0.6832439100      0.1891654100    
  C      1.0668257800     -2.7391576100      0.7642598800    
  C      2.0740798000     -3.5166390500     -0.1057767000    
  H      0.0488033900     -3.0527502800      0.5177221900    
  H      1.2426639600     -3.0112407900      1.8171377800    
  C      3.5231174400     -3.0625083500      0.1173300700    
  H      1.8042476900     -3.3921508300     -1.1621251000    
  H      1.9868421800     -4.5878069900      0.1137968000    
  C      3.6813700100     -1.5461681200     -0.0598818500    
  H      4.1771646400     -3.6141505700     -0.5660944500    
  H      3.8320131600     -3.3267464000      1.1399705400    
  C      2.6736532900     -0.8533960600      0.9133877800    
  H      2.9231853100     -1.2659202900      1.9080531000    
  C      3.1010593600      0.6114888600      0.9122866200    
  H     -3.1892273200      0.5209515500      1.6935987800    
  C      4.6437218000      0.5402493100      0.8000005500    
  H      2.7623688600      1.1395491400      1.8098153700    