
                                 *****************
                                 * O   R   C   A *
                                 *****************

                                            #,                                       
                                            ###                                      
                                            ####                                     
                                            #####                                    
                                            ######                                   
                                           ########,                                 
                                     ,,################,,,,,                         
                               ,,#################################,,                 
                          ,,##########################################,,             
                       ,#########################################, ''#####,          
                    ,#############################################,,   '####,        
                  ,##################################################,,,,####,       
                ,###########''''           ''''###############################       
              ,#####''   ,,,,##########,,,,          '''####'''          '####       
            ,##' ,,,,###########################,,,                        '##       
           ' ,,###''''                  '''############,,,                           
         ,,##''                                '''############,,,,        ,,,,,,###''
      ,#''                                            '''#######################'''  
     '                                                          ''''####''''         
             ,#######,   #######,   ,#######,      ##                                
            ,#'     '#,  ##    ##  ,#'     '#,    #''#        ######   ,####,        
            ##       ##  ##   ,#'  ##            #'  '#       #        #'  '#        
            ##       ##  #######   ##           ,######,      #####,   #    #        
            '#,     ,#'  ##    ##  '#,     ,#' ,#      #,         ##   #,  ,#        
             '#######'   ##     ##  '#######'  #'      '#     #####' # '####'        



                  #######################################################
                  #                        -***-                        #
                  #          Department of theory and spectroscopy      #
                  #    Directorship and core code : Frank Neese         #
                  #        Max Planck Institute fuer Kohlenforschung    #
                  #                Kaiser Wilhelm Platz 1               #
                  #                 D-45470 Muelheim/Ruhr               #
                  #                      Germany                        #
                  #                                                     #
                  #                  All rights reserved                #
                  #                        -***-                        #
                  #######################################################


                         Program Version 5.0.2 -  RELEASE  -


 With contributions from (in alphabetic order):
   Daniel Aravena         : Magnetic Suceptibility
   Michael Atanasov       : Ab Initio Ligand Field Theory (pilot matlab implementation)
   Alexander A. Auer      : GIAO ZORA, VPT2 properties, NMR spectrum
   Ute Becker             : Parallelization
   Giovanni Bistoni       : ED, misc. LED, open-shell LED, HFLD
   Martin Brehm           : Molecular dynamics
   Dmytro Bykov           : SCF Hessian
   Vijay G. Chilkuri      : MRCI spin determinant printing, contributions to CSF-ICE
   Dipayan Datta          : RHF DLPNO-CCSD density
   Achintya Kumar Dutta   : EOM-CC, STEOM-CC
   Dmitry Ganyushin       : Spin-Orbit,Spin-Spin,Magnetic field MRCI
   Miquel Garcia          : C-PCM and meta-GGA Hessian, CC/C-PCM, Gaussian charge scheme
   Yang Guo               : DLPNO-NEVPT2, F12-NEVPT2, CIM, IAO-localization
   Andreas Hansen         : Spin unrestricted coupled pair/coupled cluster methods
   Benjamin Helmich-Paris : MC-RPA, TRAH-SCF, COSX integrals
   Lee Huntington         : MR-EOM, pCC
   Robert Izsak           : Overlap fitted RIJCOSX, COSX-SCS-MP3, EOM
   Marcus Kettner         : VPT2
   Christian Kollmar      : KDIIS, OOCD, Brueckner-CCSD(T), CCSD density, CASPT2, CASPT2-K
   Simone Kossmann        : Meta GGA functionals, TD-DFT gradient, OOMP2, MP2 Hessian
   Martin Krupicka        : Initial AUTO-CI
   Lucas Lang             : DCDCAS
   Marvin Lechner         : AUTO-CI (C++ implementation), FIC-MRCC
   Dagmar Lenk            : GEPOL surface, SMD
   Dimitrios Liakos       : Extrapolation schemes; Compound Job, initial MDCI parallelization
   Dimitrios Manganas     : Further ROCIS development; embedding schemes
   Dimitrios Pantazis     : SARC Basis sets
   Anastasios Papadopoulos: AUTO-CI, single reference methods and gradients
   Taras Petrenko         : DFT Hessian,TD-DFT gradient, ASA, ECA, R-Raman, ABS, FL, XAS/XES, NRVS
   Peter Pinski           : DLPNO-MP2, DLPNO-MP2 Gradient
   Christoph Reimann      : Effective Core Potentials
   Marius Retegan         : Local ZFS, SOC
   Christoph Riplinger    : Optimizer, TS searches, QM/MM, DLPNO-CCSD(T), (RO)-DLPNO pert. Triples
   Tobias Risthaus        : Range-separated hybrids, TD-DFT gradient, RPA, STAB
   Michael Roemelt        : Original ROCIS implementation
   Masaaki Saitow         : Open-shell DLPNO-CCSD energy and density
   Barbara Sandhoefer     : DKH picture change effects
   Avijit Sen             : IP-ROCIS
   Kantharuban Sivalingam : CASSCF convergence, NEVPT2, FIC-MRCI
   Bernardo de Souza      : ESD, SOC TD-DFT
   Georgi Stoychev        : AutoAux, RI-MP2 NMR, DLPNO-MP2 response
   Willem Van den Heuvel  : Paramagnetic NMR
   Boris Wezisla          : Elementary symmetry handling
   Frank Wennmohs         : Technical directorship


 We gratefully acknowledge several colleagues who have allowed us to
 interface, adapt or use parts of their codes:
   Stefan Grimme, W. Hujo, H. Kruse, P. Pracht,  : VdW corrections, initial TS optimization,
                  C. Bannwarth, S. Ehlert          DFT functionals, gCP, sTDA/sTD-DF
   Ed Valeev, F. Pavosevic, A. Kumar             : LibInt (2-el integral package), F12 methods
   Garnet Chan, S. Sharma, J. Yang, R. Olivares  : DMRG
   Ulf Ekstrom                                   : XCFun DFT Library
   Mihaly Kallay                                 : mrcc  (arbitrary order and MRCC methods)
   Jiri Pittner, Ondrej Demel                    : Mk-CCSD
   Frank Weinhold                                : gennbo (NPA and NBO analysis)
   Christopher J. Cramer and Donald G. Truhlar   : smd solvation model
   Lars Goerigk                                  : TD-DFT with DH, B97 family of functionals
   V. Asgeirsson, H. Jonsson                     : NEB implementation
   FAccTs GmbH                                   : IRC, NEB, NEB-TS, DLPNO-Multilevel, CI-OPT
                                                   MM, QMMM, 2- and 3-layer-ONIOM, Crystal-QMMM,
                                                   LR-CPCM, SF, NACMEs, symmetry and pop. for TD-DFT,
                                                   nearIR, NL-DFT gradient (VV10), updates on ESD,
                                                   ML-optimized integration grids
   S Lehtola, MJT Oliveira, MAL Marques          : LibXC Library
   Liviu Ungur et al                             : ANISO software


 Your calculation uses the libint2 library for the computation of 2-el integrals
 For citations please refer to: http://libint.valeyev.net

 Your ORCA version has been built with support for libXC version: 5.1.0
 For citations please refer to: https://tddft.org/programs/libxc/

 This ORCA versions uses:
   CBLAS   interface :  Fast vector & matrix operations
   LAPACKE interface :  Fast linear algebra routines
   SCALAPACK package :  Parallel linear algebra routines
   Shared memory     :  Shared parallel matrices
   BLAS/LAPACK       :  OpenBLAS 0.3.15  USE64BITINT DYNAMIC_ARCH NO_AFFINITY Zen SINGLE_THREADED
        Core in use  :  Zen
   Copyright (c) 2011-2014, The OpenBLAS Project


Your calculation utilizes the atom-pairwise dispersion correction
based on tight binding partial charges (D4)
Cite in your paper:
E.Caldeweyher, C.Bannwarth, S.Grimme, J.Chem.Phys., (2017), 147, 034112.
E.Caldeweyher, S.Ehlert, A.Hansen, H.Neugebauer, S.Grimme, J.Chem.Phys., (2018), in progress.
   

================================================================================

----- Orbital basis set information -----
Your calculation utilizes the basis: pcJ-0
   F. Jensen, Theor. Chem. Acc. 126, 371 (2010).

----- AuxJ basis set information -----
Your calculation utilizes the auxiliary basis: def2/J
   F. Weigend, Phys. Chem. Chem. Phys. 8, 1057 (2006).

================================================================================
                                        WARNINGS
                       Please study these warnings very carefully!
================================================================================


INFO   : the flag for use of the SHARK integral package has been found!

================================================================================
                                       INPUT FILE
================================================================================
NAME = inpJ
|  1> ! pbe0
|  2> ! D4
|  3> ! pcJ-0
|  4> ! def2/J RIJCOSX
|  5> ! DEFGRID2
|  6> ! scfconv7
|  7> ! smallprint printgap noloewdin
|  8> ! NOSOSCF
|  9> %MaxCore 4000
| 10> %output
| 11>        print[P_BondOrder_M] 1
| 12>        print[P_Mayer] 1
| 13>        print[P_basis] 2
| 14> end
| 15> %pal
| 16>     nprocs 4
| 17> end
| 18> ! CPCM(chloroform)
| 19> *xyz 0 1
| 20> C   -4.9948516700   0.2691125800  -0.4723256000
| 21> C   -6.4549825100  -0.0831142500  -0.6337725900
| 22> C   -7.3308117800   0.8538108900   0.2078287100
| 23> H   -6.6356930100  -1.1248959700  -0.3457981000
| 24> H   -6.7526722300   0.0346070900  -1.6863342600
| 25> C   -4.6842755500   1.6895005700  -0.7469765900
| 26> C   -5.5825872600   2.6758093000  -0.0336366400
| 27> C   -7.0664525100   2.3101454800  -0.1784623800
| 28> H   -5.3984482100   3.6906970800  -0.4019415600
| 29> H   -5.3208489800   2.6703719400   1.0354921100
| 30> H   -7.3805396400   2.4529708400  -1.2214103900
| 31> H   -7.6795999000   2.9714964500   0.4446226600
| 32> O   -7.1142155100   0.6284627000   1.6106844300
| 33> H   -8.3883958100   0.6165337100   0.0390536700
| 34> C   -4.0950432300  -0.6497574300  -0.0476671100
| 35> C   -3.7174007000   2.0774760100  -1.5858898400
| 36> H   -3.0938767500   1.3533082000  -2.1034513000
| 37> H   -3.5357899500   3.1318981200  -1.7805064900
| 38> C   -2.7006467900  -0.4071929300   0.2440333000
| 39> H   -4.4762054300  -1.6567218500   0.1176585600
| 40> C   -1.7737631000  -1.3383631500   0.5541430500
| 41> H   -2.3857061800   0.6336023900   0.2164504500
| 42> C   -2.0057023100  -2.8268691000   0.6039805400
| 43> C   -1.0274613000  -3.5775450500  -0.3203064200
| 44> H   -3.0340209900  -3.0970633800   0.3495662900
| 45> H   -1.8274831500  -3.1637950500   1.6374220000
| 46> C    0.4352719500  -3.1823628900  -0.0787614600
| 47> H   -1.2993704300  -3.3781802200  -1.3646470300
| 48> H   -1.1456134400  -4.6573893000  -0.1681336300
| 49> C    0.6405117000  -1.6634151300  -0.1684220300
| 50> H    1.0686091500  -3.7140030000  -0.7961145400
| 51> H    0.7388184000  -3.5154231700   0.9251670500
| 52> C   -0.3445394400  -0.9997353000   0.8478518500
| 53> H   -0.1037913100  -1.4750628500   1.8163455400
| 54> C    0.1222281000   0.4502873300   0.9275199100
| 55> H   -6.1608813200   0.5360592600   1.7488382400
| 56> C    1.6615562400   0.3455810200   0.7975877500
| 57> H   -0.1945766900   0.9339798100   1.8573444200
| 58> H   -0.2906643900   1.0389198000   0.1008479000
| 59> C    1.9900533300  -1.1208206900   0.3802601700
| 60> H    2.1647884500   0.6027352400   1.7350945000
| 61> H    2.0303216700   1.0474722000   0.0396831500
| 62> H    2.2171077900  -1.6997206400   1.2902462100
| 63> C    3.2467543500  -1.2008912600  -0.5211249100
| 64> C    0.3831977400  -1.1523393800  -1.5929987000
| 65> H    0.6336303500  -0.0913381800  -1.6931483700
| 66> H   -0.6678242400  -1.2665945500  -1.8757135700
| 67> H    0.9886117000  -1.7058765500  -2.3189505800
| 68> H    3.0373477700  -0.5852817800  -1.4120885900
| 69> C    3.5705392500  -2.6183033400  -0.9883141400
| 70> C    4.3968415200  -0.5341476500   0.1997365800
| 71> C    5.5213362100  -1.1233197600   0.6084842600
| 72> H    4.2450945800   0.5222695500   0.3994390300
| 73> H    5.6489631900  -2.1875503900   0.3984624100
| 74> C    6.6942240700  -0.5462494800   1.3655710800
| 75> C    6.9014175700  -1.3749716300   2.6474126500
| 76> C    6.7305243500   0.9709591800   1.6621379000
| 77> H    7.5782849000  -0.7385357500   0.7331006900
| 78> H    7.7025896400   1.1242647400   2.1569332700
| 79> C    5.6663652900   1.4636367600   2.6502163600
| 80> C    6.7590344500   1.8268791400   0.3905123900
| 81> H    6.0263214700  -1.3162076100   3.3032626800
| 82> H    7.7750678600  -1.0177950900   3.2048107000
| 83> H    7.0613554300  -2.4307967200   2.4037903000
| 84> H    5.7250534100   0.9308495900   3.6044763500
| 85> H    4.6493914000   1.3444844400   2.2652757100
| 86> H    5.8182327900   2.5290173800   2.8578800900
| 87> H    7.5168932300   1.4597324300  -0.3113134800
| 88> H    7.0058842500   2.8652893900   0.6392086100
| 89> H    5.7979000800   1.8321003400  -0.1308811900
| 90> H    2.8052874200  -2.9891763600  -1.6728933500
| 91> H    3.6333020000  -3.3145983500  -0.1435627500
| 92> H    4.5280851900  -2.6417146100  -1.5196393600
| 93> *
| 94> %eprnmr
| 95>  Nuclei = all H { ssfc }
| 96>  SpinSpinRThresh 8.0
| 97> end
| 98> 
| 99>                          ****END OF INPUT****
================================================================================

                       ****************************
                       * Single Point Calculation *
                       ****************************

---------------------------------
CARTESIAN COORDINATES (ANGSTROEM)
---------------------------------
  C     -4.994852    0.269113   -0.472326
  C     -6.454983   -0.083114   -0.633773
  C     -7.330812    0.853811    0.207829
  H     -6.635693   -1.124896   -0.345798
  H     -6.752672    0.034607   -1.686334
  C     -4.684276    1.689501   -0.746977
  C     -5.582587    2.675809   -0.033637
  C     -7.066453    2.310145   -0.178462
  H     -5.398448    3.690697   -0.401942
  H     -5.320849    2.670372    1.035492
  H     -7.380540    2.452971   -1.221410
  H     -7.679600    2.971496    0.444623
  O     -7.114216    0.628463    1.610684
  H     -8.388396    0.616534    0.039054
  C     -4.095043   -0.649757   -0.047667
  C     -3.717401    2.077476   -1.585890
  H     -3.093877    1.353308   -2.103451
  H     -3.535790    3.131898   -1.780506
  C     -2.700647   -0.407193    0.244033
  H     -4.476205   -1.656722    0.117659
  C     -1.773763   -1.338363    0.554143
  H     -2.385706    0.633602    0.216450
  C     -2.005702   -2.826869    0.603981
  C     -1.027461   -3.577545   -0.320306
  H     -3.034021   -3.097063    0.349566
  H     -1.827483   -3.163795    1.637422
  C      0.435272   -3.182363   -0.078761
  H     -1.299370   -3.378180   -1.364647
  H     -1.145613   -4.657389   -0.168134
  C      0.640512   -1.663415   -0.168422
  H      1.068609   -3.714003   -0.796115
  H      0.738818   -3.515423    0.925167
  C     -0.344539   -0.999735    0.847852
  H     -0.103791   -1.475063    1.816346
  C      0.122228    0.450287    0.927520
  H     -6.160881    0.536059    1.748838
  C      1.661556    0.345581    0.797588
  H     -0.194577    0.933980    1.857344
  H     -0.290664    1.038920    0.100848
  C      1.990053   -1.120821    0.380260
  H      2.164788    0.602735    1.735094
  H      2.030322    1.047472    0.039683
  H      2.217108   -1.699721    1.290246
  C      3.246754   -1.200891   -0.521125
  C      0.383198   -1.152339   -1.592999
  H      0.633630   -0.091338   -1.693148
  H     -0.667824   -1.266595   -1.875714
  H      0.988612   -1.705877   -2.318951
  H      3.037348   -0.585282   -1.412089
  C      3.570539   -2.618303   -0.988314
  C      4.396842   -0.534148    0.199737
  C      5.521336   -1.123320    0.608484
  H      4.245095    0.522270    0.399439
  H      5.648963   -2.187550    0.398462
  C      6.694224   -0.546249    1.365571
  C      6.901418   -1.374972    2.647413
  C      6.730524    0.970959    1.662138
  H      7.578285   -0.738536    0.733101
  H      7.702590    1.124265    2.156933
  C      5.666365    1.463637    2.650216
  C      6.759034    1.826879    0.390512
  H      6.026321   -1.316208    3.303263
  H      7.775068   -1.017795    3.204811
  H      7.061355   -2.430797    2.403790
  H      5.725053    0.930850    3.604476
  H      4.649391    1.344484    2.265276
  H      5.818233    2.529017    2.857880
  H      7.516893    1.459732   -0.311313
  H      7.005884    2.865289    0.639209
  H      5.797900    1.832100   -0.130881
  H      2.805287   -2.989176   -1.672893
  H      3.633302   -3.314598   -0.143563
  H      4.528085   -2.641715   -1.519639

----------------------------
CARTESIAN COORDINATES (A.U.)
----------------------------
  NO LB      ZA    FRAG     MASS         X           Y           Z
   0 C     6.0000    0    12.011   -9.438902    0.508549   -0.892566
   1 C     6.0000    0    12.011  -12.198149   -0.157063   -1.197657
   2 C     6.0000    0    12.011  -13.853227    1.613469    0.392739
   3 H     1.0000    0     1.008  -12.539642   -2.125745   -0.653464
   4 H     1.0000    0     1.008  -12.760701    0.065398   -3.186710
   5 C     6.0000    0    12.011   -8.851998    3.192693   -1.411581
   6 C     6.0000    0    12.011  -10.549561    5.056547   -0.063564
   7 C     6.0000    0    12.011  -13.353660    4.365542   -0.337245
   8 H     1.0000    0     1.008  -10.201589    6.974407   -0.759559
   9 H     1.0000    0     1.008  -10.054947    5.046272    1.956797
  10 H     1.0000    0     1.008  -13.947199    4.635443   -2.308131
  11 H     1.0000    0     1.008  -14.512341    5.615314    0.840215
  12 O     8.0000    0    15.999  -13.443919    1.187622    3.043752
  13 H     1.0000    0     1.008  -15.851771    1.165080    0.073801
  14 C     6.0000    0    12.011   -7.738510   -1.227864   -0.090078
  15 C     6.0000    0    12.011   -7.024869    3.925861   -2.996897
  16 H     1.0000    0     1.008   -5.846580    2.557382   -3.974947
  17 H     1.0000    0     1.008   -6.681675    5.918430   -3.364670
  18 C     6.0000    0    12.011   -5.103483   -0.769483    0.461156
  19 H     1.0000    0     1.008   -8.458802   -3.130751    0.222342
  20 C     6.0000    0    12.011   -3.351926   -2.529140    1.047179
  21 H     1.0000    0     1.008   -4.508331    1.197335    0.409032
  22 C     6.0000    0    12.011   -3.790228   -5.342008    1.141358
  23 C     6.0000    0    12.011   -1.941620   -6.760580   -0.605291
  24 H     1.0000    0     1.008   -5.733469   -5.852602    0.660585
  25 H     1.0000    0     1.008   -3.453443   -5.978706    3.094279
  26 C     6.0000    0    12.011    0.822545   -6.013794   -0.148838
  27 H     1.0000    0     1.008   -2.455454   -6.383835   -2.578809
  28 H     1.0000    0     1.008   -2.164896   -8.801190   -0.317727
  29 C     6.0000    0    12.011    1.210392   -3.143399   -0.318272
  30 H     1.0000    0     1.008    2.019379   -7.018449   -1.504438
  31 H     1.0000    0     1.008    1.396164   -6.643187    1.748312
  32 C     6.0000    0    12.011   -0.651085   -1.889226    1.602208
  33 H     1.0000    0     1.008   -0.196137   -2.787465    3.432396
  34 C     6.0000    0    12.011    0.230978    0.850920    1.752759
  35 H     1.0000    0     1.008  -11.642378    1.013005    3.304825
  36 C     6.0000    0    12.011    3.139886    0.653053    1.507222
  37 H     1.0000    0     1.008   -0.367697    1.764966    3.509872
  38 H     1.0000    0     1.008   -0.549276    1.963274    0.190575
  39 C     6.0000    0    12.011    3.760656   -2.118044    0.718588
  40 H     1.0000    0     1.008    4.090857    1.139005    3.278853
  41 H     1.0000    0     1.008    3.836752    1.979436    0.074990
  42 H     1.0000    0     1.008    4.189727   -3.212007    2.438212
  43 C     6.0000    0    12.011    6.135477   -2.269356   -0.984783
  44 C     6.0000    0    12.011    0.724139   -2.177606   -3.010331
  45 H     1.0000    0     1.008    1.197388   -0.172604   -3.199587
  46 H     1.0000    0     1.008   -1.262005   -2.393517   -3.544585
  47 H     1.0000    0     1.008    1.868205   -3.223639   -4.382182
  48 H     1.0000    0     1.008    5.739755   -1.106022   -2.668461
  49 C     6.0000    0    12.011    6.747341   -4.947876   -1.867643
  50 C     6.0000    0    12.011    8.308826   -1.009393    0.377447
  51 C     6.0000    0    12.011   10.433813   -2.122767    1.149869
  52 H     1.0000    0     1.008    8.022066    0.986946    0.754830
  53 H     1.0000    0     1.008   10.674993   -4.133871    0.752985
  54 C     6.0000    0    12.011   12.650250   -1.032262    2.580555
  55 C     6.0000    0    12.011   13.041789   -2.598320    5.002885
  56 C     6.0000    0    12.011   12.718848    1.834847    3.140985
  57 H     1.0000    0     1.008   14.320883   -1.395630    1.385360
  58 H     1.0000    0     1.008   14.555785    2.124552    4.076013
  59 C     6.0000    0    12.011   10.707879    2.765873    5.008183
  60 C     6.0000    0    12.011   12.772724    3.452301    0.737961
  61 H     1.0000    0     1.008   11.388097   -2.487272    6.242262
  62 H     1.0000    0     1.008   14.692749   -1.923354    6.056215
  63 H     1.0000    0     1.008   13.344028   -4.593540    4.542505
  64 H     1.0000    0     1.008   10.818783    1.759051    6.811473
  65 H     1.0000    0     1.008    8.786076    2.540707    4.280751
  66 H     1.0000    0     1.008   10.994867    4.779150    5.400611
  67 H     1.0000    0     1.008   14.204870    2.758495   -0.588297
  68 H     1.0000    0     1.008   13.239203    5.414612    1.207929
  69 H     1.0000    0     1.008   10.956443    3.462168   -0.247330
  70 H     1.0000    0     1.008    5.301225   -5.648725   -3.161310
  71 H     1.0000    0     1.008    6.865946   -6.263683   -0.271294
  72 H     1.0000    0     1.008    8.556841   -4.992117   -2.871702

--------------------------------
INTERNAL COORDINATES (ANGSTROEM)
--------------------------------
 C      0   0   0     0.000000000000     0.00000000     0.00000000
 C      1   0   0     1.510665727509     0.00000000     0.00000000
 C      2   1   0     1.534013812296   110.53634746     0.00000000
 H      2   1   3     1.095853431727   110.66838665   237.85928412
 H      2   1   3     1.100165238697   109.80578713   118.75970371
 C      1   2   3     1.479659668558   114.00763969   306.37677890
 C      6   1   2     1.512819461622   114.43683870    49.52498657
 C      3   2   1     1.529711432878   110.13662558    56.69339682
 H      7   6   1     1.095241028187   110.22677276   188.80951057
 H      7   6   1     1.100714666105   108.27506826    72.16007924
 H      8   3   2     1.098540104072   108.30728200    64.31362397
 H      8   3   2     1.096161390697   109.52298381   181.31572723
 O      3   2   1     1.437254299716   110.71332012   292.66239893
 H      3   2   1     1.096936395051   109.50754225   177.15534769
 C      1   2   3     1.354367807171   121.16286465   123.31703188
 C      6   1   2     1.337590131031   123.13246114   231.43419079
 H     16   6   1     1.086770904166   121.34145170   359.08782313
 H     16   6   1     1.087503605065   120.94300425   178.46196422
 C     15   1   2     1.445084114417   126.19124343   185.15774828
 H     15   1   2     1.089309204503   116.24929369     3.02703539
 C     19  15   1     1.349947928791   126.37807241   186.21550439
 H     19  15   1     1.087751487967   115.77691225     6.86366233
 C     21  19  15     1.507292120238   125.67077804     2.52837468
 C     23  21  19     1.541030901695   111.31787140   123.89941936
 H     23  21  19     1.093238705491   112.40280623     0.37448688
 H     23  21  19     1.101490996795   107.95040976   242.41314873
 C     24  23  21     1.534308139827   112.66198428    51.43430771
 H     24  23  21     1.097418889993   108.96534304   289.27969551
 H     24  23  21     1.096895660699   109.14547941   173.34251631
 C     27  24  23     1.535371183265   111.90407787   306.20878983
 H     27  24  23     1.094692950946   108.86341260   182.64016273
 H     27  24  23     1.100428121511   109.18651830    66.23103471
 C     21  19  15     1.497869804188   122.97299472   180.19003638
 H     33  21  19     1.105384986987   106.40359684   127.84278201
 C     33  21  19     1.525380137439   121.13943749     5.24049254
 H     13   3   2     0.967714290875   107.62462786    43.22827620
 C     35  33  21     1.548346505196   103.62415672   197.09853325
 H     35  33  21     1.094941692316   112.07029175    75.09689563
 H     35  33  21     1.095607139970   110.85448226   315.46828749
 C     30  27  24     1.554581453002   116.15037158   166.15853190
 H     37  35  33     1.094664266495   111.67127984   249.13163091
 H     37  35  33     1.096840258937   110.42371354   130.61617089
 H     40  30  27     1.102158551621   106.67355729   320.83998867
 C     40  30  27     1.548613512887   118.74989508    81.18000130
 C     30  27  24     1.535196269197   111.16951949   294.21365004
 H     45  30  27     1.094746543705   111.66580280   186.29953083
 H     45  30  27     1.094362437236   111.46533412    66.30670591
 H     45  30  27     1.095415717255   110.73869632   306.21230348
 H     44  40  30     1.103015152522   106.69280381    62.07656166
 C     44  40  30     1.527140937381   113.46009249   303.11272001
 C     44  40  30     1.512246285444   108.47586329   176.41298752
 C     51  44  40     1.333674153962   126.33852100   116.49899981
 H     51  44  40     1.085783359051   114.22727717   297.60782370
 H     52  51  44     1.092238370197   118.03610501     0.96509146
 C     52  51  44     1.510581508298   129.75521911   182.01514555
 C     55  52  51     1.540398441613   108.41988532   123.63802201
 C     55  52  51     1.546347860939   119.28588523   354.73563351
 H     55  52  51     1.103882400891   105.55297084   236.83774723
 H     57  55  52     1.101469918302   104.08904046   183.40289092
 C     57  55  52     1.533448644699   114.99374164    67.71049217
 C     57  55  52     1.533115534267   112.90037708   298.09250370
 H     56  55  52     1.095164670784   111.22278961   297.92343762
 H     56  55  52     1.096144377392   110.79683332   177.34013499
 H     56  55  52     1.095307531771   110.68011380    57.42274606
 H     60  57  55     1.094494674478   111.60351028    56.53274729
 H     60  57  55     1.093897834501   112.54584105   295.33436731
 H     60  57  55     1.096003571064   109.76960312   175.60068857
 H     61  57  55     1.096223603508   110.90988533   311.84310702
 H     61  57  55     1.095938173853   110.17875742   192.47388687
 H     61  57  55     1.093461386328   112.44647122    72.50301746
 H     50  44  40     1.091698609987   111.00986275    67.40571365
 H     50  44  40     1.096526704939   111.45863122   307.08171462
 H     50  44  40     1.095330454329   110.70680749   186.76484570

---------------------------
INTERNAL COORDINATES (A.U.)
---------------------------
 C      0   0   0     0.000000000000     0.00000000     0.00000000
 C      1   0   0     2.854744504893     0.00000000     0.00000000
 C      2   1   0     2.898865990892   110.53634746     0.00000000
 H      2   1   3     2.070862868881   110.66838665   237.85928412
 H      2   1   3     2.079011003198   109.80578713   118.75970371
 C      1   2   3     2.796151544984   114.00763969   306.37677890
 C      6   1   2     2.858814472532   114.43683870    49.52498657
 C      3   2   1     2.890735672068   110.13662558    56.69339682
 H      7   6   1     2.069705593908   110.22677276   188.80951057
 H      7   6   1     2.080049270528   108.27506826    72.16007924
 H      8   3   2     2.075939943825   108.30728200    64.31362397
 H      8   3   2     2.071444826996   109.52298381   181.31572723
 O      3   2   1     2.716017011263   110.71332012   292.66239893
 H      3   2   1     2.072909372977   109.50754225   177.15534769
 C      1   2   3     2.559384240153   121.16286465   123.31703188
 C      6   1   2     2.527679027084   123.13246114   231.43419079
 H     16   6   1     2.053699379187   121.34145170   359.08782313
 H     16   6   1     2.055083983225   120.94300425   178.46196422
 C     15   1   2     2.730813216727   126.19124343   185.15774828
 H     15   1   2     2.058496071671   116.24929369     3.02703539
 C     19  15   1     2.551031880470   126.37807241   186.21550439
 H     19  15   1     2.055552414024   115.77691225     6.86366233
 C     21  19  15     2.848369311067   125.67077804     2.52837468
 C     23  21  19     2.912126368114   111.31787140   123.89941936
 H     23  21  19     2.065921752382   112.40280623     0.37448688
 H     23  21  19     2.081516322923   107.95040976   242.41314873
 C     24  23  21     2.899422189319   112.66198428    51.43430771
 H     24  23  21     2.073821156279   108.96534304   289.27969551
 H     24  23  21     2.072832396208   109.14547941   173.34251631
 C     27  24  23     2.901431050286   111.90407787   306.20878983
 H     27  24  23     2.068669878021   108.86341260   182.64016273
 H     27  24  23     2.079507779721   109.18651830    66.23103471
 C     21  19  15     2.830563714185   122.97299472   180.19003638
 H     33  21  19     2.088874897954   106.40359684   127.84278201
 C     33  21  19     2.882550709883   121.13943749     5.24049254
 H     13   3   2     1.828714985636   107.62462786    43.22827620
 C     35  33  21     2.925950855234   103.62415672   197.09853325
 H     35  33  21     2.069139931090   112.07029175    75.09689563
 H     35  33  21     2.070397444913   110.85448226   315.46828749
 C     30  27  24     2.937733199048   116.15037158   166.15853190
 H     37  35  33     2.068615672265   111.67127984   249.13163091
 H     37  35  33     2.072727702051   110.42371354   130.61617089
 H     40  30  27     2.082777818723   106.67355729   320.83998867
 C     40  30  27     2.926455426646   118.74989508    81.18000130
 C     30  27  24     2.901100510600   111.16951949   294.21365004
 H     45  30  27     2.068771153659   111.66580280   186.29953083
 H     45  30  27     2.068045297627   111.46533412    66.30670591
 H     45  30  27     2.070035708406   110.73869632   306.21230348
 H     44  40  30     2.084396559831   106.69280381    62.07656166
 C     44  40  30     2.885878139550   113.46009249   303.11272001
 C     44  40  30     2.857731326529   108.47586329   176.41298752
 C     51  44  40     2.520278902877   126.33852100   116.49899981
 H     51  44  40     2.051833189375   114.22727717   297.60782370
 H     52  51  44     2.064031392634   118.03610501     0.96509146
 C     52  51  44     2.854585353649   129.75521911   182.01514555
 C     55  52  51     2.910931191767   108.41988532   123.63802201
 C     55  52  51     2.922173964950   119.28588523   354.73563351
 H     55  52  51     2.086035421740   105.55297084   236.83774723
 H     57  55  52     2.081476490342   104.08904046   183.40289092
 C     57  55  52     2.897797978915   114.99374164    67.71049217
 C     57  55  52     2.897168491425   112.90037708   298.09250370
 H     56  55  52     2.069561299327   111.22278961   297.92343762
 H     56  55  52     2.071412676508   110.79683332   177.34013499
 H     56  55  52     2.069831267469   110.68011380    57.42274606
 H     60  57  55     2.068295189799   111.60351028    56.53274729
 H     60  57  55     2.067167325696   112.54584105   295.33436731
 H     60  57  55     2.071146591111   109.76960312   175.60068857
 H     61  57  55     2.071562392170   110.90988533   311.84310702
 H     61  57  55     2.071023008291   110.17875742   192.47388687
 H     61  57  55     2.066342558177   112.44647122    72.50301746
 H     50  44  40     2.063011393657   111.00986275    67.40571365
 H     50  44  40     2.072135170867   111.45863122   307.08171462
 H     50  44  40     2.069874584826   110.70680749   186.76484570

---------------------
BASIS SET INFORMATION
---------------------
There are 3 groups of distinct atoms

 Group   1 Type C   : 7s4p contracted to 4s3p pattern {4111/211}
 Group   2 Type H   : 5s contracted to 3s pattern {311}
 Group   3 Type O   : 7s4p contracted to 4s3p pattern {4111/211}

Atom   0C    basis set group =>   1
Atom   1C    basis set group =>   1
Atom   2C    basis set group =>   1
Atom   3H    basis set group =>   2
Atom   4H    basis set group =>   2
Atom   5C    basis set group =>   1
Atom   6C    basis set group =>   1
Atom   7C    basis set group =>   1
Atom   8H    basis set group =>   2
Atom   9H    basis set group =>   2
Atom  10H    basis set group =>   2
Atom  11H    basis set group =>   2
Atom  12O    basis set group =>   3
Atom  13H    basis set group =>   2
Atom  14C    basis set group =>   1
Atom  15C    basis set group =>   1
Atom  16H    basis set group =>   2
Atom  17H    basis set group =>   2
Atom  18C    basis set group =>   1
Atom  19H    basis set group =>   2
Atom  20C    basis set group =>   1
Atom  21H    basis set group =>   2
Atom  22C    basis set group =>   1
Atom  23C    basis set group =>   1
Atom  24H    basis set group =>   2
Atom  25H    basis set group =>   2
Atom  26C    basis set group =>   1
Atom  27H    basis set group =>   2
Atom  28H    basis set group =>   2
Atom  29C    basis set group =>   1
Atom  30H    basis set group =>   2
Atom  31H    basis set group =>   2
Atom  32C    basis set group =>   1
Atom  33H    basis set group =>   2
Atom  34C    basis set group =>   1
Atom  35H    basis set group =>   2
Atom  36C    basis set group =>   1
Atom  37H    basis set group =>   2
Atom  38H    basis set group =>   2
Atom  39C    basis set group =>   1
Atom  40H    basis set group =>   2
Atom  41H    basis set group =>   2
Atom  42H    basis set group =>   2
Atom  43C    basis set group =>   1
Atom  44C    basis set group =>   1
Atom  45H    basis set group =>   2
Atom  46H    basis set group =>   2
Atom  47H    basis set group =>   2
Atom  48H    basis set group =>   2
Atom  49C    basis set group =>   1
Atom  50C    basis set group =>   1
Atom  51C    basis set group =>   1
Atom  52H    basis set group =>   2
Atom  53H    basis set group =>   2
Atom  54C    basis set group =>   1
Atom  55C    basis set group =>   1
Atom  56C    basis set group =>   1
Atom  57H    basis set group =>   2
Atom  58H    basis set group =>   2
Atom  59C    basis set group =>   1
Atom  60C    basis set group =>   1
Atom  61H    basis set group =>   2
Atom  62H    basis set group =>   2
Atom  63H    basis set group =>   2
Atom  64H    basis set group =>   2
Atom  65H    basis set group =>   2
Atom  66H    basis set group =>   2
Atom  67H    basis set group =>   2
Atom  68H    basis set group =>   2
Atom  69H    basis set group =>   2
Atom  70H    basis set group =>   2
Atom  71H    basis set group =>   2
Atom  72H    basis set group =>   2

-------------------------
BASIS SET IN INPUT FORMAT
-------------------------

 # Basis set for element : H 
 NewGTO H 
 S 3 
   1    1357.7500000000      0.0012928364
   2      54.3100000000      0.0588280685
   3       4.3448000000      0.9761499708
 S 1 
   1       0.6604910000      1.0000000000
 S 1 
   1       0.1366870000      1.0000000000
  end;

 # Basis set for element : C 
 NewGTO C 
 S 4 
   1  139534.0000000000      0.0001655246
   2    5581.3600000000      0.0074486101
   3     446.5090000000      0.1285821065
   4      67.4620000000      0.9218029311
 S 1 
   1      15.0674000000      1.0000000000
 S 1 
   1       3.9387600000      1.0000000000
 S 1 
   1       0.2999150000      1.0000000000
 P 2 
   1      28.3900000000      0.0816325586
   2       4.3676900000      0.9660360576
 P 1 
   1       0.8698170000      1.0000000000
 P 1 
   1       0.1889340000      1.0000000000
  end;

 # Basis set for element : O 
 NewGTO O 
 S 4 
   1  253789.0000000000      0.0001641076
   2   10151.6000000000      0.0074010921
   3     812.1250000000      0.1277711901
   4     122.6930000000      0.9223372164
 S 1 
   1      27.5608000000      1.0000000000
 S 1 
   1       7.3172600000      1.0000000000
 S 1 
   1       0.5792400000      1.0000000000
 P 2 
   1      53.4157000000      0.0793786106
   2       8.2177900000      0.9670506337
 P 1 
   1       1.6754400000      1.0000000000
 P 1 
   1       0.3506720000      1.0000000000
  end;

---------------------------------
AUXILIARY/J BASIS SET INFORMATION
---------------------------------
There are 3 groups of distinct atoms

 Group   1 Type C   : 12s5p4d2f1g contracted to 6s4p3d1f1g pattern {711111/2111/211/2/1}
 Group   2 Type H   : 5s2p1d contracted to 3s1p1d pattern {311/2/1}
 Group   3 Type O   : 12s5p4d2f1g contracted to 6s4p3d1f1g pattern {711111/2111/211/2/1}

Atom   0C    basis set group =>   1
Atom   1C    basis set group =>   1
Atom   2C    basis set group =>   1
Atom   3H    basis set group =>   2
Atom   4H    basis set group =>   2
Atom   5C    basis set group =>   1
Atom   6C    basis set group =>   1
Atom   7C    basis set group =>   1
Atom   8H    basis set group =>   2
Atom   9H    basis set group =>   2
Atom  10H    basis set group =>   2
Atom  11H    basis set group =>   2
Atom  12O    basis set group =>   3
Atom  13H    basis set group =>   2
Atom  14C    basis set group =>   1
Atom  15C    basis set group =>   1
Atom  16H    basis set group =>   2
Atom  17H    basis set group =>   2
Atom  18C    basis set group =>   1
Atom  19H    basis set group =>   2
Atom  20C    basis set group =>   1
Atom  21H    basis set group =>   2
Atom  22C    basis set group =>   1
Atom  23C    basis set group =>   1
Atom  24H    basis set group =>   2
Atom  25H    basis set group =>   2
Atom  26C    basis set group =>   1
Atom  27H    basis set group =>   2
Atom  28H    basis set group =>   2
Atom  29C    basis set group =>   1
Atom  30H    basis set group =>   2
Atom  31H    basis set group =>   2
Atom  32C    basis set group =>   1
Atom  33H    basis set group =>   2
Atom  34C    basis set group =>   1
Atom  35H    basis set group =>   2
Atom  36C    basis set group =>   1
Atom  37H    basis set group =>   2
Atom  38H    basis set group =>   2
Atom  39C    basis set group =>   1
Atom  40H    basis set group =>   2
Atom  41H    basis set group =>   2
Atom  42H    basis set group =>   2
Atom  43C    basis set group =>   1
Atom  44C    basis set group =>   1
Atom  45H    basis set group =>   2
Atom  46H    basis set group =>   2
Atom  47H    basis set group =>   2
Atom  48H    basis set group =>   2
Atom  49C    basis set group =>   1
Atom  50C    basis set group =>   1
Atom  51C    basis set group =>   1
Atom  52H    basis set group =>   2
Atom  53H    basis set group =>   2
Atom  54C    basis set group =>   1
Atom  55C    basis set group =>   1
Atom  56C    basis set group =>   1
Atom  57H    basis set group =>   2
Atom  58H    basis set group =>   2
Atom  59C    basis set group =>   1
Atom  60C    basis set group =>   1
Atom  61H    basis set group =>   2
Atom  62H    basis set group =>   2
Atom  63H    basis set group =>   2
Atom  64H    basis set group =>   2
Atom  65H    basis set group =>   2
Atom  66H    basis set group =>   2
Atom  67H    basis set group =>   2
Atom  68H    basis set group =>   2
Atom  69H    basis set group =>   2
Atom  70H    basis set group =>   2
Atom  71H    basis set group =>   2
Atom  72H    basis set group =>   2

-------------------------------------
AUXILIARY/J BASIS SET IN INPUT FORMAT
-------------------------------------

 # Auxiliary/J basis set for element : H 
 NewAuxJGTO H 
 S 3 
   1      15.6752927000      0.1007184237
   2       3.6063578000      0.3404257499
   3       1.2080016000      0.6491996172
 S 1 
   1       0.4726794000      1.0000000000
 S 1 
   1       0.2018100000      1.0000000000
 P 2 
   1       2.0281365000      0.5596620919
   2       0.5358730000      0.5596620919
 D 1 
   1       2.2165124000      1.0000000000
  end;

 # Auxiliary/J basis set for element : C 
 NewAuxJGTO C 
 S 7 
   1    1861.0916331000      0.0134602335
   2     642.9939764000      0.0299160374
   3     235.1105725000      0.1008649584
   4      90.7028894000      0.2370970548
   5      36.7794552000      0.3924037254
   6      15.6046273000      0.3195862154
   7       6.8907294000      0.0530104441
 S 1 
   1       3.1478850000     -1.0000000000
 S 1 
   1       1.4777287000      1.0000000000
 S 1 
   1       0.7076466000      1.0000000000
 S 1 
   1       0.3430122000      1.0000000000
 S 1 
   1       0.1669453000      1.0000000000
 P 2 
   1      13.5472892000     -0.6769313712
   2       5.4669419000     -0.3779500978
 P 1 
   1       2.1751721000      1.0000000000
 P 1 
   1       0.8582194000      1.0000000000
 P 1 
   1       0.3376720000      1.0000000000
 D 2 
   1       5.9287253000     -0.3533329857
   2       1.9809209000     -0.7456525731
 D 1 
   1       0.8055417000     -1.0000000000
 D 1 
   1       0.3531244000     -1.0000000000
 F 2 
   1       1.6755626000      0.6311076882
   2       0.5997536000      0.4968166032
 G 1 
   1       1.0024600000     -1.0000000000
  end;

 # Auxiliary/J basis set for element : O 
 NewAuxJGTO O 
 S 7 
   1    2876.8216605000      0.0168151159
   2    1004.7443032000      0.0340137548
   3     369.7579954000      0.1194951309
   4     142.9442404000      0.2664627624
   5      57.8366425000      0.4202764046
   6      24.3864983000      0.2765077335
   7      10.6622662000      0.0057008815
 S 1 
   1       4.8070437000     -1.0000000000
 S 1 
   1       2.2210770000      1.0000000000
 S 1 
   1       1.0447795000      1.0000000000
 S 1 
   1       0.4968425000      1.0000000000
 S 1 
   1       0.2371384000      1.0000000000
 P 2 
   1      64.2613382000     -0.2731534179
   2      16.3006076000     -0.8168011598
 P 1 
   1       4.3550542000      1.0000000000
 P 1 
   1       1.2019554000      1.0000000000
 P 1 
   1       0.3354196000      1.0000000000
 D 2 
   1       9.2146611000     -0.4661230638
   2       2.8435251000     -0.6600908911
 D 1 
   1       0.9955759000     -1.0000000000
 D 1 
   1       0.3649441000     -1.0000000000
 F 2 
   1       2.6420115000      0.5931563945
   2       0.7345613000      0.5931563945
 G 1 
   1       1.3931000000     -1.0000000000
  end;



           ************************************************************
           *        Program running with 4 parallel MPI-processes     *
           *              working on a common directory               *
           ************************************************************
------------------------------------------------------------------------------
                           ORCA GTO INTEGRAL CALCULATION
                           -- RI-GTO INTEGRALS CHOSEN --
------------------------------------------------------------------------------
------------------------------------------------------------------------------
                   ___                                                        
                  /   \      - P O W E R E D   B Y -                         
                 /     \                                                     
                 |  |  |   _    _      __       _____    __    __             
                 |  |  |  | |  | |    /  \     |  _  \  |  |  /  |          
                  \  \/   | |  | |   /    \    | | | |  |  | /  /          
                 / \  \   | |__| |  /  /\  \   | |_| |  |  |/  /          
                |  |  |   |  __  | /  /__\  \  |    /   |      \           
                |  |  |   | |  | | |   __   |  |    \   |  |\   \          
                \     /   | |  | | |  |  |  |  | |\  \  |  | \   \       
                 \___/    |_|  |_| |__|  |__|  |_| \__\ |__|  \__/        
                                                                              
                      - O R C A' S   B I G   F R I E N D -                    
                                      &                                       
                       - I N T E G R A L  F E E D E R -                       
                                                                              
 v1 FN, 2020, v2 2021                                                         
------------------------------------------------------------------------------


Reading SHARK input file inpJ.SHARKINP.tmp ... ok
----------------------
SHARK INTEGRAL PACKAGE
----------------------

Number of atoms                             ...     73
Number of basis functions                   ...    509
Number of shells                            ...    335
Maximum angular momentum                    ...      1
Integral batch strategy                     ... SHARK/LIBINT Hybrid
RI-J (if used) integral strategy            ... SPLIT-RIJ (Revised 2003 algorithm where possible)
Printlevel                                  ...      1
Contraction scheme used                     ... SEGMENTED contraction
Coulomb Range Separation                    ... NOT USED
Exchange Range Separation                   ... NOT USED
Finite Nucleus Model                        ... NOT USED
Auxiliary Coulomb fitting basis             ... AVAILABLE
   # of basis functions in Aux-J            ...   1905
   # of shells in Aux-J                     ...    655
   Maximum angular momentum in Aux-J        ...      4
Auxiliary J/K fitting basis                 ... NOT available
Auxiliary Correlation fitting basis         ... NOT available
Auxiliary 'external' fitting basis          ... NOT available
Integral threshold                          ...     3.000000e-11
Primitive cut-off                           ...     1.000000e-12
Primitive pair pre-selection threshold      ...     1.000000e-12

Calculating pre-screening integrals         ... done (  0.0 sec) Dimension = 335
Organizing shell pair data                  ... done (  0.1 sec)
Shell pair information
Total number of shell pairs                 ...     56280
Shell pairs after pre-screening             ...     22117
Total number of primitive shell pairs       ...    145865
Primitive shell pairs kept                  ...     37969
          la=0 lb=0:  11137 shell pairs
          la=1 lb=0:   9088 shell pairs
          la=1 lb=1:   1892 shell pairs

Calculating one electron integrals          ... done (  0.0 sec)
Calculating RI/J V-Matrix + Cholesky decomp.... done (  0.2 sec)
Calculating Nuclear repulsion               ... done (  0.0 sec) ENN=   2801.070387844825 Eh

SHARK setup successfully completed in   0.4 seconds

Maximum memory used throughout the entire GTOINT-calculation: 46.5 MB


           ************************************************************
           *        Program running with 4 parallel MPI-processes     *
           *              working on a common directory               *
           ************************************************************
-------------------------------------------------------------------------------
                                 ORCA SCF
-------------------------------------------------------------------------------

------------
SCF SETTINGS
------------
Hamiltonian:
 Density Functional     Method          .... DFT(GTOs)
 Exchange Functional    Exchange        .... PBE
   PBE kappa parameter   XKappa         ....  0.804000
   PBE mue parameter    XMuePBE         ....  0.219520
 Correlation Functional Correlation     .... PBE
   PBE beta parameter  CBetaPBE         ....  0.066725
 LDA part of GGA corr.  LDAOpt          .... PW91-LDA
 Gradients option       PostSCFGGA      .... off
 Hybrid DFT is turned on
   Fraction HF Exchange ScalHFX         ....  0.250000
   Scaling of DF-GGA-X  ScalDFX         ....  0.750000
   Scaling of DF-GGA-C  ScalDFC         ....  1.000000
   Scaling of DF-LDA-C  ScalLDAC        ....  1.000000
   Perturbative correction              ....  0.000000
   Density functional embedding theory  .... OFF
   NL short-range parameter             ....  6.900000
 RI-approximation to the Coulomb term is turned on
   Number of AuxJ basis functions       .... 1905
   RIJ-COSX (HFX calculated with COS-X)).... on


General Settings:
 Integral files         IntName         .... inpJ
 Hartree-Fock type      HFTyp           .... RHF
 Total Charge           Charge          ....    0
 Multiplicity           Mult            ....    1
 Number of Electrons    NEL             ....  220
 Basis Dimension        Dim             ....  509
 Nuclear Repulsion      ENuc            ....   2801.0703878448 Eh

Convergence Acceleration:
 DIIS                   CNVDIIS         .... on
   Start iteration      DIISMaxIt       ....    12
   Startup error        DIISStart       ....  0.200000
   # of expansion vecs  DIISMaxEq       ....     5
   Bias factor          DIISBfac        ....   1.050
   Max. coefficient     DIISMaxC        ....  10.000
 Trust-Rad. Augm. Hess. CNVTRAH         .... auto
   Auto Start mean grad. ratio tolernc. ....  1.125000
   Auto Start start iteration           ....    20
   Auto Start num. interpolation iter.  ....    10
   Max. Number of Micro iterations      ....    16
   Max. Number of Macro iterations      .... Maxiter - #DIIS iter
   Number of Davidson start vectors     ....     2
   Converg. threshold I  (grad. norm)   ....   1.000e-04
   Converg. threshold II (energy diff.) ....   1.000e-07
   Grad. Scal. Fac. for Micro threshold ....   0.100
   Minimum threshold for Micro iter.    ....   0.010
   NR start threshold (gradient norm)   ....   0.001
   Initial trust radius                 ....   0.400
   Minimum AH scaling param. (alpha)    ....   1.000
   Maximum AH scaling param. (alpha)    .... 1000.000
   Orbital update algorithm             .... Taylor
   White noise on init. David. guess    .... on
   Maximum white noise                  ....   0.010
   Quad. conv. algorithm                .... NR
 SOSCF                  CNVSOSCF        .... off
 Level Shifting         CNVShift        .... on
   Level shift para.    LevelShift      ....    0.2500
   Turn off err/grad.   ShiftErr        ....    0.0010
 Zerner damping         CNVZerner       .... off
 Static damping         CNVDamp         .... on
   Fraction old density DampFac         ....    0.7000
   Max. Damping (<1)    DampMax         ....    0.9800
   Min. Damping (>=0)   DampMin         ....    0.0000
   Turn off err/grad.   DampErr         ....    0.1000
 Fernandez-Rico         CNVRico         .... off

SCF Procedure:
 Maximum # iterations   MaxIter         ....   125
 SCF integral mode      SCFMode         .... Direct
   Integral package                     .... SHARK and LIBINT hybrid scheme
 Reset frequency        DirectResetFreq ....    20
 Integral Threshold     Thresh          ....  3.000e-11 Eh
 Primitive CutOff       TCut            ....  1.000e-12 Eh

Convergence Tolerance:
 Convergence Check Mode ConvCheckMode   .... Total+1el-Energy
 Convergence forced     ConvForced      .... 0
 Energy Change          TolE            ....  1.000e-07 Eh
 1-El. energy change                    ....  1.000e-04 Eh
 DIIS Error             TolErr          ....  1.000e-07


Diagonalization of the overlap matrix:
Smallest eigenvalue                        ... 7.573e-03
Time for diagonalization                   ...    0.043 sec
Threshold for overlap eigenvalues          ... 1.000e-08
Number of eigenvalues below threshold      ... 0
Time for construction of square roots      ...    0.032 sec
Total time needed                          ...    0.077 sec

Time for model grid setup =    1.100 sec

------------------------------
INITIAL GUESS: MODEL POTENTIAL
------------------------------
Loading Hartree-Fock densities                     ... done
Calculating cut-offs                               ... done
Initializing the effective Hamiltonian             ... done
Setting up the integral package (SHARK)            ... done
Starting the Coulomb interaction                   ... done (   0.4 sec)
Reading the grid                                   ... done
Mapping shells                                     ... done
Starting the XC term evaluation                    ... done (   0.2 sec)
  promolecular density results
     # of electrons  =    219.976241274
     EX              =   -164.432792300
     EC              =     -7.329685800
     EX+EC           =   -171.762478100
Transforming the Hamiltonian                       ... done (   0.0 sec)
Diagonalizing the Hamiltonian                      ... done (   0.0 sec)
Back transforming the eigenvectors                 ... done (   0.0 sec)
Now organizing SCF variables                       ... done
                      ------------------
                      INITIAL GUESS DONE (   1.8 sec)
                      ------------------
-------------------
DFT GRID GENERATION
-------------------

General Integration Accuracy     IntAcc      ... 4.388
Radial Grid Type                 RadialGrid  ... OptM3 with GC (2021)
Angular Grid (max. ang.)         AngularGrid ... 4 (Lebedev-302)
Angular grid pruning method      GridPruning ... 4 (adaptive)
Weight generation scheme         WeightScheme... Becke
Basis function cutoff            BFCut       ... 1.0000e-11
Integration weight cutoff        WCut        ... 1.0000e-14
Angular grids for H and He will be reduced by one unit
Partially contracted basis set               ... off
Rotationally invariant grid construction     ... off

Total number of grid points                  ...   309750
Total number of batches                      ...     4875
Average number of points per batch           ...       63
Average number of grid points per atom       ...     4243
Time for grid setup =    2.932 sec

--------------------
COSX GRID GENERATION
--------------------

GRIDX 1
-------
General Integration Accuracy     IntAcc      ... 3.816
Radial Grid Type                 RadialGrid  ... OptM3 with GC (2021)
Angular Grid (max. ang.)         AngularGrid ... 1 (Lebedev-50)
Angular grid pruning method      GridPruning ... 4 (adaptive)
Weight generation scheme         WeightScheme... Becke
Basis function cutoff            BFCut       ... 1.0000e-11
Integration weight cutoff        WCut        ... 1.0000e-14
Angular grids for H and He will be reduced by one unit
Partially contracted basis set               ... on
Rotationally invariant grid construction     ... off

Total number of grid points                  ...    39393
Total number of batches                      ...      659
Average number of points per batch           ...       59
Average number of grid points per atom       ...      540
UseSFitting                                  ... on

GRIDX 2
-------
General Integration Accuracy     IntAcc      ... 4.020
Radial Grid Type                 RadialGrid  ... OptM3 with GC (2021)
Angular Grid (max. ang.)         AngularGrid ... 2 (Lebedev-110)
Angular grid pruning method      GridPruning ... 4 (adaptive)
Weight generation scheme         WeightScheme... Becke
Basis function cutoff            BFCut       ... 1.0000e-11
Integration weight cutoff        WCut        ... 1.0000e-14
Angular grids for H and He will be reduced by one unit
Partially contracted basis set               ... on
Rotationally invariant grid construction     ... off

Total number of grid points                  ...    81308
Total number of batches                      ...     1305
Average number of points per batch           ...       62
Average number of grid points per atom       ...     1114
UseSFitting                                  ... on

GRIDX 3
-------
General Integration Accuracy     IntAcc      ... 4.338
Radial Grid Type                 RadialGrid  ... OptM3 with GC (2021)
Angular Grid (max. ang.)         AngularGrid ... 3 (Lebedev-194)
Angular grid pruning method      GridPruning ... 4 (adaptive)
Weight generation scheme         WeightScheme... Becke
Basis function cutoff            BFCut       ... 1.0000e-11
Integration weight cutoff        WCut        ... 1.0000e-14
Angular grids for H and He will be reduced by one unit
Partially contracted basis set               ... on
Rotationally invariant grid construction     ... off

Total number of grid points                  ...   176055
Total number of batches                      ...     2786
Average number of points per batch           ...       63
Average number of grid points per atom       ...     2412
UseSFitting                                  ... on

Time for X-Grid setup             =    3.558 sec


--------------------
CPCM SOLVATION MODEL
--------------------
CPCM parameters:
  Epsilon                                         ...       4.9000
  Refrac                                          ...       1.4500
  Rsolv                                           ...       1.3000
  Surface type                                    ... GAUSSIAN VDW
  Epsilon function type                           ...         CPCM
Radii:
 Radius for C  used is    3.8550 Bohr (=   2.0400 Ang.)
 Radius for H  used is    2.4944 Bohr (=   1.3200 Ang.)
 Radius for O  used is    3.4469 Bohr (=   1.8240 Ang.)
Calculating surface                               ...        done! (  0.0s)
GEPOL surface points                              ...         3580
GEPOL Volume                                      ...    3582.3999
GEPOL Surface-area                                ...    1761.5007
Calculating surface distance matrix               ...        done! (  0.1s)
Performing Cholesky decomposition & store         ...        done! (  0.5s)
Overall time for CPCM initialization              ...                 0.6s
--------------
SCF ITERATIONS
--------------
ITER       Energy         Delta-E        Max-DP      RMS-DP      [F,P]     Damp
               ***  Starting incremental Fock matrix formation  ***

  HOMO= 109 E= -3.974 eV LUMO=  7.702 eV gap=  11.676 eV
  0  -1165.0058082093   0.000000000000 0.09730468  0.00106759  0.1966708 0.7000

  HOMO= 109 E= -4.843 eV LUMO=  7.016 eV gap=  11.859 eV
  1  -1165.2244664682  -0.218658258864 0.06527604  0.00078500  0.0952451 0.7000
                               ***Turning on DIIS***

  HOMO= 109 E= -5.443 eV LUMO=  6.466 eV gap=  11.909 eV
  2  -1165.3251487691  -0.100682300953 0.10332565  0.00138786  0.0375597 0.0000

  HOMO= 109 E= -6.002 eV LUMO=  5.935 eV gap=  11.938 eV
  3  -1165.4692885943  -0.144139825173 0.05144420  0.00057416  0.0460686 0.0000

  HOMO= 109 E= -6.070 eV LUMO=  5.866 eV gap=  11.936 eV
  4  -1165.5047954583  -0.035506863977 0.01163256  0.00013300  0.0058259 0.0000

  HOMO= 109 E= -6.019 eV LUMO=  5.924 eV gap=  11.943 eV
  5  -1165.5056356868  -0.000840228570 0.00251373  0.00003775  0.0051380 0.0000

  HOMO= 109 E= -6.006 eV LUMO=  5.938 eV gap=  11.944 eV
  6  -1165.5057140344  -0.000078347525 0.00117916  0.00001163  0.0010685 0.0000

  HOMO= 109 E= -6.008 eV LUMO= -0.867 eV gap=   5.141 eV
  7  -1165.5057191951  -0.000005160769 0.00050823  0.00000602  0.0002312 0.0000
               *** Restarting incremental Fock matrix formation ***
                                   *** Resetting DIIS ***

  HOMO= 109 E= -6.007 eV LUMO= -0.865 eV gap=   5.142 eV
  8  -1165.5057167290   0.000002466144 0.00034959  0.00000285  0.0001141 0.0000

  HOMO= 109 E= -6.007 eV LUMO= -0.865 eV gap=   5.142 eV
  9  -1165.5057167662  -0.000000037193 0.00013792  0.00000132  0.0001548 0.0000

  HOMO= 109 E= -6.007 eV LUMO= -0.865 eV gap=   5.142 eV
 10  -1165.5057168978  -0.000000131622 0.00006675  0.00000041  0.0000353 0.0000

  HOMO= 109 E= -6.007 eV LUMO= -0.865 eV gap=   5.142 eV
 11  -1165.5057169328  -0.000000035023 0.00002679  0.00000018  0.0000198 0.0000

  HOMO= 109 E= -6.007 eV LUMO= -0.865 eV gap=   5.142 eV
 12  -1165.5057169352  -0.000000002347 0.00000790  0.00000005  0.0000034 0.0000
                 **** Energy Check signals convergence ****

               *****************************************************
               *                     SUCCESS                       *
               *           SCF CONVERGED AFTER  13 CYCLES          *
               *****************************************************

Old exchange energy                            =    -42.067337201 Eh
New exchange energy                            =    -42.067310322 Eh
Exchange energy change after final integration =      0.000026879 Eh
Total energy after final integration           =  -1165.505690070 Eh
Final COS-X integration done in                =    13.874 sec

----------------
TOTAL SCF ENERGY
----------------

Total Energy       :        -1165.50569007 Eh          -31715.02219 eV

Components:
Nuclear Repulsion  :         2801.07038784 Eh           76221.00025 eV
Electronic Energy  :        -3966.57607792 Eh         -107936.02244 eV
One Electron Energy:        -7143.85708796 Eh         -194394.23418 eV
Two Electron Energy:         3177.28101004 Eh           86458.21173 eV
Max COSX asymmetry :            0.00000298 Eh               0.00008 eV
CPCM Dielectric    :           -0.01389885 Eh              -0.37821 eV

Virial components:
Potential Energy   :        -2322.39529186 Eh          -63195.58869 eV
Kinetic Energy     :         1156.88960179 Eh           31480.56651 eV
Virial Ratio       :            2.00744763


DFT components:
N(Alpha)           :      110.000229966135 electrons
N(Beta)            :      110.000229966135 electrons
N(Total)           :      220.000459932271 electrons
E(X)               :     -125.745495490782 Eh       
E(C)               :       -7.328647264193 Eh       
E(XC)              :     -133.074142754975 Eh       
DFET-embed. en.    :        0.000000000000 Eh       
CPCM Solvation Model Properties:
Surface-charge          :           -0.03425552
Charge-correction       :           -0.00008684 Eh              -0.00236 eV
Free-energy (cav+disp)  :  This term is not implemented in the current solvation scheme

---------------
SCF CONVERGENCE
---------------

  Last Energy change         ...   -1.3946e-08  Tolerance :   1.0000e-07
  Last MAX-Density change    ...    0.0000e+00  Tolerance :   1.0000e-05
  Last RMS-Density change    ...    0.0000e+00  Tolerance :   1.0000e-06
  Last DIIS Error            ...    2.9533e-06  Tolerance :   1.0000e-07

             **** THE GBW FILE WAS UPDATED (inpJ.gbw) ****
             **** DENSITY inpJ.scfp WAS UPDATED ****
             **** ENERGY FILE WAS UPDATED (inpJ.en.tmp) ****
             **** THE GBW FILE WAS UPDATED (inpJ.gbw) ****
             **** DENSITY inpJ.scfp WAS UPDATED ****
----------------
ORBITAL ENERGIES
----------------

  NO   OCC          E(Eh)            E(eV) 
   0   2.0000     -19.212564      -522.8004 
   1   2.0000     -10.300455      -280.2896 
   2   2.0000     -10.270477      -279.4739 
   3   2.0000     -10.268253      -279.4134 
   4   2.0000     -10.263774      -279.2915 
   5   2.0000     -10.257566      -279.1226 
   6   2.0000     -10.257401      -279.1181 
   7   2.0000     -10.252481      -278.9842 
   8   2.0000     -10.251913      -278.9687 
   9   2.0000     -10.248899      -278.8867 
  10   2.0000     -10.248202      -278.8677 
  11   2.0000     -10.247535      -278.8496 
  12   2.0000     -10.246946      -278.8336 
  13   2.0000     -10.246649      -278.8255 
  14   2.0000     -10.244767      -278.7743 
  15   2.0000     -10.243186      -278.7313 
  16   2.0000     -10.242794      -278.7206 
  17   2.0000     -10.241830      -278.6944 
  18   2.0000     -10.241476      -278.6847 
  19   2.0000     -10.240842      -278.6675 
  20   2.0000     -10.240118      -278.6478 
  21   2.0000     -10.235970      -278.5349 
  22   2.0000     -10.235506      -278.5223 
  23   2.0000     -10.234180      -278.4862 
  24   2.0000     -10.227416      -278.3021 
  25   2.0000     -10.224196      -278.2145 
  26   2.0000     -10.223178      -278.1868 
  27   2.0000     -10.222876      -278.1786 
  28   2.0000     -10.221256      -278.1345 
  29   2.0000      -1.043311       -28.3899 
  30   2.0000      -0.901959       -24.5436 
  31   2.0000      -0.882140       -24.0043 
  32   2.0000      -0.858595       -23.3635 
  33   2.0000      -0.845705       -23.0128 
  34   2.0000      -0.822044       -22.3690 
  35   2.0000      -0.814525       -22.1643 
  36   2.0000      -0.795831       -21.6557 
  37   2.0000      -0.794993       -21.6329 
  38   2.0000      -0.775775       -21.1099 
  39   2.0000      -0.759130       -20.6570 
  40   2.0000      -0.743137       -20.2218 
  41   2.0000      -0.734795       -19.9948 
  42   2.0000      -0.715673       -19.4745 
  43   2.0000      -0.703315       -19.1382 
  44   2.0000      -0.702939       -19.1280 
  45   2.0000      -0.696367       -18.9491 
  46   2.0000      -0.671055       -18.2603 
  47   2.0000      -0.659795       -17.9539 
  48   2.0000      -0.636474       -17.3193 
  49   2.0000      -0.622533       -16.9400 
  50   2.0000      -0.614096       -16.7104 
  51   2.0000      -0.607921       -16.5424 
  52   2.0000      -0.597856       -16.2685 
  53   2.0000      -0.585129       -15.9222 
  54   2.0000      -0.557560       -15.1720 
  55   2.0000      -0.541676       -14.7397 
  56   2.0000      -0.538161       -14.6441 
  57   2.0000      -0.529524       -14.4091 
  58   2.0000      -0.515352       -14.0234 
  59   2.0000      -0.509299       -13.8587 
  60   2.0000      -0.502797       -13.6818 
  61   2.0000      -0.492783       -13.4093 
  62   2.0000      -0.481262       -13.0958 
  63   2.0000      -0.478346       -13.0165 
  64   2.0000      -0.472025       -12.8444 
  65   2.0000      -0.467641       -12.7252 
  66   2.0000      -0.465893       -12.6776 
  67   2.0000      -0.461409       -12.5556 
  68   2.0000      -0.459334       -12.4991 
  69   2.0000      -0.451847       -12.2954 
  70   2.0000      -0.448950       -12.2166 
  71   2.0000      -0.442386       -12.0379 
  72   2.0000      -0.436199       -11.8696 
  73   2.0000      -0.432757       -11.7759 
  74   2.0000      -0.431941       -11.7537 
  75   2.0000      -0.427418       -11.6306 
  76   2.0000      -0.419371       -11.4117 
  77   2.0000      -0.413322       -11.2471 
  78   2.0000      -0.412827       -11.2336 
  79   2.0000      -0.402929       -10.9643 
  80   2.0000      -0.400116       -10.8877 
  81   2.0000      -0.398596       -10.8464 
  82   2.0000      -0.395752       -10.7690 
  83   2.0000      -0.389589       -10.6013 
  84   2.0000      -0.382352       -10.4043 
  85   2.0000      -0.380572       -10.3559 
  86   2.0000      -0.376706       -10.2507 
  87   2.0000      -0.374335       -10.1862 
  88   2.0000      -0.370491       -10.0816 
  89   2.0000      -0.365662        -9.9502 
  90   2.0000      -0.361721        -9.8429 
  91   2.0000      -0.360247        -9.8028 
  92   2.0000      -0.355258        -9.6671 
  93   2.0000      -0.345417        -9.3993 
  94   2.0000      -0.342079        -9.3085 
  95   2.0000      -0.339707        -9.2439 
  96   2.0000      -0.338379        -9.2078 
  97   2.0000      -0.334967        -9.1149 
  98   2.0000      -0.331922        -9.0321 
  99   2.0000      -0.328125        -8.9287 
 100   2.0000      -0.325831        -8.8663 
 101   2.0000      -0.322089        -8.7645 
 102   2.0000      -0.319202        -8.6859 
 103   2.0000      -0.313331        -8.5262 
 104   2.0000      -0.311060        -8.4644 
 105   2.0000      -0.300827        -8.1859 
 106   2.0000      -0.276842        -7.5333 
 107   2.0000      -0.275188        -7.4882 
 108   2.0000      -0.254055        -6.9132 
 109   2.0000      -0.220765        -6.0073 
 110   0.0000      -0.031800        -0.8653 
 111   0.0000       0.019435         0.5289 
 112   0.0000       0.030800         0.8381 
 113   0.0000       0.081708         2.2234 
 114   0.0000       0.090910         2.4738 
 115   0.0000       0.096224         2.6184 
 116   0.0000       0.102326         2.7844 
 117   0.0000       0.104598         2.8463 
 118   0.0000       0.108964         2.9651 
 119   0.0000       0.110692         3.0121 
 120   0.0000       0.117306         3.1921 
 121   0.0000       0.122793         3.3414 
 122   0.0000       0.125929         3.4267 
 123   0.0000       0.129437         3.5222 
 124   0.0000       0.135305         3.6818 
 125   0.0000       0.136118         3.7039 
 126   0.0000       0.139737         3.8024 
 127   0.0000       0.141697         3.8558 
 128   0.0000       0.146881         3.9968 
 129   0.0000       0.148764         4.0481 
 130   0.0000       0.151262         4.1161 
 131   0.0000       0.156673         4.2633 
 132   0.0000       0.158251         4.3062 
 133   0.0000       0.162056         4.4098 
 134   0.0000       0.166257         4.5241 
 135   0.0000       0.169037         4.5997 
 136   0.0000       0.174350         4.7443 
 137   0.0000       0.175414         4.7733 
 138   0.0000       0.177401         4.8273 
 139   0.0000       0.178957         4.8697 
 140   0.0000       0.182169         4.9571 
 141   0.0000       0.185513         5.0481 
 142   0.0000       0.187718         5.1081 
 143   0.0000       0.193291         5.2597 
 144   0.0000       0.197550         5.3756 
 145   0.0000       0.199712         5.4344 
 146   0.0000       0.204034         5.5520 
 147   0.0000       0.204443         5.5632 
 148   0.0000       0.205205         5.5839 
 149   0.0000       0.214636         5.8405 
 150   0.0000       0.217949         5.9307 
 151   0.0000       0.221778         6.0349 
 152   0.0000       0.224651         6.1131 
 153   0.0000       0.225645         6.1401 
 154   0.0000       0.230793         6.2802 
 155   0.0000       0.233369         6.3503 
 156   0.0000       0.243959         6.6385 
 157   0.0000       0.245717         6.6863 
 158   0.0000       0.249467         6.7884 
 159   0.0000       0.252425         6.8688 
 160   0.0000       0.256865         6.9897 
 161   0.0000       0.259853         7.0710 
 162   0.0000       0.261810         7.1242 
 163   0.0000       0.264542         7.1986 
 164   0.0000       0.268269         7.3000 
 165   0.0000       0.275994         7.5102 
 166   0.0000       0.278332         7.5738 
 167   0.0000       0.282825         7.6961 
 168   0.0000       0.292298         7.9538 
 169   0.0000       0.293924         7.9981 
 170   0.0000       0.297798         8.1035 
 171   0.0000       0.304465         8.2849 
 172   0.0000       0.307145         8.3579 
 173   0.0000       0.308914         8.4060 
 174   0.0000       0.317047         8.6273 
 175   0.0000       0.319601         8.6968 
 176   0.0000       0.328959         8.9514 
 177   0.0000       0.342617         9.3231 
 178   0.0000       0.350501         9.5376 
 179   0.0000       0.357921         9.7395 
 180   0.0000       0.365356         9.9418 
 181   0.0000       0.379299        10.3213 
 182   0.0000       0.385360        10.4862 
 183   0.0000       0.412903        11.2357 
 184   0.0000       0.423354        11.5200 
 185   0.0000       0.463307        12.6072 
 186   0.0000       0.486533        13.2392 
 187   0.0000       0.493462        13.4278 
 188   0.0000       0.514332        13.9957 
 189   0.0000       0.516948        14.0669 
 190   0.0000       0.521272        14.1845 
 191   0.0000       0.534275        14.5384 
 192   0.0000       0.536987        14.6122 
 193   0.0000       0.558887        15.2081 
 194   0.0000       0.569912        15.5081 
 195   0.0000       0.572204        15.5705 
 196   0.0000       0.578132        15.7318 
 197   0.0000       0.582642        15.8545 
 198   0.0000       0.589906        16.0522 
 199   0.0000       0.591363        16.0918 
 200   0.0000       0.611719        16.6457 
 201   0.0000       0.617088        16.7918 
 202   0.0000       0.628158        17.0930 
 203   0.0000       0.630174        17.1479 
 204   0.0000       0.646396        17.5893 
 205   0.0000       0.656972        17.8771 
 206   0.0000       0.660483        17.9727 
 207   0.0000       0.668090        18.1797 
 208   0.0000       0.670225        18.2377 
 209   0.0000       0.677172        18.4268 
 210   0.0000       0.681685        18.5496 
 211   0.0000       0.685334        18.6489 
 212   0.0000       0.688050        18.7228 
 213   0.0000       0.701518        19.0893 
 214   0.0000       0.708335        19.2748 
 215   0.0000       0.709792        19.3144 
 216   0.0000       0.716122        19.4867 
 217   0.0000       0.719826        19.5875 
 218   0.0000       0.720684        19.6108 
 219   0.0000       0.729060        19.8387 
 220   0.0000       0.730778        19.8855 
 221   0.0000       0.733098        19.9486 
 222   0.0000       0.734860        19.9965 
 223   0.0000       0.745804        20.2944 
 224   0.0000       0.747815        20.3491 
 225   0.0000       0.751530        20.4502 
 226   0.0000       0.758190        20.6314 
 227   0.0000       0.760423        20.6922 
 228   0.0000       0.762478        20.7481 
 229   0.0000       0.764386        20.8000 
 230   0.0000       0.770552        20.9678 
 231   0.0000       0.777843        21.1662 
 232   0.0000       0.779276        21.2052 
 233   0.0000       0.781940        21.2777 
 234   0.0000       0.789175        21.4745 
 235   0.0000       0.793336        21.5878 
 236   0.0000       0.798328        21.7236 
 237   0.0000       0.809595        22.0302 
 238   0.0000       0.813788        22.1443 
 239   0.0000       0.815603        22.1937 
 240   0.0000       0.820477        22.3263 
 241   0.0000       0.831488        22.6259 
 242   0.0000       0.837989        22.8029 
 243   0.0000       0.848988        23.1021 
 244   0.0000       0.854369        23.2486 
 245   0.0000       0.856272        23.3003 
 246   0.0000       0.859278        23.3821 
 247   0.0000       0.861669        23.4472 
 248   0.0000       0.864160        23.5150 
 249   0.0000       0.866977        23.5916 
 250   0.0000       0.872247        23.7351 
 251   0.0000       0.873716        23.7750 
 252   0.0000       0.875648        23.8276 
 253   0.0000       0.877246        23.8711 
 254   0.0000       0.880878        23.9699 
 255   0.0000       0.882859        24.0238 
 256   0.0000       0.889605        24.2074 
 257   0.0000       0.889851        24.2141 
 258   0.0000       0.892462        24.2851 
 259   0.0000       0.899035        24.4640 
 260   0.0000       0.900617        24.5070 
 261   0.0000       0.902425        24.5562 
 262   0.0000       0.904393        24.6098 
 263   0.0000       0.907988        24.7076 
 264   0.0000       0.911264        24.7967 
 265   0.0000       0.917751        24.9733 
 266   0.0000       0.923523        25.1303 
 267   0.0000       0.924750        25.1637 
 268   0.0000       0.930307        25.3150 
 269   0.0000       0.933237        25.3947 
 270   0.0000       0.938911        25.5491 
 271   0.0000       0.943960        25.6865 
 272   0.0000       0.947500        25.7828 
 273   0.0000       0.951349        25.8875 
 274   0.0000       0.959639        26.1131 
 275   0.0000       0.963823        26.2270 
 276   0.0000       0.965449        26.2712 
 277   0.0000       0.969081        26.3700 
 278   0.0000       0.977838        26.6083 
 279   0.0000       0.983668        26.7670 
 280   0.0000       0.993309        27.0293 
 281   0.0000       0.997139        27.1335 
 282   0.0000       1.004441        27.3322 
 283   0.0000       1.014486        27.6056 
 284   0.0000       1.024816        27.8867 
 285   0.0000       1.029711        28.0199 
 286   0.0000       1.038158        28.2497 
 287   0.0000       1.045323        28.4447 
 288   0.0000       1.059576        28.8325 
 289   0.0000       1.067915        29.0594 
 290   0.0000       1.070467        29.1289 
 291   0.0000       1.076541        29.2942 
 292   0.0000       1.094952        29.7952 
 293   0.0000       1.096457        29.8361 
 294   0.0000       1.101083        29.9620 
 295   0.0000       1.112115        30.2622 
 296   0.0000       1.120818        30.4990 
 297   0.0000       1.134854        30.8809 
 298   0.0000       1.145149        31.1611 
 299   0.0000       1.151892        31.3446 
 300   0.0000       1.165683        31.7198 
 301   0.0000       1.177978        32.0544 
 302   0.0000       1.194159        32.4947 
 303   0.0000       1.209466        32.9112 
 304   0.0000       1.217688        33.1350 
 305   0.0000       1.233981        33.5783 
 306   0.0000       1.240698        33.7611 
 307   0.0000       1.257481        34.2178 
 308   0.0000       1.281560        34.8730 
 309   0.0000       1.299091        35.3501 
 310   0.0000       1.330424        36.2027 
 311   0.0000       1.338910        36.4336 
 312   0.0000       1.348648        36.6986 
 313   0.0000       1.367525        37.2122 
 314   0.0000       1.410413        38.3793 
 315   0.0000       1.525645        41.5149 
 316   0.0000       1.528509        41.5929 
 317   0.0000       1.563173        42.5361 
 318   0.0000       1.591695        43.3122 
 319   0.0000       1.675002        45.5791 
 320   0.0000       6.202174       168.7697 
 321   0.0000       6.232243       169.5880 
 322   0.0000       6.248135       170.0204 
 323   0.0000       6.273193       170.7023 
 324   0.0000       6.281924       170.9399 
 325   0.0000       6.286822       171.0731 
 326   0.0000       6.302466       171.4988 
 327   0.0000       6.303854       171.5366 
 328   0.0000       6.317461       171.9069 
 329   0.0000       6.341856       172.5707 
 330   0.0000       6.346547       172.6983 
 331   0.0000       6.351071       172.8214 
 332   0.0000       6.363321       173.1548 
 333   0.0000       6.371524       173.3780 
 334   0.0000       6.387238       173.8056 
 335   0.0000       6.394904       174.0142 
 336   0.0000       6.407427       174.3549 
 337   0.0000       6.412727       174.4992 
 338   0.0000       6.419761       174.6906 
 339   0.0000       6.420795       174.7187 
 340   0.0000       6.434093       175.0806 
 341   0.0000       6.442509       175.3096 
 342   0.0000       6.447139       175.4356 
 343   0.0000       6.454334       175.6314 
 344   0.0000       6.473983       176.1660 
 345   0.0000       6.479008       176.3028 
 346   0.0000       6.485973       176.4923 
 347   0.0000       6.504571       176.9984 
 348   0.0000       6.507462       177.0771 
 349   0.0000       6.516362       177.3192 
 350   0.0000       6.521179       177.4503 
 351   0.0000       6.526119       177.5847 
 352   0.0000       6.542478       178.0299 
 353   0.0000       6.547515       178.1669 
 354   0.0000       6.549882       178.2314 
 355   0.0000       6.558889       178.4765 
 356   0.0000       6.563465       178.6010 
 357   0.0000       6.568971       178.7508 
 358   0.0000       6.575706       178.9341 
 359   0.0000       6.579979       179.0503 
 360   0.0000       6.582132       179.1089 
 361   0.0000       6.586174       179.2189 
 362   0.0000       6.587771       179.2624 
 363   0.0000       6.597005       179.5136 
 364   0.0000       6.599444       179.5800 
 365   0.0000       6.609323       179.8488 
 366   0.0000       6.611291       179.9024 
 367   0.0000       6.613745       179.9692 
 368   0.0000       6.615311       180.0118 
 369   0.0000       6.617057       180.0593 
 370   0.0000       6.626493       180.3160 
 371   0.0000       6.628295       180.3651 
 372   0.0000       6.629536       180.3988 
 373   0.0000       6.633996       180.5202 
 374   0.0000       6.634501       180.5340 
[...]
     69 H        0.000      0.000      0.000      0.000      0.000      0.000
     70 H        0.000      0.000      0.000     -0.001      0.001      0.019
     71 H        0.000      0.000      0.000      0.000      0.001      0.011
     72 H        0.000      0.000      0.000      0.000      0.002      0.034
                 25 H       27 H       28 H       30 H       31 H       33 H  
      3 H        0.074     -0.003      0.003      0.000      0.000      0.091
      4 H        2.258     -0.111      0.073      0.000      0.000      2.539
      8 H        0.115      0.000      0.000      0.000      0.000      0.107
      9 H       -0.257      0.015      0.000      0.000      0.000     -0.307
     10 H        0.000      0.000      0.000      0.000      0.000      0.000
     11 H        0.000      0.000      0.000      0.000      0.000      0.000
     13 H       -0.037      0.000      0.000      0.000      0.000      0.000
     16 H       -0.258      0.014     -0.005     -0.032     -0.002     -0.304
     17 H       -0.243      0.013      0.000      0.000      0.000     -0.302
     19 H        0.927     -0.047      0.081      0.065      0.005      0.973
     21 H       -2.790      0.193      0.662     -0.232     -0.028     -2.364
     24 H      -13.285      4.283      2.389      0.644     -0.494     -0.129
     25 H        0.000     12.978      5.143     -0.630     -0.357     -2.103
     27 H       12.978      0.000    -13.582      3.995     13.008      0.060
     28 H        5.143    -13.582      0.000      2.640      4.121      0.289
     30 H       -0.630      3.995      2.640      0.000    -13.037      0.036
     31 H       -0.357     13.008      4.121    -13.037      0.000     -0.322
     33 H       -2.103      0.060      0.289      0.036     -0.322      0.000
     35 H       -0.026      0.001     -0.001      0.000      0.000     -0.034
     37 H        0.276      0.004     -0.035      0.511     -0.036      6.529
     38 H        0.162      0.002     -0.028     -0.013      0.127     12.240
     40 H       -0.013      0.019      0.146     -0.003     -0.033     -0.248
     41 H        0.008      0.022     -0.025      0.014      0.078     -0.439
     42 H       -0.018      0.014     -0.017     -0.256     -0.370     -0.209
     45 H       -0.060     -0.119     -0.143     -0.161      1.824     -0.476
     46 H       -0.016     -0.223      0.003     -0.208     -0.484     -0.210
     47 H        0.014      0.051      0.065     -0.339      0.015      0.881
     48 H       -0.016      0.028      0.024      0.039      0.007     -0.016
     52 H        0.001      0.000      0.003     -0.013     -0.000      0.004
     53 H       -0.001     -0.000     -0.000     -0.002     -0.003     -0.007
     57 H        0.000      0.000      0.000     -0.001      0.004      0.007
     58 H        0.000      0.000      0.000      0.000      0.000      0.000
     61 H        0.000      0.000      0.000     -0.000     -0.000     -0.000
     62 H        0.000      0.000      0.000      0.000      0.001      0.000
     63 H        0.000      0.000      0.000      0.000     -0.000     -0.000
     64 H        0.000      0.000      0.000     -0.000      0.000      0.000
     65 H        0.000      0.000      0.000     -0.000     -0.000     -0.000
     66 H        0.000      0.000      0.000      0.000      0.000     -0.000
     67 H        0.000      0.000      0.000      0.000      0.000      0.000
     68 H        0.000      0.000      0.000      0.000      0.000      0.000
     69 H        0.000      0.000      0.000     -0.000      0.000      0.000
     70 H        0.004     -0.007     -0.008     -0.469     -0.094      0.004
     71 H       -0.000     -0.003     -0.004      0.059      0.006     -0.001
     72 H        0.001     -0.009     -0.011      0.078     -0.047      0.005
                 35 H       37 H       38 H       40 H       41 H       42 H  
      3 H       -0.264     -0.001     -0.001      0.000      0.000      0.000
      4 H       -0.642     -0.045     -0.014      0.000      0.000      0.000
      8 H       -0.037     -0.002     -0.002      0.000     -0.000      0.000
      9 H       -0.164      0.006      0.001      0.001      0.001      0.000
     10 H       -0.411     -0.000     -0.000      0.000      0.000      0.000
     11 H       -0.143     -0.002     -0.000      0.000      0.000      0.000
     13 H       12.567      0.000      0.000      0.000      0.000      0.000
     16 H       -0.003      0.005      0.003      0.001      0.001     -0.001
     17 H       -0.002      0.005      0.003     -0.000      0.001      0.000
     19 H        0.046     -0.021      0.078      0.013     -0.003      0.004
     21 H       -0.015      0.063     -0.577     -0.010      0.061     -0.024
     24 H       -0.001     -0.057     -0.080     -0.019      0.064     -0.024
     25 H       -0.026      0.276      0.162     -0.013      0.008     -0.018
     27 H        0.001      0.004      0.002      0.019      0.022      0.014
     28 H       -0.001     -0.035     -0.028      0.146     -0.025     -0.017
     30 H        0.000      0.511     -0.013     -0.003      0.014     -0.256
     31 H        0.000     -0.036      0.127     -0.033      0.078     -0.370
     33 H       -0.034      6.529     12.240     -0.248     -0.439     -0.209
     35 H        0.000      0.000     -0.000      0.000      0.000      0.000
     37 H        0.000      0.000    -12.304      9.528      2.619     -0.258
     38 H       -0.000    -12.304      0.000      6.586     11.581     -0.488
     40 H        0.000      9.528      6.586      0.000    -13.239      9.235
     41 H        0.000      2.619     11.581    -13.239      0.000      8.730
     42 H        0.000     -0.258     -0.488      9.235      8.730      0.000
     45 H       -0.000      0.068     -0.060     -0.110     -0.064     -0.093
     46 H        0.000      0.059      0.034     -0.085      0.007      1.128
     47 H        0.000     -0.175      0.013      0.054      0.039     -0.414
     48 H        0.000      0.116     -0.006     -0.190     -0.425     10.573
     52 H        0.000     -0.016     -0.013      0.204     -0.233     -0.174
     53 H        0.000     -0.004     -0.007     -0.009      0.111      0.126
     57 H        0.000      0.000      0.000      0.046     -0.002     -0.121
     58 H        0.000      0.001      0.000     -0.000     -0.002      0.003
     61 H        0.000      0.000     -0.000     -0.003      0.001      0.004
     62 H        0.000      0.000      0.000      0.006      0.002     -0.021
     63 H        0.000      0.000      0.000      0.001     -0.000      0.001
     64 H        0.000     -0.001     -0.002     -0.009      0.003     -0.000
     65 H        0.000     -0.001     -0.002     -0.101      0.000     -0.001
     66 H        0.000     -0.000      0.000     -0.015     -0.001     -0.000
     67 H        0.000      0.000     -0.000     -0.001      0.000     -0.001
     68 H        0.000     -0.000     -0.000      0.000      0.000      0.000
     69 H        0.000     -0.000     -0.000     -0.002      0.001     -0.001
     70 H        0.000     -0.005     -0.000      0.081      0.031     -0.201
     71 H        0.000     -0.021      0.037      0.021     -0.045     -0.350
     72 H        0.000      0.066      0.015     -0.053      0.003     -0.461
                 45 H       46 H       47 H       48 H       52 H       53 H  
      3 H        0.001     -0.000     -0.001      0.000      0.000      0.000
      4 H        0.027     -0.018     -0.019      0.000      0.000      0.000
      8 H        0.001     -0.001      0.000      0.000      0.000      0.000
      9 H       -0.003      0.003      0.000      0.000      0.000      0.000
     10 H        0.000     -0.000      0.000      0.000      0.000      0.000
     11 H        0.000      0.000      0.000      0.000      0.000      0.000
     13 H        0.000      0.000      0.000      0.000      0.000      0.000
     16 H       -0.003     -0.000      0.002     -0.002      0.000      0.000
     17 H       -0.004     -0.000      0.001     -0.002      0.000      0.000
     19 H        0.010     -0.011     -0.009      0.006      0.000      0.000
     21 H       -0.018      0.044      0.012     -0.016      0.001      0.000
     24 H       -0.023     -0.023     -0.015      0.006      0.000      0.000
     25 H       -0.060     -0.016      0.014     -0.016      0.001     -0.001
     27 H       -0.119     -0.223      0.051      0.028      0.000     -0.000
     28 H       -0.143      0.003      0.065      0.024      0.003     -0.000
     30 H       -0.161     -0.208     -0.339      0.039     -0.013     -0.002
     31 H        1.824     -0.484      0.015      0.007     -0.000     -0.003
     33 H       -0.476     -0.210      0.881     -0.016      0.004     -0.007
     35 H       -0.000      0.000      0.000      0.000      0.000      0.000
     37 H        0.068      0.059     -0.175      0.116     -0.016     -0.004
     38 H       -0.060      0.034      0.013     -0.006     -0.013     -0.007
     40 H       -0.110     -0.085      0.054     -0.190      0.204     -0.009
     41 H       -0.064      0.007      0.039     -0.425     -0.233      0.111
     42 H       -0.093      1.128     -0.414     10.573     -0.174      0.126
     45 H        0.000    -13.665    -13.071     -0.215      0.006     -0.016
     46 H      -13.665      0.000    -13.067     -0.182      0.024     -0.042
     47 H      -13.071    -13.067      0.000     -0.109      0.005     -0.010
     48 H       -0.215     -0.182     -0.109      0.000      4.736     -2.480
     52 H        0.006      0.024      0.005      4.736      0.000     18.144
     53 H       -0.016     -0.042     -0.010     -2.480     18.144      0.000
     57 H        0.026      0.000      0.022      3.634     -2.785      4.489
     58 H        0.000      0.000      0.000     -0.072      0.132      0.908
     61 H       -0.001      0.000     -0.001     -0.127      0.166     -0.239
     62 H        0.000      0.000      0.000      0.173     -0.290      0.167
     63 H       -0.000      0.000     -0.000     -0.045      0.036     -0.221
     64 H        0.000      0.000      0.000      0.005     -0.093      0.028
     65 H       -0.000      0.000      0.000      0.015     -0.408      0.066
     66 H       -0.000      0.000      0.000     -0.011      0.112      0.282
     67 H        0.000      0.000      0.000      0.002     -0.079      0.019
     68 H       -0.000      0.000      0.000     -0.002      0.084      0.154
     69 H        0.000      0.000     -0.000      0.011     -0.446      0.028
     70 H       -0.020     -0.062     -0.255      5.108      0.582     -0.283
     71 H        0.029     -0.032     -0.044     12.522     -0.523     -0.214
     72 H       -0.011     -0.031     -0.021      2.019     -0.432     -0.381
                 57 H       58 H       61 H       62 H       63 H       64 H  
      3 H        0.000      0.000      0.000      0.000      0.000      0.000
      4 H        0.000      0.000      0.000      0.000      0.000      0.000
      8 H        0.000      0.000      0.000      0.000      0.000      0.000
      9 H        0.000      0.000      0.000      0.000      0.000      0.000
     10 H        0.000      0.000      0.000      0.000      0.000      0.000
     11 H        0.000      0.000      0.000      0.000      0.000      0.000
     13 H        0.000      0.000      0.000      0.000      0.000      0.000
     16 H        0.000      0.000      0.000      0.000      0.000      0.000
     17 H        0.000      0.000      0.000      0.000      0.000      0.000
     19 H        0.000      0.000      0.000      0.000      0.000      0.000
     21 H        0.000      0.000      0.000      0.000      0.000      0.000
     24 H        0.000      0.000      0.000      0.000      0.000      0.000
     25 H        0.000      0.000      0.000      0.000      0.000      0.000
     27 H        0.000      0.000      0.000      0.000      0.000      0.000
     28 H        0.000      0.000      0.000      0.000      0.000      0.000
     30 H       -0.001      0.000     -0.000      0.000      0.000     -0.000
     31 H        0.004      0.000     -0.000      0.001     -0.000      0.000
     33 H        0.007      0.000     -0.000      0.000     -0.000      0.000
     35 H        0.000      0.000      0.000      0.000      0.000      0.000
     37 H        0.000      0.001      0.000      0.000      0.000     -0.001
     38 H        0.000      0.000     -0.000      0.000      0.000     -0.002
     40 H        0.046     -0.000     -0.003      0.006      0.001     -0.009
     41 H       -0.002     -0.002      0.001      0.002     -0.000      0.003
     42 H       -0.121      0.003      0.004     -0.021      0.001     -0.000
     45 H        0.026      0.000     -0.001      0.000     -0.000      0.000
     46 H        0.000      0.000      0.000      0.000      0.000      0.000
     47 H        0.022      0.000     -0.001      0.000     -0.000      0.000
     48 H        3.634     -0.072     -0.127      0.173     -0.045      0.005
     52 H       -2.785      0.132      0.166     -0.290      0.036     -0.093
     53 H        4.489      0.908     -0.239      0.167     -0.221      0.028
     57 H        0.000      3.804     13.535      3.397      4.381     -0.414
     58 H        3.804      0.000     -0.292     -0.326     -0.184      3.919
     61 H       13.535     -0.292      0.000    -11.821    -12.979     -0.283
     62 H        3.397     -0.326    -11.821      0.000    -12.890     -0.021
     63 H        4.381     -0.184    -12.979    -12.890      0.000     -0.105
     64 H       -0.414      3.919     -0.283     -0.021     -0.105      0.000
     65 H       -0.584     13.892      0.013      0.040      0.021    -12.647
     66 H        0.442      3.771     -0.084      0.003     -0.112    -13.279
     67 H       -0.332      2.737      0.013      0.023      0.006      2.577
     68 H       -0.294      5.105     -0.045     -0.008      0.516     -0.152
     69 H       -0.278     13.704      0.045      0.037     -0.056     -0.343
     70 H        0.013      0.000     -0.001     -0.016     -0.002      0.004
     71 H        0.005      0.002      0.000     -0.006     -0.000     -0.000
     72 H       -0.063      0.003      0.001     -0.007     -0.001      0.000
                 65 H       66 H       67 H       68 H       69 H       70 H  
      3 H        0.000      0.000      0.000      0.000      0.000      0.000
      4 H        0.000      0.000      0.000      0.000      0.000      0.000
      8 H        0.000      0.000      0.000      0.000      0.000      0.000
      9 H        0.000      0.000      0.000      0.000      0.000      0.000
     10 H        0.000      0.000      0.000      0.000      0.000      0.000
     11 H        0.000      0.000      0.000      0.000      0.000      0.000
     13 H        0.000      0.000      0.000      0.000      0.000      0.000
     16 H        0.000      0.000      0.000      0.000      0.000      0.000
     17 H        0.000      0.000      0.000      0.000      0.000      0.000
     19 H        0.000      0.000      0.000      0.000      0.000     -0.001
     21 H        0.000      0.000      0.000      0.000      0.000      0.001
     24 H        0.000      0.000      0.000      0.000      0.000      0.019
     25 H        0.000      0.000      0.000      0.000      0.000      0.004
     27 H        0.000      0.000      0.000      0.000      0.000     -0.007
     28 H        0.000      0.000      0.000      0.000      0.000     -0.008
     30 H       -0.000      0.000      0.000      0.000     -0.000     -0.469
     31 H       -0.000      0.000      0.000      0.000      0.000     -0.094
     33 H       -0.000     -0.000      0.000      0.000      0.000      0.004
     35 H        0.000      0.000      0.000      0.000      0.000      0.000
     37 H       -0.001     -0.000      0.000     -0.000     -0.000     -0.005
     38 H       -0.002      0.000     -0.000     -0.000     -0.000     -0.000
     40 H       -0.101     -0.015     -0.001      0.000     -0.002      0.081
     41 H        0.000     -0.001      0.000      0.000      0.001      0.031
     42 H       -0.001     -0.000     -0.001      0.000     -0.001     -0.201
     45 H       -0.000     -0.000      0.000     -0.000      0.000     -0.020
     46 H        0.000      0.000      0.000      0.000      0.000     -0.062
     47 H        0.000      0.000      0.000      0.000     -0.000     -0.255
     48 H        0.015     -0.011      0.002     -0.002      0.011      5.108
     52 H       -0.408      0.112     -0.079      0.084     -0.446      0.582
     53 H        0.066      0.282      0.019      0.154      0.028     -0.283
     57 H       -0.584      0.442     -0.332     -0.294     -0.278      0.013
     58 H       13.892      3.771      2.737      5.105     13.704      0.000
     61 H        0.013     -0.084      0.013     -0.045      0.045     -0.001
     62 H        0.040      0.003      0.023     -0.008      0.037     -0.016
     63 H        0.021     -0.112      0.006      0.516     -0.056     -0.002
     64 H      -12.647    -13.279      2.577     -0.152     -0.343      0.004
     65 H        0.000    -12.977     -0.400     -0.190     -0.290     -0.006
     66 H      -12.977      0.000      0.069     -0.236     -0.196     -0.006
     67 H       -0.400      0.069      0.000    -12.763    -12.669      0.002
     68 H       -0.190     -0.236    -12.763      0.000    -12.759     -0.005
     69 H       -0.290     -0.196    -12.669    -12.759      0.000     -0.004
     70 H       -0.006     -0.006      0.002     -0.005     -0.004      0.000
     71 H       -0.002      0.001      0.000     -0.002      0.000    -12.751
     72 H       -0.001     -0.003      0.001     -0.002     -0.001    -13.790
                 71 H       72 H  
      3 H        0.000      0.000
      4 H        0.000      0.000
      8 H        0.000      0.000
      9 H        0.000      0.000
     10 H        0.000      0.000
     11 H        0.000      0.000
     13 H        0.000      0.000
     16 H        0.000      0.000
     17 H        0.000      0.000
     19 H        0.000      0.000
     21 H        0.001      0.002
     24 H        0.011      0.034
     25 H       -0.000      0.001
     27 H       -0.003     -0.009
     28 H       -0.004     -0.011
     30 H        0.059      0.078
     31 H        0.006     -0.047
     33 H       -0.001      0.005
     35 H        0.000      0.000
     37 H       -0.021      0.066
     38 H        0.037      0.015
     40 H        0.021     -0.053
     41 H       -0.045      0.003
     42 H       -0.350     -0.461
     45 H        0.029     -0.011
     46 H       -0.032     -0.031
     47 H       -0.044     -0.021
     48 H       12.522      2.019
     52 H       -0.523     -0.432
     53 H       -0.214     -0.381
     57 H        0.005     -0.063
     58 H        0.002      0.003
     61 H        0.000      0.001
     62 H       -0.006     -0.007
     63 H       -0.000     -0.001
     64 H       -0.000      0.000
     65 H       -0.002     -0.001
     66 H        0.001     -0.003
     67 H        0.000      0.001
     68 H       -0.002     -0.002
     69 H        0.000     -0.001
     70 H      -12.751    -13.790
     71 H        0.000    -12.301
     72 H      -12.301      0.000

Maximum memory used throughout the entire EPRNMR-calculation: 990.0 MB

Timings for individual modules:

Sum of individual times         ...      392.530 sec (=   6.542 min)
GTO integral calculation        ...        0.642 sec (=   0.011 min)   0.2 %
SCF iterations                  ...      108.359 sec (=   1.806 min)  27.6 %
EPR/NMR calculation             ...      283.530 sec (=   4.725 min)  72.2 %
                             ****ORCA TERMINATED NORMALLY****
TOTAL RUN TIME: 0 days 0 hours 6 minutes 32 seconds 933 msec
