
                                 *****************
                                 * O   R   C   A *
                                 *****************

                                            #,                                       
                                            ###                                      
                                            ####                                     
                                            #####                                    
                                            ######                                   
                                           ########,                                 
                                     ,,################,,,,,                         
                               ,,#################################,,                 
                          ,,##########################################,,             
                       ,#########################################, ''#####,          
                    ,#############################################,,   '####,        
                  ,##################################################,,,,####,       
                ,###########''''           ''''###############################       
              ,#####''   ,,,,##########,,,,          '''####'''          '####       
            ,##' ,,,,###########################,,,                        '##       
           ' ,,###''''                  '''############,,,                           
         ,,##''                                '''############,,,,        ,,,,,,###''
      ,#''                                            '''#######################'''  
     '                                                          ''''####''''         
             ,#######,   #######,   ,#######,      ##                                
            ,#'     '#,  ##    ##  ,#'     '#,    #''#        ######   ,####,        
            ##       ##  ##   ,#'  ##            #'  '#       #        #'  '#        
            ##       ##  #######   ##           ,######,      #####,   #    #        
            '#,     ,#'  ##    ##  '#,     ,#' ,#      #,         ##   #,  ,#        
             '#######'   ##     ##  '#######'  #'      '#     #####' # '####'        



                  #######################################################
                  #                        -***-                        #
                  #          Department of theory and spectroscopy      #
                  #    Directorship and core code : Frank Neese         #
                  #        Max Planck Institute fuer Kohlenforschung    #
                  #                Kaiser Wilhelm Platz 1               #
                  #                 D-45470 Muelheim/Ruhr               #
                  #                      Germany                        #
                  #                                                     #
                  #                  All rights reserved                #
                  #                        -***-                        #
                  #######################################################


                         Program Version 5.0.2 -  RELEASE  -


 With contributions from (in alphabetic order):
   Daniel Aravena         : Magnetic Suceptibility
   Michael Atanasov       : Ab Initio Ligand Field Theory (pilot matlab implementation)
   Alexander A. Auer      : GIAO ZORA, VPT2 properties, NMR spectrum
   Ute Becker             : Parallelization
   Giovanni Bistoni       : ED, misc. LED, open-shell LED, HFLD
   Martin Brehm           : Molecular dynamics
   Dmytro Bykov           : SCF Hessian
   Vijay G. Chilkuri      : MRCI spin determinant printing, contributions to CSF-ICE
   Dipayan Datta          : RHF DLPNO-CCSD density
   Achintya Kumar Dutta   : EOM-CC, STEOM-CC
   Dmitry Ganyushin       : Spin-Orbit,Spin-Spin,Magnetic field MRCI
   Miquel Garcia          : C-PCM and meta-GGA Hessian, CC/C-PCM, Gaussian charge scheme
   Yang Guo               : DLPNO-NEVPT2, F12-NEVPT2, CIM, IAO-localization
   Andreas Hansen         : Spin unrestricted coupled pair/coupled cluster methods
   Benjamin Helmich-Paris : MC-RPA, TRAH-SCF, COSX integrals
   Lee Huntington         : MR-EOM, pCC
   Robert Izsak           : Overlap fitted RIJCOSX, COSX-SCS-MP3, EOM
   Marcus Kettner         : VPT2
   Christian Kollmar      : KDIIS, OOCD, Brueckner-CCSD(T), CCSD density, CASPT2, CASPT2-K
   Simone Kossmann        : Meta GGA functionals, TD-DFT gradient, OOMP2, MP2 Hessian
   Martin Krupicka        : Initial AUTO-CI
   Lucas Lang             : DCDCAS
   Marvin Lechner         : AUTO-CI (C++ implementation), FIC-MRCC
   Dagmar Lenk            : GEPOL surface, SMD
   Dimitrios Liakos       : Extrapolation schemes; Compound Job, initial MDCI parallelization
   Dimitrios Manganas     : Further ROCIS development; embedding schemes
   Dimitrios Pantazis     : SARC Basis sets
   Anastasios Papadopoulos: AUTO-CI, single reference methods and gradients
   Taras Petrenko         : DFT Hessian,TD-DFT gradient, ASA, ECA, R-Raman, ABS, FL, XAS/XES, NRVS
   Peter Pinski           : DLPNO-MP2, DLPNO-MP2 Gradient
   Christoph Reimann      : Effective Core Potentials
   Marius Retegan         : Local ZFS, SOC
   Christoph Riplinger    : Optimizer, TS searches, QM/MM, DLPNO-CCSD(T), (RO)-DLPNO pert. Triples
   Tobias Risthaus        : Range-separated hybrids, TD-DFT gradient, RPA, STAB
   Michael Roemelt        : Original ROCIS implementation
   Masaaki Saitow         : Open-shell DLPNO-CCSD energy and density
   Barbara Sandhoefer     : DKH picture change effects
   Avijit Sen             : IP-ROCIS
   Kantharuban Sivalingam : CASSCF convergence, NEVPT2, FIC-MRCI
   Bernardo de Souza      : ESD, SOC TD-DFT
   Georgi Stoychev        : AutoAux, RI-MP2 NMR, DLPNO-MP2 response
   Willem Van den Heuvel  : Paramagnetic NMR
   Boris Wezisla          : Elementary symmetry handling
   Frank Wennmohs         : Technical directorship


 We gratefully acknowledge several colleagues who have allowed us to
 interface, adapt or use parts of their codes:
   Stefan Grimme, W. Hujo, H. Kruse, P. Pracht,  : VdW corrections, initial TS optimization,
                  C. Bannwarth, S. Ehlert          DFT functionals, gCP, sTDA/sTD-DF
   Ed Valeev, F. Pavosevic, A. Kumar             : LibInt (2-el integral package), F12 methods
   Garnet Chan, S. Sharma, J. Yang, R. Olivares  : DMRG
   Ulf Ekstrom                                   : XCFun DFT Library
   Mihaly Kallay                                 : mrcc  (arbitrary order and MRCC methods)
   Jiri Pittner, Ondrej Demel                    : Mk-CCSD
   Frank Weinhold                                : gennbo (NPA and NBO analysis)
   Christopher J. Cramer and Donald G. Truhlar   : smd solvation model
   Lars Goerigk                                  : TD-DFT with DH, B97 family of functionals
   V. Asgeirsson, H. Jonsson                     : NEB implementation
   FAccTs GmbH                                   : IRC, NEB, NEB-TS, DLPNO-Multilevel, CI-OPT
                                                   MM, QMMM, 2- and 3-layer-ONIOM, Crystal-QMMM,
                                                   LR-CPCM, SF, NACMEs, symmetry and pop. for TD-DFT,
                                                   nearIR, NL-DFT gradient (VV10), updates on ESD,
                                                   ML-optimized integration grids
   S Lehtola, MJT Oliveira, MAL Marques          : LibXC Library
   Liviu Ungur et al                             : ANISO software


 Your calculation uses the libint2 library for the computation of 2-el integrals
 For citations please refer to: http://libint.valeyev.net

 Your ORCA version has been built with support for libXC version: 5.1.0
 For citations please refer to: https://tddft.org/programs/libxc/

 This ORCA versions uses:
   CBLAS   interface :  Fast vector & matrix operations
   LAPACKE interface :  Fast linear algebra routines
   SCALAPACK package :  Parallel linear algebra routines
   Shared memory     :  Shared parallel matrices
   BLAS/LAPACK       :  OpenBLAS 0.3.15  USE64BITINT DYNAMIC_ARCH NO_AFFINITY Zen SINGLE_THREADED
        Core in use  :  Zen
   Copyright (c) 2011-2014, The OpenBLAS Project


Your calculation utilizes the atom-pairwise dispersion correction
based on tight binding partial charges (D4)
Cite in your paper:
E.Caldeweyher, C.Bannwarth, S.Grimme, J.Chem.Phys., (2017), 147, 034112.
E.Caldeweyher, S.Ehlert, A.Hansen, H.Neugebauer, S.Grimme, J.Chem.Phys., (2018), in progress.
   

================================================================================

----- Orbital basis set information -----
Your calculation utilizes the basis: pcSseg-1
   F. Jensen, J. Chem. Theory Comput. 11, 132 (2015).

----- AuxJ basis set information -----
Your calculation utilizes the auxiliary basis: def2/J
   F. Weigend, Phys. Chem. Chem. Phys. 8, 1057 (2006).

================================================================================
                                        WARNINGS
                       Please study these warnings very carefully!
================================================================================



WARNING: Found flag for RIJCOSX approximation but no HF exchange needed!
  ===> : RIJCOSX  will be disabled and Split-RI-J is turned on

INFO   : the flag for use of the SHARK integral package has been found!

================================================================================
                                       INPUT FILE
================================================================================
NAME = inpS
|  1> ! revTPSS
|  2> ! D4
|  3> ! pcSseg-1
|  4> ! def2/J RIJCOSX
|  5> ! DEFGRID2
|  6> ! scfconv7
|  7> ! smallprint printgap noloewdin
|  8> ! NOSOSCF
|  9> %MaxCore 4000
| 10> %output
| 11>        print[P_BondOrder_M] 1
| 12>        print[P_Mayer] 1
| 13>        print[P_basis] 2
| 14> end
| 15> %pal
| 16>     nprocs 4
| 17> end
| 18> ! CPCM(chloroform)
| 19> *xyz 0 1
| 20> C   -4.9948516700   0.2691125800  -0.4723256000
| 21> C   -6.4549825100  -0.0831142500  -0.6337725900
| 22> C   -7.3308117800   0.8538108900   0.2078287100
| 23> H   -6.6356930100  -1.1248959700  -0.3457981000
| 24> H   -6.7526722300   0.0346070900  -1.6863342600
| 25> C   -4.6842755500   1.6895005700  -0.7469765900
| 26> C   -5.5825872600   2.6758093000  -0.0336366400
| 27> C   -7.0664525100   2.3101454800  -0.1784623800
| 28> H   -5.3984482100   3.6906970800  -0.4019415600
| 29> H   -5.3208489800   2.6703719400   1.0354921100
| 30> H   -7.3805396400   2.4529708400  -1.2214103900
| 31> H   -7.6795999000   2.9714964500   0.4446226600
| 32> O   -7.1142155100   0.6284627000   1.6106844300
| 33> H   -8.3883958100   0.6165337100   0.0390536700
| 34> C   -4.0950432300  -0.6497574300  -0.0476671100
| 35> C   -3.7174007000   2.0774760100  -1.5858898400
| 36> H   -3.0938767500   1.3533082000  -2.1034513000
| 37> H   -3.5357899500   3.1318981200  -1.7805064900
| 38> C   -2.7006467900  -0.4071929300   0.2440333000
| 39> H   -4.4762054300  -1.6567218500   0.1176585600
| 40> C   -1.7737631000  -1.3383631500   0.5541430500
| 41> H   -2.3857061800   0.6336023900   0.2164504500
| 42> C   -2.0057023100  -2.8268691000   0.6039805400
| 43> C   -1.0274613000  -3.5775450500  -0.3203064200
| 44> H   -3.0340209900  -3.0970633800   0.3495662900
| 45> H   -1.8274831500  -3.1637950500   1.6374220000
| 46> C    0.4352719500  -3.1823628900  -0.0787614600
| 47> H   -1.2993704300  -3.3781802200  -1.3646470300
| 48> H   -1.1456134400  -4.6573893000  -0.1681336300
| 49> C    0.6405117000  -1.6634151300  -0.1684220300
| 50> H    1.0686091500  -3.7140030000  -0.7961145400
| 51> H    0.7388184000  -3.5154231700   0.9251670500
| 52> C   -0.3445394400  -0.9997353000   0.8478518500
| 53> H   -0.1037913100  -1.4750628500   1.8163455400
| 54> C    0.1222281000   0.4502873300   0.9275199100
| 55> H   -6.1608813200   0.5360592600   1.7488382400
| 56> C    1.6615562400   0.3455810200   0.7975877500
| 57> H   -0.1945766900   0.9339798100   1.8573444200
| 58> H   -0.2906643900   1.0389198000   0.1008479000
| 59> C    1.9900533300  -1.1208206900   0.3802601700
| 60> H    2.1647884500   0.6027352400   1.7350945000
| 61> H    2.0303216700   1.0474722000   0.0396831500
| 62> H    2.2171077900  -1.6997206400   1.2902462100
| 63> C    3.2467543500  -1.2008912600  -0.5211249100
| 64> C    0.3831977400  -1.1523393800  -1.5929987000
| 65> H    0.6336303500  -0.0913381800  -1.6931483700
| 66> H   -0.6678242400  -1.2665945500  -1.8757135700
| 67> H    0.9886117000  -1.7058765500  -2.3189505800
| 68> H    3.0373477700  -0.5852817800  -1.4120885900
| 69> C    3.5705392500  -2.6183033400  -0.9883141400
| 70> C    4.3968415200  -0.5341476500   0.1997365800
| 71> C    5.5213362100  -1.1233197600   0.6084842600
| 72> H    4.2450945800   0.5222695500   0.3994390300
| 73> H    5.6489631900  -2.1875503900   0.3984624100
| 74> C    6.6942240700  -0.5462494800   1.3655710800
| 75> C    6.9014175700  -1.3749716300   2.6474126500
| 76> C    6.7305243500   0.9709591800   1.6621379000
| 77> H    7.5782849000  -0.7385357500   0.7331006900
| 78> H    7.7025896400   1.1242647400   2.1569332700
| 79> C    5.6663652900   1.4636367600   2.6502163600
| 80> C    6.7590344500   1.8268791400   0.3905123900
| 81> H    6.0263214700  -1.3162076100   3.3032626800
| 82> H    7.7750678600  -1.0177950900   3.2048107000
| 83> H    7.0613554300  -2.4307967200   2.4037903000
| 84> H    5.7250534100   0.9308495900   3.6044763500
| 85> H    4.6493914000   1.3444844400   2.2652757100
| 86> H    5.8182327900   2.5290173800   2.8578800900
| 87> H    7.5168932300   1.4597324300  -0.3113134800
| 88> H    7.0058842500   2.8652893900   0.6392086100
| 89> H    5.7979000800   1.8321003400  -0.1308811900
| 90> H    2.8052874200  -2.9891763600  -1.6728933500
| 91> H    3.6333020000  -3.3145983500  -0.1435627500
| 92> H    4.5280851900  -2.6417146100  -1.5196393600
| 93> *
| 94> %eprnmr
| 95>  Nuclei = all H { shift }
| 96>  origin giao
| 97>  giao_2el giao_2el_same_as_scf
| 98>  giao_1el giao_1el_analytic
| 99> end
|100> 
|101>                          ****END OF INPUT****
================================================================================

                       ****************************
                       * Single Point Calculation *
                       ****************************

---------------------------------
CARTESIAN COORDINATES (ANGSTROEM)
---------------------------------
  C     -4.994852    0.269113   -0.472326
  C     -6.454983   -0.083114   -0.633773
  C     -7.330812    0.853811    0.207829
  H     -6.635693   -1.124896   -0.345798
  H     -6.752672    0.034607   -1.686334
  C     -4.684276    1.689501   -0.746977
  C     -5.582587    2.675809   -0.033637
  C     -7.066453    2.310145   -0.178462
  H     -5.398448    3.690697   -0.401942
  H     -5.320849    2.670372    1.035492
  H     -7.380540    2.452971   -1.221410
  H     -7.679600    2.971496    0.444623
  O     -7.114216    0.628463    1.610684
  H     -8.388396    0.616534    0.039054
  C     -4.095043   -0.649757   -0.047667
  C     -3.717401    2.077476   -1.585890
  H     -3.093877    1.353308   -2.103451
  H     -3.535790    3.131898   -1.780506
  C     -2.700647   -0.407193    0.244033
  H     -4.476205   -1.656722    0.117659
  C     -1.773763   -1.338363    0.554143
  H     -2.385706    0.633602    0.216450
  C     -2.005702   -2.826869    0.603981
  C     -1.027461   -3.577545   -0.320306
  H     -3.034021   -3.097063    0.349566
  H     -1.827483   -3.163795    1.637422
  C      0.435272   -3.182363   -0.078761
  H     -1.299370   -3.378180   -1.364647
  H     -1.145613   -4.657389   -0.168134
  C      0.640512   -1.663415   -0.168422
  H      1.068609   -3.714003   -0.796115
  H      0.738818   -3.515423    0.925167
  C     -0.344539   -0.999735    0.847852
  H     -0.103791   -1.475063    1.816346
  C      0.122228    0.450287    0.927520
  H     -6.160881    0.536059    1.748838
  C      1.661556    0.345581    0.797588
  H     -0.194577    0.933980    1.857344
  H     -0.290664    1.038920    0.100848
  C      1.990053   -1.120821    0.380260
  H      2.164788    0.602735    1.735094
  H      2.030322    1.047472    0.039683
  H      2.217108   -1.699721    1.290246
  C      3.246754   -1.200891   -0.521125
  C      0.383198   -1.152339   -1.592999
  H      0.633630   -0.091338   -1.693148
  H     -0.667824   -1.266595   -1.875714
  H      0.988612   -1.705877   -2.318951
  H      3.037348   -0.585282   -1.412089
  C      3.570539   -2.618303   -0.988314
  C      4.396842   -0.534148    0.199737
  C      5.521336   -1.123320    0.608484
  H      4.245095    0.522270    0.399439
  H      5.648963   -2.187550    0.398462
  C      6.694224   -0.546249    1.365571
  C      6.901418   -1.374972    2.647413
  C      6.730524    0.970959    1.662138
  H      7.578285   -0.738536    0.733101
  H      7.702590    1.124265    2.156933
  C      5.666365    1.463637    2.650216
  C      6.759034    1.826879    0.390512
  H      6.026321   -1.316208    3.303263
  H      7.775068   -1.017795    3.204811
  H      7.061355   -2.430797    2.403790
  H      5.725053    0.930850    3.604476
  H      4.649391    1.344484    2.265276
  H      5.818233    2.529017    2.857880
  H      7.516893    1.459732   -0.311313
  H      7.005884    2.865289    0.639209
  H      5.797900    1.832100   -0.130881
  H      2.805287   -2.989176   -1.672893
  H      3.633302   -3.314598   -0.143563
  H      4.528085   -2.641715   -1.519639

----------------------------
CARTESIAN COORDINATES (A.U.)
----------------------------
  NO LB      ZA    FRAG     MASS         X           Y           Z
   0 C     6.0000    0    12.011   -9.438902    0.508549   -0.892566
   1 C     6.0000    0    12.011  -12.198149   -0.157063   -1.197657
   2 C     6.0000    0    12.011  -13.853227    1.613469    0.392739
   3 H     1.0000    0     1.008  -12.539642   -2.125745   -0.653464
   4 H     1.0000    0     1.008  -12.760701    0.065398   -3.186710
   5 C     6.0000    0    12.011   -8.851998    3.192693   -1.411581
   6 C     6.0000    0    12.011  -10.549561    5.056547   -0.063564
   7 C     6.0000    0    12.011  -13.353660    4.365542   -0.337245
   8 H     1.0000    0     1.008  -10.201589    6.974407   -0.759559
   9 H     1.0000    0     1.008  -10.054947    5.046272    1.956797
  10 H     1.0000    0     1.008  -13.947199    4.635443   -2.308131
  11 H     1.0000    0     1.008  -14.512341    5.615314    0.840215
  12 O     8.0000    0    15.999  -13.443919    1.187622    3.043752
  13 H     1.0000    0     1.008  -15.851771    1.165080    0.073801
  14 C     6.0000    0    12.011   -7.738510   -1.227864   -0.090078
  15 C     6.0000    0    12.011   -7.024869    3.925861   -2.996897
  16 H     1.0000    0     1.008   -5.846580    2.557382   -3.974947
  17 H     1.0000    0     1.008   -6.681675    5.918430   -3.364670
  18 C     6.0000    0    12.011   -5.103483   -0.769483    0.461156
  19 H     1.0000    0     1.008   -8.458802   -3.130751    0.222342
  20 C     6.0000    0    12.011   -3.351926   -2.529140    1.047179
  21 H     1.0000    0     1.008   -4.508331    1.197335    0.409032
  22 C     6.0000    0    12.011   -3.790228   -5.342008    1.141358
  23 C     6.0000    0    12.011   -1.941620   -6.760580   -0.605291
  24 H     1.0000    0     1.008   -5.733469   -5.852602    0.660585
  25 H     1.0000    0     1.008   -3.453443   -5.978706    3.094279
  26 C     6.0000    0    12.011    0.822545   -6.013794   -0.148838
  27 H     1.0000    0     1.008   -2.455454   -6.383835   -2.578809
  28 H     1.0000    0     1.008   -2.164896   -8.801190   -0.317727
  29 C     6.0000    0    12.011    1.210392   -3.143399   -0.318272
  30 H     1.0000    0     1.008    2.019379   -7.018449   -1.504438
  31 H     1.0000    0     1.008    1.396164   -6.643187    1.748312
  32 C     6.0000    0    12.011   -0.651085   -1.889226    1.602208
  33 H     1.0000    0     1.008   -0.196137   -2.787465    3.432396
  34 C     6.0000    0    12.011    0.230978    0.850920    1.752759
  35 H     1.0000    0     1.008  -11.642378    1.013005    3.304825
  36 C     6.0000    0    12.011    3.139886    0.653053    1.507222
  37 H     1.0000    0     1.008   -0.367697    1.764966    3.509872
  38 H     1.0000    0     1.008   -0.549276    1.963274    0.190575
  39 C     6.0000    0    12.011    3.760656   -2.118044    0.718588
  40 H     1.0000    0     1.008    4.090857    1.139005    3.278853
  41 H     1.0000    0     1.008    3.836752    1.979436    0.074990
  42 H     1.0000    0     1.008    4.189727   -3.212007    2.438212
  43 C     6.0000    0    12.011    6.135477   -2.269356   -0.984783
  44 C     6.0000    0    12.011    0.724139   -2.177606   -3.010331
  45 H     1.0000    0     1.008    1.197388   -0.172604   -3.199587
  46 H     1.0000    0     1.008   -1.262005   -2.393517   -3.544585
  47 H     1.0000    0     1.008    1.868205   -3.223639   -4.382182
  48 H     1.0000    0     1.008    5.739755   -1.106022   -2.668461
  49 C     6.0000    0    12.011    6.747341   -4.947876   -1.867643
  50 C     6.0000    0    12.011    8.308826   -1.009393    0.377447
  51 C     6.0000    0    12.011   10.433813   -2.122767    1.149869
  52 H     1.0000    0     1.008    8.022066    0.986946    0.754830
  53 H     1.0000    0     1.008   10.674993   -4.133871    0.752985
  54 C     6.0000    0    12.011   12.650250   -1.032262    2.580555
  55 C     6.0000    0    12.011   13.041789   -2.598320    5.002885
  56 C     6.0000    0    12.011   12.718848    1.834847    3.140985
  57 H     1.0000    0     1.008   14.320883   -1.395630    1.385360
  58 H     1.0000    0     1.008   14.555785    2.124552    4.076013
  59 C     6.0000    0    12.011   10.707879    2.765873    5.008183
  60 C     6.0000    0    12.011   12.772724    3.452301    0.737961
  61 H     1.0000    0     1.008   11.388097   -2.487272    6.242262
  62 H     1.0000    0     1.008   14.692749   -1.923354    6.056215
  63 H     1.0000    0     1.008   13.344028   -4.593540    4.542505
  64 H     1.0000    0     1.008   10.818783    1.759051    6.811473
  65 H     1.0000    0     1.008    8.786076    2.540707    4.280751
  66 H     1.0000    0     1.008   10.994867    4.779150    5.400611
  67 H     1.0000    0     1.008   14.204870    2.758495   -0.588297
  68 H     1.0000    0     1.008   13.239203    5.414612    1.207929
  69 H     1.0000    0     1.008   10.956443    3.462168   -0.247330
  70 H     1.0000    0     1.008    5.301225   -5.648725   -3.161310
  71 H     1.0000    0     1.008    6.865946   -6.263683   -0.271294
  72 H     1.0000    0     1.008    8.556841   -4.992117   -2.871702

--------------------------------
INTERNAL COORDINATES (ANGSTROEM)
--------------------------------
 C      0   0   0     0.000000000000     0.00000000     0.00000000
 C      1   0   0     1.510665727509     0.00000000     0.00000000
 C      2   1   0     1.534013812296   110.53634746     0.00000000
 H      2   1   3     1.095853431727   110.66838665   237.85928412
 H      2   1   3     1.100165238697   109.80578713   118.75970371
 C      1   2   3     1.479659668558   114.00763969   306.37677890
 C      6   1   2     1.512819461622   114.43683870    49.52498657
 C      3   2   1     1.529711432878   110.13662558    56.69339682
 H      7   6   1     1.095241028187   110.22677276   188.80951057
 H      7   6   1     1.100714666105   108.27506826    72.16007924
 H      8   3   2     1.098540104072   108.30728200    64.31362397
 H      8   3   2     1.096161390697   109.52298381   181.31572723
 O      3   2   1     1.437254299716   110.71332012   292.66239893
 H      3   2   1     1.096936395051   109.50754225   177.15534769
 C      1   2   3     1.354367807171   121.16286465   123.31703188
 C      6   1   2     1.337590131031   123.13246114   231.43419079
 H     16   6   1     1.086770904166   121.34145170   359.08782313
 H     16   6   1     1.087503605065   120.94300425   178.46196422
 C     15   1   2     1.445084114417   126.19124343   185.15774828
 H     15   1   2     1.089309204503   116.24929369     3.02703539
 C     19  15   1     1.349947928791   126.37807241   186.21550439
 H     19  15   1     1.087751487967   115.77691225     6.86366233
 C     21  19  15     1.507292120238   125.67077804     2.52837468
 C     23  21  19     1.541030901695   111.31787140   123.89941936
 H     23  21  19     1.093238705491   112.40280623     0.37448688
 H     23  21  19     1.101490996795   107.95040976   242.41314873
 C     24  23  21     1.534308139827   112.66198428    51.43430771
 H     24  23  21     1.097418889993   108.96534304   289.27969551
 H     24  23  21     1.096895660699   109.14547941   173.34251631
 C     27  24  23     1.535371183265   111.90407787   306.20878983
 H     27  24  23     1.094692950946   108.86341260   182.64016273
 H     27  24  23     1.100428121511   109.18651830    66.23103471
 C     21  19  15     1.497869804188   122.97299472   180.19003638
 H     33  21  19     1.105384986987   106.40359684   127.84278201
 C     33  21  19     1.525380137439   121.13943749     5.24049254
 H     13   3   2     0.967714290875   107.62462786    43.22827620
 C     35  33  21     1.548346505196   103.62415672   197.09853325
 H     35  33  21     1.094941692316   112.07029175    75.09689563
 H     35  33  21     1.095607139970   110.85448226   315.46828749
 C     30  27  24     1.554581453002   116.15037158   166.15853190
 H     37  35  33     1.094664266495   111.67127984   249.13163091
 H     37  35  33     1.096840258937   110.42371354   130.61617089
 H     40  30  27     1.102158551621   106.67355729   320.83998867
 C     40  30  27     1.548613512887   118.74989508    81.18000130
 C     30  27  24     1.535196269197   111.16951949   294.21365004
 H     45  30  27     1.094746543705   111.66580280   186.29953083
 H     45  30  27     1.094362437236   111.46533412    66.30670591
 H     45  30  27     1.095415717255   110.73869632   306.21230348
 H     44  40  30     1.103015152522   106.69280381    62.07656166
 C     44  40  30     1.527140937381   113.46009249   303.11272001
 C     44  40  30     1.512246285444   108.47586329   176.41298752
 C     51  44  40     1.333674153962   126.33852100   116.49899981
 H     51  44  40     1.085783359051   114.22727717   297.60782370
 H     52  51  44     1.092238370197   118.03610501     0.96509146
 C     52  51  44     1.510581508298   129.75521911   182.01514555
 C     55  52  51     1.540398441613   108.41988532   123.63802201
 C     55  52  51     1.546347860939   119.28588523   354.73563351
 H     55  52  51     1.103882400891   105.55297084   236.83774723
 H     57  55  52     1.101469918302   104.08904046   183.40289092
 C     57  55  52     1.533448644699   114.99374164    67.71049217
 C     57  55  52     1.533115534267   112.90037708   298.09250370
 H     56  55  52     1.095164670784   111.22278961   297.92343762
 H     56  55  52     1.096144377392   110.79683332   177.34013499
 H     56  55  52     1.095307531771   110.68011380    57.42274606
 H     60  57  55     1.094494674478   111.60351028    56.53274729
 H     60  57  55     1.093897834501   112.54584105   295.33436731
 H     60  57  55     1.096003571064   109.76960312   175.60068857
 H     61  57  55     1.096223603508   110.90988533   311.84310702
 H     61  57  55     1.095938173853   110.17875742   192.47388687
 H     61  57  55     1.093461386328   112.44647122    72.50301746
 H     50  44  40     1.091698609987   111.00986275    67.40571365
 H     50  44  40     1.096526704939   111.45863122   307.08171462
 H     50  44  40     1.095330454329   110.70680749   186.76484570

---------------------------
INTERNAL COORDINATES (A.U.)
---------------------------
 C      0   0   0     0.000000000000     0.00000000     0.00000000
 C      1   0   0     2.854744504893     0.00000000     0.00000000
 C      2   1   0     2.898865990892   110.53634746     0.00000000
 H      2   1   3     2.070862868881   110.66838665   237.85928412
 H      2   1   3     2.079011003198   109.80578713   118.75970371
 C      1   2   3     2.796151544984   114.00763969   306.37677890
 C      6   1   2     2.858814472532   114.43683870    49.52498657
 C      3   2   1     2.890735672068   110.13662558    56.69339682
 H      7   6   1     2.069705593908   110.22677276   188.80951057
 H      7   6   1     2.080049270528   108.27506826    72.16007924
 H      8   3   2     2.075939943825   108.30728200    64.31362397
 H      8   3   2     2.071444826996   109.52298381   181.31572723
 O      3   2   1     2.716017011263   110.71332012   292.66239893
 H      3   2   1     2.072909372977   109.50754225   177.15534769
 C      1   2   3     2.559384240153   121.16286465   123.31703188
 C      6   1   2     2.527679027084   123.13246114   231.43419079
 H     16   6   1     2.053699379187   121.34145170   359.08782313
 H     16   6   1     2.055083983225   120.94300425   178.46196422
 C     15   1   2     2.730813216727   126.19124343   185.15774828
 H     15   1   2     2.058496071671   116.24929369     3.02703539
 C     19  15   1     2.551031880470   126.37807241   186.21550439
 H     19  15   1     2.055552414024   115.77691225     6.86366233
 C     21  19  15     2.848369311067   125.67077804     2.52837468
 C     23  21  19     2.912126368114   111.31787140   123.89941936
 H     23  21  19     2.065921752382   112.40280623     0.37448688
 H     23  21  19     2.081516322923   107.95040976   242.41314873
 C     24  23  21     2.899422189319   112.66198428    51.43430771
 H     24  23  21     2.073821156279   108.96534304   289.27969551
 H     24  23  21     2.072832396208   109.14547941   173.34251631
 C     27  24  23     2.901431050286   111.90407787   306.20878983
 H     27  24  23     2.068669878021   108.86341260   182.64016273
 H     27  24  23     2.079507779721   109.18651830    66.23103471
 C     21  19  15     2.830563714185   122.97299472   180.19003638
 H     33  21  19     2.088874897954   106.40359684   127.84278201
 C     33  21  19     2.882550709883   121.13943749     5.24049254
 H     13   3   2     1.828714985636   107.62462786    43.22827620
 C     35  33  21     2.925950855234   103.62415672   197.09853325
 H     35  33  21     2.069139931090   112.07029175    75.09689563
 H     35  33  21     2.070397444913   110.85448226   315.46828749
 C     30  27  24     2.937733199048   116.15037158   166.15853190
 H     37  35  33     2.068615672265   111.67127984   249.13163091
 H     37  35  33     2.072727702051   110.42371354   130.61617089
 H     40  30  27     2.082777818723   106.67355729   320.83998867
 C     40  30  27     2.926455426646   118.74989508    81.18000130
 C     30  27  24     2.901100510600   111.16951949   294.21365004
 H     45  30  27     2.068771153659   111.66580280   186.29953083
 H     45  30  27     2.068045297627   111.46533412    66.30670591
 H     45  30  27     2.070035708406   110.73869632   306.21230348
 H     44  40  30     2.084396559831   106.69280381    62.07656166
 C     44  40  30     2.885878139550   113.46009249   303.11272001
 C     44  40  30     2.857731326529   108.47586329   176.41298752
 C     51  44  40     2.520278902877   126.33852100   116.49899981
 H     51  44  40     2.051833189375   114.22727717   297.60782370
 H     52  51  44     2.064031392634   118.03610501     0.96509146
 C     52  51  44     2.854585353649   129.75521911   182.01514555
 C     55  52  51     2.910931191767   108.41988532   123.63802201
 C     55  52  51     2.922173964950   119.28588523   354.73563351
 H     55  52  51     2.086035421740   105.55297084   236.83774723
 H     57  55  52     2.081476490342   104.08904046   183.40289092
 C     57  55  52     2.897797978915   114.99374164    67.71049217
 C     57  55  52     2.897168491425   112.90037708   298.09250370
 H     56  55  52     2.069561299327   111.22278961   297.92343762
 H     56  55  52     2.071412676508   110.79683332   177.34013499
 H     56  55  52     2.069831267469   110.68011380    57.42274606
 H     60  57  55     2.068295189799   111.60351028    56.53274729
 H     60  57  55     2.067167325696   112.54584105   295.33436731
 H     60  57  55     2.071146591111   109.76960312   175.60068857
 H     61  57  55     2.071562392170   110.90988533   311.84310702
 H     61  57  55     2.071023008291   110.17875742   192.47388687
 H     61  57  55     2.066342558177   112.44647122    72.50301746
 H     50  44  40     2.063011393657   111.00986275    67.40571365
 H     50  44  40     2.072135170867   111.45863122   307.08171462
 H     50  44  40     2.069874584826   110.70680749   186.76484570

---------------------
BASIS SET INFORMATION
---------------------
There are 3 groups of distinct atoms

 Group   1 Type C   : 8s5p1d contracted to 3s3p1d pattern {521/311/1}
 Group   2 Type H   : 4s2p contracted to 2s1p pattern {31/2}
 Group   3 Type O   : 8s5p1d contracted to 3s3p1d pattern {521/311/1}

Atom   0C    basis set group =>   1
Atom   1C    basis set group =>   1
Atom   2C    basis set group =>   1
Atom   3H    basis set group =>   2
Atom   4H    basis set group =>   2
Atom   5C    basis set group =>   1
Atom   6C    basis set group =>   1
Atom   7C    basis set group =>   1
Atom   8H    basis set group =>   2
Atom   9H    basis set group =>   2
Atom  10H    basis set group =>   2
Atom  11H    basis set group =>   2
Atom  12O    basis set group =>   3
Atom  13H    basis set group =>   2
Atom  14C    basis set group =>   1
Atom  15C    basis set group =>   1
Atom  16H    basis set group =>   2
Atom  17H    basis set group =>   2
Atom  18C    basis set group =>   1
Atom  19H    basis set group =>   2
Atom  20C    basis set group =>   1
Atom  21H    basis set group =>   2
Atom  22C    basis set group =>   1
Atom  23C    basis set group =>   1
Atom  24H    basis set group =>   2
Atom  25H    basis set group =>   2
Atom  26C    basis set group =>   1
Atom  27H    basis set group =>   2
Atom  28H    basis set group =>   2
Atom  29C    basis set group =>   1
Atom  30H    basis set group =>   2
Atom  31H    basis set group =>   2
Atom  32C    basis set group =>   1
Atom  33H    basis set group =>   2
Atom  34C    basis set group =>   1
Atom  35H    basis set group =>   2
Atom  36C    basis set group =>   1
Atom  37H    basis set group =>   2
Atom  38H    basis set group =>   2
Atom  39C    basis set group =>   1
Atom  40H    basis set group =>   2
Atom  41H    basis set group =>   2
Atom  42H    basis set group =>   2
Atom  43C    basis set group =>   1
Atom  44C    basis set group =>   1
Atom  45H    basis set group =>   2
Atom  46H    basis set group =>   2
Atom  47H    basis set group =>   2
Atom  48H    basis set group =>   2
Atom  49C    basis set group =>   1
Atom  50C    basis set group =>   1
Atom  51C    basis set group =>   1
Atom  52H    basis set group =>   2
Atom  53H    basis set group =>   2
Atom  54C    basis set group =>   1
Atom  55C    basis set group =>   1
Atom  56C    basis set group =>   1
Atom  57H    basis set group =>   2
Atom  58H    basis set group =>   2
Atom  59C    basis set group =>   1
Atom  60C    basis set group =>   1
Atom  61H    basis set group =>   2
Atom  62H    basis set group =>   2
Atom  63H    basis set group =>   2
Atom  64H    basis set group =>   2
Atom  65H    basis set group =>   2
Atom  66H    basis set group =>   2
Atom  67H    basis set group =>   2
Atom  68H    basis set group =>   2
Atom  69H    basis set group =>   2
Atom  70H    basis set group =>   2
Atom  71H    basis set group =>   2
Atom  72H    basis set group =>   2

-------------------------
BASIS SET IN INPUT FORMAT
-------------------------

 # Basis set for element : H 
 NewGTO H 
 S 3 
   1      12.2518000000      0.0372173893
   2       1.8687100000      0.2538082070
   3       0.4182080000      0.7973867639
 S 1 
   1       0.1061000000      1.0000000000
 P 2 
   1       9.0000000000      0.0402678705
   2       1.0000000000      0.9880231245
  end;

 # Basis set for element : C 
 NewGTO C 
 S 5 
   1    1243.2000000000      0.0056300977
   2     187.1450000000      0.0419506039
   3      42.5126000000      0.1846643605
   4      11.7393000000      0.4665574214
   5       3.5054800000      0.4482347783
 S 2 
   1       5.3908900000     -0.1481148174
   2       0.4933410000      1.0519817143
 S 1 
   1       0.1497410000      1.0000000000
 P 3 
   1      59.6736000000      0.0113906672
   2       9.1805600000      0.1672414929
   3       1.9365800000      0.9041087436
 P 1 
   1       0.5262960000      1.0000000000
 P 1 
   1       0.1363190000      1.0000000000
 D 1 
   1       0.8000000000      1.0000000000
  end;

 # Basis set for element : O 
 NewGTO O 
 S 5 
   1    2288.6400000000      0.0054511382
   2     344.4160000000      0.0407189228
   3      78.2538000000      0.1813694209
   4      21.7195000000      0.4655368202
   5       6.5590700000      0.4512113212
 S 2 
   1      10.4656000000     -0.1502112012
   2       0.9643510000      1.0528679834
 S 1 
   1       0.2851270000      1.0000000000
 P 3 
   1     110.8840000000      0.0113058003
   2      17.0590000000      0.1699226452
   3       3.6899900000      0.9008060328
 P 1 
   1       0.9929960000      1.0000000000
 P 1 
   1       0.2449240000      1.0000000000
 D 1 
   1       1.0000000000      1.0000000000
  end;

---------------------------------
AUXILIARY/J BASIS SET INFORMATION
---------------------------------
There are 3 groups of distinct atoms

 Group   1 Type C   : 12s5p4d2f1g contracted to 6s4p3d1f1g pattern {711111/2111/211/2/1}
 Group   2 Type H   : 5s2p1d contracted to 3s1p1d pattern {311/2/1}
 Group   3 Type O   : 12s5p4d2f1g contracted to 6s4p3d1f1g pattern {711111/2111/211/2/1}

Atom   0C    basis set group =>   1
Atom   1C    basis set group =>   1
Atom   2C    basis set group =>   1
Atom   3H    basis set group =>   2
Atom   4H    basis set group =>   2
Atom   5C    basis set group =>   1
Atom   6C    basis set group =>   1
Atom   7C    basis set group =>   1
Atom   8H    basis set group =>   2
Atom   9H    basis set group =>   2
Atom  10H    basis set group =>   2
Atom  11H    basis set group =>   2
Atom  12O    basis set group =>   3
Atom  13H    basis set group =>   2
Atom  14C    basis set group =>   1
Atom  15C    basis set group =>   1
Atom  16H    basis set group =>   2
Atom  17H    basis set group =>   2
Atom  18C    basis set group =>   1
Atom  19H    basis set group =>   2
Atom  20C    basis set group =>   1
Atom  21H    basis set group =>   2
Atom  22C    basis set group =>   1
Atom  23C    basis set group =>   1
Atom  24H    basis set group =>   2
Atom  25H    basis set group =>   2
Atom  26C    basis set group =>   1
Atom  27H    basis set group =>   2
Atom  28H    basis set group =>   2
Atom  29C    basis set group =>   1
Atom  30H    basis set group =>   2
Atom  31H    basis set group =>   2
Atom  32C    basis set group =>   1
Atom  33H    basis set group =>   2
Atom  34C    basis set group =>   1
Atom  35H    basis set group =>   2
Atom  36C    basis set group =>   1
Atom  37H    basis set group =>   2
Atom  38H    basis set group =>   2
Atom  39C    basis set group =>   1
Atom  40H    basis set group =>   2
Atom  41H    basis set group =>   2
Atom  42H    basis set group =>   2
Atom  43C    basis set group =>   1
Atom  44C    basis set group =>   1
Atom  45H    basis set group =>   2
Atom  46H    basis set group =>   2
Atom  47H    basis set group =>   2
Atom  48H    basis set group =>   2
Atom  49C    basis set group =>   1
Atom  50C    basis set group =>   1
Atom  51C    basis set group =>   1
Atom  52H    basis set group =>   2
Atom  53H    basis set group =>   2
Atom  54C    basis set group =>   1
Atom  55C    basis set group =>   1
Atom  56C    basis set group =>   1
Atom  57H    basis set group =>   2
Atom  58H    basis set group =>   2
Atom  59C    basis set group =>   1
Atom  60C    basis set group =>   1
Atom  61H    basis set group =>   2
Atom  62H    basis set group =>   2
Atom  63H    basis set group =>   2
Atom  64H    basis set group =>   2
Atom  65H    basis set group =>   2
Atom  66H    basis set group =>   2
Atom  67H    basis set group =>   2
Atom  68H    basis set group =>   2
Atom  69H    basis set group =>   2
Atom  70H    basis set group =>   2
Atom  71H    basis set group =>   2
Atom  72H    basis set group =>   2

-------------------------------------
AUXILIARY/J BASIS SET IN INPUT FORMAT
-------------------------------------

 # Auxiliary/J basis set for element : H 
 NewAuxJGTO H 
 S 3 
   1      15.6752927000      0.1007184237
   2       3.6063578000      0.3404257499
   3       1.2080016000      0.6491996172
 S 1 
   1       0.4726794000      1.0000000000
 S 1 
   1       0.2018100000      1.0000000000
 P 2 
   1       2.0281365000      0.5596620919
   2       0.5358730000      0.5596620919
 D 1 
   1       2.2165124000      1.0000000000
  end;

 # Auxiliary/J basis set for element : C 
 NewAuxJGTO C 
 S 7 
   1    1861.0916331000      0.0134602335
   2     642.9939764000      0.0299160374
   3     235.1105725000      0.1008649584
   4      90.7028894000      0.2370970548
   5      36.7794552000      0.3924037254
   6      15.6046273000      0.3195862154
   7       6.8907294000      0.0530104441
 S 1 
   1       3.1478850000     -1.0000000000
 S 1 
   1       1.4777287000      1.0000000000
 S 1 
   1       0.7076466000      1.0000000000
 S 1 
   1       0.3430122000      1.0000000000
 S 1 
   1       0.1669453000      1.0000000000
 P 2 
   1      13.5472892000     -0.6769313712
   2       5.4669419000     -0.3779500978
 P 1 
   1       2.1751721000      1.0000000000
 P 1 
   1       0.8582194000      1.0000000000
 P 1 
   1       0.3376720000      1.0000000000
 D 2 
   1       5.9287253000     -0.3533329857
   2       1.9809209000     -0.7456525731
 D 1 
   1       0.8055417000     -1.0000000000
 D 1 
   1       0.3531244000     -1.0000000000
 F 2 
   1       1.6755626000      0.6311076882
   2       0.5997536000      0.4968166032
 G 1 
   1       1.0024600000     -1.0000000000
  end;

 # Auxiliary/J basis set for element : O 
 NewAuxJGTO O 
 S 7 
   1    2876.8216605000      0.0168151159
   2    1004.7443032000      0.0340137548
   3     369.7579954000      0.1194951309
   4     142.9442404000      0.2664627624
   5      57.8366425000      0.4202764046
   6      24.3864983000      0.2765077335
   7      10.6622662000      0.0057008815
 S 1 
   1       4.8070437000     -1.0000000000
 S 1 
   1       2.2210770000      1.0000000000
 S 1 
   1       1.0447795000      1.0000000000
 S 1 
   1       0.4968425000      1.0000000000
 S 1 
   1       0.2371384000      1.0000000000
 P 2 
   1      64.2613382000     -0.2731534179
   2      16.3006076000     -0.8168011598
 P 1 
   1       4.3550542000      1.0000000000
 P 1 
   1       1.2019554000      1.0000000000
 P 1 
   1       0.3354196000      1.0000000000
 D 2 
   1       9.2146611000     -0.4661230638
   2       2.8435251000     -0.6600908911
 D 1 
   1       0.9955759000     -1.0000000000
 D 1 
   1       0.3649441000     -1.0000000000
 F 2 
   1       2.6420115000      0.5931563945
   2       0.7345613000      0.5931563945
 G 1 
   1       1.3931000000     -1.0000000000
  end;



           ************************************************************
           *        Program running with 4 parallel MPI-processes     *
           *              working on a common directory               *
           ************************************************************
------------------------------------------------------------------------------
                           ORCA GTO INTEGRAL CALCULATION
                           -- RI-GTO INTEGRALS CHOSEN --
------------------------------------------------------------------------------
------------------------------------------------------------------------------
                   ___                                                        
                  /   \      - P O W E R E D   B Y -                         
                 /     \                                                     
                 |  |  |   _    _      __       _____    __    __             
                 |  |  |  | |  | |    /  \     |  _  \  |  |  /  |          
                  \  \/   | |  | |   /    \    | | | |  |  | /  /          
                 / \  \   | |__| |  /  /\  \   | |_| |  |  |/  /          
                |  |  |   |  __  | /  /__\  \  |    /   |      \           
                |  |  |   | |  | | |   __   |  |    \   |  |\   \          
                \     /   | |  | | |  |  |  |  | |\  \  |  | \   \       
                 \___/    |_|  |_| |__|  |__|  |_| \__\ |__|  \__/        
                                                                              
                      - O R C A' S   B I G   F R I E N D -                    
                                      &                                       
                       - I N T E G R A L  F E E D E R -                       
                                                                              
 v1 FN, 2020, v2 2021                                                         
------------------------------------------------------------------------------


Reading SHARK input file inpS.SHARKINP.tmp ... ok
----------------------
SHARK INTEGRAL PACKAGE
----------------------

Number of atoms                             ...     73
Number of basis functions                   ...    713
Number of shells                            ...    335
Maximum angular momentum                    ...      2
Integral batch strategy                     ... SHARK/LIBINT Hybrid
RI-J (if used) integral strategy            ... SPLIT-RIJ (Revised 2003 algorithm where possible)
Printlevel                                  ...      1
Contraction scheme used                     ... SEGMENTED contraction
Coulomb Range Separation                    ... NOT USED
Exchange Range Separation                   ... NOT USED
Finite Nucleus Model                        ... NOT USED
Auxiliary Coulomb fitting basis             ... AVAILABLE
   # of basis functions in Aux-J            ...   1905
   # of shells in Aux-J                     ...    655
   Maximum angular momentum in Aux-J        ...      4
Auxiliary J/K fitting basis                 ... NOT available
Auxiliary Correlation fitting basis         ... NOT available
Auxiliary 'external' fitting basis          ... NOT available
Integral threshold                          ...     3.000000e-11
Primitive cut-off                           ...     1.000000e-12
Primitive pair pre-selection threshold      ...     1.000000e-12

Calculating pre-screening integrals         ... done (  0.0 sec) Dimension = 335
Organizing shell pair data                  ... done (  0.2 sec)
Shell pair information
Total number of shell pairs                 ...     56280
Shell pairs after pre-screening             ...     32097
Total number of primitive shell pairs       ...    225367
Primitive shell pairs kept                  ...     75534
          la=0 lb=0:   9831 shell pairs
          la=1 lb=0:  13203 shell pairs
          la=1 lb=1:   4298 shell pairs
          la=2 lb=0:   2797 shell pairs
          la=2 lb=1:   1772 shell pairs
          la=2 lb=2:    196 shell pairs

Calculating one electron integrals          ... done (  0.1 sec)
Calculating RI/J V-Matrix + Cholesky decomp.... done (  0.1 sec)
Calculating Nuclear repulsion               ... done (  0.0 sec) ENN=   2801.070387844825 Eh

SHARK setup successfully completed in   0.6 seconds

Maximum memory used throughout the entire GTOINT-calculation: 61.6 MB


           ************************************************************
           *        Program running with 4 parallel MPI-processes     *
           *              working on a common directory               *
           ************************************************************
-------------------------------------------------------------------------------
                                 ORCA SCF
-------------------------------------------------------------------------------

------------
SCF SETTINGS
------------
Hamiltonian:
 Density Functional     Method          .... DFT(GTOs)
 Exchange Functional    Exchange        .... revTPSS
 Correlation Functional Correlation     .... revTPSS
 LDA part of GGA corr.  LDAOpt          .... PW91-LDA
 Gradients option       PostSCFGGA      .... off
   Density functional embedding theory  .... OFF
 RI-approximation to the Coulomb term is turned on
   Number of AuxJ basis functions       .... 1905


General Settings:
 Integral files         IntName         .... inpS
 Hartree-Fock type      HFTyp           .... RHF
 Total Charge           Charge          ....    0
 Multiplicity           Mult            ....    1
 Number of Electrons    NEL             ....  220
 Basis Dimension        Dim             ....  713
 Nuclear Repulsion      ENuc            ....   2801.0703878448 Eh

Convergence Acceleration:
 DIIS                   CNVDIIS         .... on
   Start iteration      DIISMaxIt       ....    12
   Startup error        DIISStart       ....  0.200000
   # of expansion vecs  DIISMaxEq       ....     5
   Bias factor          DIISBfac        ....   1.050
   Max. coefficient     DIISMaxC        ....  10.000
 Trust-Rad. Augm. Hess. CNVTRAH         .... auto
   Auto Start mean grad. ratio tolernc. ....  1.125000
   Auto Start start iteration           ....    20
   Auto Start num. interpolation iter.  ....    10
   Max. Number of Micro iterations      ....    16
   Max. Number of Macro iterations      .... Maxiter - #DIIS iter
   Number of Davidson start vectors     ....     2
   Converg. threshold I  (grad. norm)   ....   1.000e-04
   Converg. threshold II (energy diff.) ....   1.000e-07
   Grad. Scal. Fac. for Micro threshold ....   0.100
   Minimum threshold for Micro iter.    ....   0.010
   NR start threshold (gradient norm)   ....   0.001
   Initial trust radius                 ....   0.400
   Minimum AH scaling param. (alpha)    ....   1.000
   Maximum AH scaling param. (alpha)    .... 1000.000
   Orbital update algorithm             .... Taylor
   White noise on init. David. guess    .... on
   Maximum white noise                  ....   0.010
   Quad. conv. algorithm                .... NR
 SOSCF                  CNVSOSCF        .... off
 Level Shifting         CNVShift        .... on
   Level shift para.    LevelShift      ....    0.2500
   Turn off err/grad.   ShiftErr        ....    0.0010
 Zerner damping         CNVZerner       .... off
 Static damping         CNVDamp         .... on
   Fraction old density DampFac         ....    0.7000
   Max. Damping (<1)    DampMax         ....    0.9800
   Min. Damping (>=0)   DampMin         ....    0.0000
   Turn off err/grad.   DampErr         ....    0.1000
 Fernandez-Rico         CNVRico         .... off

SCF Procedure:
 Maximum # iterations   MaxIter         ....   125
 SCF integral mode      SCFMode         .... Direct
   Integral package                     .... SHARK and LIBINT hybrid scheme
 Reset frequency        DirectResetFreq ....    20
 Integral Threshold     Thresh          ....  3.000e-11 Eh
 Primitive CutOff       TCut            ....  1.000e-12 Eh

Convergence Tolerance:
 Convergence Check Mode ConvCheckMode   .... Total+1el-Energy
 Convergence forced     ConvForced      .... 0
 Energy Change          TolE            ....  1.000e-07 Eh
 1-El. energy change                    ....  1.000e-04 Eh
 DIIS Error             TolErr          ....  1.000e-07


Diagonalization of the overlap matrix:
Smallest eigenvalue                        ... 5.216e-04
Time for diagonalization                   ...    0.079 sec
Threshold for overlap eigenvalues          ... 1.000e-08
Number of eigenvalues below threshold      ... 0
Time for construction of square roots      ...    0.069 sec
Total time needed                          ...    0.151 sec

Time for model grid setup =    0.798 sec

------------------------------
INITIAL GUESS: MODEL POTENTIAL
------------------------------
Loading Hartree-Fock densities                     ... done
Calculating cut-offs                               ... done
Initializing the effective Hamiltonian             ... done
Setting up the integral package (SHARK)            ... done
Starting the Coulomb interaction                   ... done (   0.7 sec)
Reading the grid                                   ... done
Mapping shells                                     ... done
Starting the XC term evaluation                    ... done (   0.4 sec)
  promolecular density results
     # of electrons  =    219.976241274
     EX              =   -164.432792300
     EC              =     -7.329685800
     EX+EC           =   -171.762478100
Transforming the Hamiltonian                       ... done (   0.0 sec)
Diagonalizing the Hamiltonian                      ... done (   0.1 sec)
Back transforming the eigenvectors                 ... done (   0.0 sec)
Now organizing SCF variables                       ... done
                      ------------------
                      INITIAL GUESS DONE (   2.1 sec)
                      ------------------
-------------------
DFT GRID GENERATION
-------------------

General Integration Accuracy     IntAcc      ... 4.388
Radial Grid Type                 RadialGrid  ... OptM3 with GC (2021)
Angular Grid (max. ang.)         AngularGrid ... 4 (Lebedev-302)
Angular grid pruning method      GridPruning ... 4 (adaptive)
Weight generation scheme         WeightScheme... Becke
Basis function cutoff            BFCut       ... 1.0000e-11
Integration weight cutoff        WCut        ... 1.0000e-14
Angular grids for H and He will be reduced by one unit
Partially contracted basis set               ... off
Rotationally invariant grid construction     ... off

Total number of grid points                  ...   309750
Total number of batches                      ...     4875
Average number of points per batch           ...       63
Average number of grid points per atom       ...     4243
Time for grid setup =    3.037 sec


--------------------
CPCM SOLVATION MODEL
--------------------
CPCM parameters:
  Epsilon                                         ...       4.9000
  Refrac                                          ...       1.4500
  Rsolv                                           ...       1.3000
  Surface type                                    ... GAUSSIAN VDW
  Epsilon function type                           ...         CPCM
Radii:
 Radius for C  used is    3.8550 Bohr (=   2.0400 Ang.)
 Radius for H  used is    2.4944 Bohr (=   1.3200 Ang.)
 Radius for O  used is    3.4469 Bohr (=   1.8240 Ang.)
Calculating surface                               ...        done! (  0.0s)
GEPOL surface points                              ...         3580
GEPOL Volume                                      ...    3582.3999
GEPOL Surface-area                                ...    1761.5007
Calculating surface distance matrix               ...        done! (  0.1s)
Performing Cholesky decomposition & store         ...        done! (  0.4s)
Overall time for CPCM initialization              ...                 0.5s
--------------
SCF ITERATIONS
--------------
ITER       Energy         Delta-E        Max-DP      RMS-DP      [F,P]     Damp
               ***  Starting incremental Fock matrix formation  ***

  HOMO= 109 E= -1.913 eV LUMO=  7.771 eV gap=   9.684 eV
  0  -1167.5205055972   0.000000000000 0.05490551  0.00082921  0.2631445 0.7000

  HOMO= 109 E= -3.434 eV LUMO=  6.667 eV gap=  10.101 eV
  1  -1167.8929635392  -0.372457942008 0.02887632  0.00061270  0.1015714 0.7000
                               ***Turning on DIIS***

  HOMO= 109 E= -4.412 eV LUMO=  5.781 eV gap=  10.193 eV
  2  -1168.0387999123  -0.145836373067 0.04830832  0.00100992  0.0318993 0.0000

  HOMO= 109 E= -5.034 eV LUMO=  5.197 eV gap=  10.232 eV
  3  -1168.2361322985  -0.197332386171 0.02316372  0.00047478  0.0544740 0.0000

  HOMO= 109 E= -5.056 eV LUMO=  5.175 eV gap=  10.230 eV
  4  -1168.3027231677  -0.066590869206 0.00753779  0.00015053  0.0103421 0.0000

  HOMO= 109 E= -5.011 eV LUMO=  5.227 eV gap=  10.238 eV
  5  -1168.3057317809  -0.003008613283 0.00345591  0.00005678  0.0102938 0.0000

  HOMO= 109 E= -4.991 eV LUMO=  5.244 eV gap=  10.235 eV
  6  -1168.3059979660  -0.000266185067 0.00126492  0.00001904  0.0030774 0.0000

  HOMO= 109 E= -4.993 eV LUMO= -1.561 eV gap=   3.432 eV
  7  -1168.3060182043  -0.000020238277 0.00073138  0.00001159  0.0004375 0.0000

  HOMO= 109 E= -4.991 eV LUMO= -1.559 eV gap=   3.432 eV
  8  -1168.3060209982  -0.000002793953 0.00027143  0.00000298  0.0003733 0.0000

  HOMO= 109 E= -4.989 eV LUMO= -1.557 eV gap=   3.432 eV
  9  -1168.3060216907  -0.000000692451 0.00016338  0.00000150  0.0002579 0.0000

  HOMO= 109 E= -4.990 eV LUMO= -1.557 eV gap=   3.432 eV
 10  -1168.3060219553  -0.000000264605 0.00006337  0.00000068  0.0001010 0.0000

  HOMO= 109 E= -4.990 eV LUMO= -1.558 eV gap=   3.432 eV
 11  -1168.3060219838  -0.000000028512 0.00002455  0.00000026  0.0000274 0.0000

  HOMO= 109 E= -4.990 eV LUMO= -1.558 eV gap=   3.432 eV
 12  -1168.3060219575   0.000000026331 0.00001197  0.00000012  0.0000178 0.0000

  HOMO= 109 E= -4.990 eV LUMO= -1.557 eV gap=   3.432 eV
 13  -1168.3060219900  -0.000000032521 0.00000588  0.00000005  0.0000077 0.0000
                 **** Energy Check signals convergence ****

               *****************************************************
               *                     SUCCESS                       *
               *           SCF CONVERGED AFTER  14 CYCLES          *
               *****************************************************


----------------
TOTAL SCF ENERGY
----------------

Total Energy       :        -1168.30602199 Eh          -31791.22309 eV

Components:
Nuclear Repulsion  :         2801.07038784 Eh           76221.00025 eV
Electronic Energy  :        -3969.37640983 Eh         -108012.22335 eV
One Electron Energy:        -7148.25503386 Eh         -194513.90837 eV
Two Electron Energy:         3178.87862403 Eh           86501.68502 eV
CPCM Dielectric    :           -0.00932300 Eh              -0.25369 eV

Virial components:
Potential Energy   :        -2330.39535793 Eh          -63413.28156 eV
Kinetic Energy     :         1162.08933595 Eh           31622.05847 eV
Virial Ratio       :            2.00534958


DFT components:
N(Alpha)           :      110.000205668450 electrons
N(Beta)            :      110.000205668450 electrons
N(Total)           :      220.000411336900 electrons
E(X)               :     -169.583112012230 Eh       
E(C)               :       -7.444951323952 Eh       
E(XC)              :     -177.028063336182 Eh       
DFET-embed. en.    :        0.000000000000 Eh       
CPCM Solvation Model Properties:
Surface-charge          :           -0.04501020
Charge-correction       :           -0.00007040 Eh              -0.00192 eV
Free-energy (cav+disp)  :  This term is not implemented in the current solvation scheme

---------------
SCF CONVERGENCE
---------------

  Last Energy change         ...    3.0573e-09  Tolerance :   1.0000e-07
  Last MAX-Density change    ...    2.7474e-06  Tolerance :   1.0000e-05
  Last RMS-Density change    ...    2.5941e-08  Tolerance :   1.0000e-06
  Last DIIS Error            ...    3.6151e-06  Tolerance :   1.0000e-07

             **** THE GBW FILE WAS UPDATED (inpS.gbw) ****
             **** DENSITY inpS.scfp WAS UPDATED ****
             **** ENERGY FILE WAS UPDATED (inpS.en.tmp) ****
             **** THE GBW FILE WAS UPDATED (inpS.gbw) ****
             **** DENSITY inpS.scfp WAS UPDATED ****
----------------
ORBITAL ENERGIES
----------------

  NO   OCC          E(Eh)            E(eV) 
   0   2.0000     -18.903808      -514.3988 
   1   2.0000     -10.057238      -273.6714 
   2   2.0000     -10.016559      -272.5644 
   3   2.0000     -10.014709      -272.5141 
   4   2.0000     -10.012665      -272.4585 
   5   2.0000     -10.012344      -272.4497 
   6   2.0000     -10.011953      -272.4391 
   7   2.0000     -10.011935      -272.4386 
   8   2.0000     -10.011732      -272.4331 
   9   2.0000     -10.009969      -272.3851 
  10   2.0000     -10.009705      -272.3779 
  11   2.0000     -10.007937      -272.3298 
  12   2.0000     -10.007549      -272.3192 
  13   2.0000     -10.007457      -272.3168 
  14   2.0000     -10.006834      -272.2998 
  15   2.0000     -10.006384      -272.2875 
  16   2.0000     -10.005131      -272.2534 
  17   2.0000     -10.001126      -272.1445 
  18   2.0000     -10.001024      -272.1417 
  19   2.0000     -10.000834      -272.1365 
  20   2.0000     -10.000408      -272.1249 
  21   2.0000      -9.999763      -272.1074 
  22   2.0000      -9.998437      -272.0713 
  23   2.0000      -9.997914      -272.0571 
  24   2.0000      -9.996179      -272.0099 
  25   2.0000      -9.996020      -272.0055 
  26   2.0000      -9.995785      -271.9991 
  27   2.0000      -9.994474      -271.9635 
  28   2.0000      -9.994430      -271.9623 
  29   2.0000      -0.954483       -25.9728 
  30   2.0000      -0.808282       -21.9945 
  31   2.0000      -0.789540       -21.4845 
  32   2.0000      -0.769493       -20.9390 
  33   2.0000      -0.756590       -20.5879 
  34   2.0000      -0.734096       -19.9758 
  35   2.0000      -0.728240       -19.8164 
  36   2.0000      -0.708943       -19.2913 
  37   2.0000      -0.708683       -19.2842 
  38   2.0000      -0.692951       -18.8562 
  39   2.0000      -0.676848       -18.4180 
  40   2.0000      -0.660767       -17.9804 
  41   2.0000      -0.654308       -17.8046 
  42   2.0000      -0.636961       -17.3326 
  43   2.0000      -0.629513       -17.1299 
  44   2.0000      -0.625549       -17.0221 
  45   2.0000      -0.620023       -16.8717 
  46   2.0000      -0.591926       -16.1071 
  47   2.0000      -0.585980       -15.9453 
  48   2.0000      -0.562992       -15.3198 
  49   2.0000      -0.548056       -14.9134 
  50   2.0000      -0.542669       -14.7668 
  51   2.0000      -0.537430       -14.6242 
  52   2.0000      -0.527596       -14.3566 
  53   2.0000      -0.513067       -13.9613 
  54   2.0000      -0.488115       -13.2823 
  55   2.0000      -0.475961       -12.9516 
  56   2.0000      -0.472017       -12.8442 
  57   2.0000      -0.463607       -12.6154 
  58   2.0000      -0.451382       -12.2827 
  59   2.0000      -0.445276       -12.1166 
  60   2.0000      -0.437292       -11.8993 
  61   2.0000      -0.430807       -11.7229 
  62   2.0000      -0.417573       -11.3627 
  63   2.0000      -0.416984       -11.3467 
  64   2.0000      -0.408916       -11.1272 
  65   2.0000      -0.405211       -11.0264 
  66   2.0000      -0.404942       -11.0190 
  67   2.0000      -0.401200       -10.9172 
  68   2.0000      -0.398035       -10.8311 
  69   2.0000      -0.391597       -10.6559 
  70   2.0000      -0.388682       -10.5766 
  71   2.0000      -0.383183       -10.4269 
  72   2.0000      -0.378213       -10.2917 
  73   2.0000      -0.374254       -10.1840 
  74   2.0000      -0.372032       -10.1235 
  75   2.0000      -0.370013       -10.0686 
  76   2.0000      -0.359996        -9.7960 
  77   2.0000      -0.357960        -9.7406 
  78   2.0000      -0.356440        -9.6992 
  79   2.0000      -0.349048        -9.4981 
  80   2.0000      -0.347003        -9.4424 
  81   2.0000      -0.344299        -9.3688 
  82   2.0000      -0.342753        -9.3268 
  83   2.0000      -0.335793        -9.1374 
  84   2.0000      -0.328491        -8.9387 
  85   2.0000      -0.326206        -8.8765 
  86   2.0000      -0.323767        -8.8102 
  87   2.0000      -0.321460        -8.7474 
  88   2.0000      -0.319149        -8.6845 
  89   2.0000      -0.312997        -8.5171 
  90   2.0000      -0.310079        -8.4377 
  91   2.0000      -0.307484        -8.3671 
  92   2.0000      -0.304170        -8.2769 
  93   2.0000      -0.297319        -8.0905 
  94   2.0000      -0.290803        -7.9131 
  95   2.0000      -0.287954        -7.8356 
  96   2.0000      -0.286132        -7.7860 
  97   2.0000      -0.283991        -7.7278 
  98   2.0000      -0.282811        -7.6957 
  99   2.0000      -0.275790        -7.5046 
 100   2.0000      -0.275122        -7.4864 
 101   2.0000      -0.273672        -7.4470 
 102   2.0000      -0.270455        -7.3595 
 103   2.0000      -0.265191        -7.2162 
 104   2.0000      -0.260293        -7.0829 
 105   2.0000      -0.250966        -6.8291 
 106   2.0000      -0.230420        -6.2700 
 107   2.0000      -0.228664        -6.2223 
 108   2.0000      -0.211876        -5.7654 
 109   2.0000      -0.183366        -4.9896 
 110   0.0000      -0.057237        -1.5575 
 111   0.0000      -0.014207        -0.3866 
 112   0.0000      -0.003465        -0.0943 
 113   0.0000       0.028976         0.7885 
 114   0.0000       0.036673         0.9979 
 115   0.0000       0.040795         1.1101 
 116   0.0000       0.044001         1.1973 
 117   0.0000       0.049664         1.3514 
 118   0.0000       0.051524         1.4020 
 119   0.0000       0.056957         1.5499 
 120   0.0000       0.060424         1.6442 
 121   0.0000       0.066567         1.8114 
 122   0.0000       0.070824         1.9272 
 123   0.0000       0.072542         1.9740 
 124   0.0000       0.078795         2.1441 
 125   0.0000       0.082022         2.2319 
 126   0.0000       0.084765         2.3066 
 127   0.0000       0.086058         2.3418 
 128   0.0000       0.089482         2.4349 
 129   0.0000       0.093680         2.5492 
 130   0.0000       0.097871         2.6632 
 131   0.0000       0.102326         2.7844 
 132   0.0000       0.103820         2.8251 
 133   0.0000       0.106398         2.8952 
 134   0.0000       0.107619         2.9285 
 135   0.0000       0.108643         2.9563 
 136   0.0000       0.112121         3.0510 
 137   0.0000       0.116821         3.1788 
 138   0.0000       0.120246         3.2721 
 139   0.0000       0.125397         3.4122 
 140   0.0000       0.127307         3.4642 
 141   0.0000       0.128428         3.4947 
 142   0.0000       0.133510         3.6330 
 143   0.0000       0.136773         3.7218 
 144   0.0000       0.138793         3.7767 
 145   0.0000       0.139441         3.7944 
 146   0.0000       0.142603         3.8804 
 147   0.0000       0.144935         3.9439 
 148   0.0000       0.150768         4.1026 
 149   0.0000       0.154808         4.2125 
 150   0.0000       0.157367         4.2822 
 151   0.0000       0.161879         4.4049 
 152   0.0000       0.162414         4.4195 
 153   0.0000       0.165561         4.5051 
 154   0.0000       0.167430         4.5560 
 155   0.0000       0.172622         4.6973 
 156   0.0000       0.173960         4.7337 
 157   0.0000       0.176868         4.8128 
 158   0.0000       0.178372         4.8537 
 159   0.0000       0.188055         5.1172 
 160   0.0000       0.188573         5.1313 
 161   0.0000       0.190736         5.1902 
 162   0.0000       0.195916         5.3311 
 163   0.0000       0.200149         5.4463 
 164   0.0000       0.204285         5.5589 
 165   0.0000       0.204633         5.5684 
 166   0.0000       0.206973         5.6320 
 167   0.0000       0.211062         5.7433 
 168   0.0000       0.214204         5.8288 
 169   0.0000       0.216162         5.8821 
 170   0.0000       0.222259         6.0480 
 171   0.0000       0.225468         6.1353 
 172   0.0000       0.230494         6.2721 
 173   0.0000       0.231574         6.3014 
 174   0.0000       0.241928         6.5832 
 175   0.0000       0.249297         6.7837 
 176   0.0000       0.255726         6.9587 
 177   0.0000       0.260164         7.0794 
 178   0.0000       0.265183         7.2160 
 179   0.0000       0.269212         7.3256 
 180   0.0000       0.278474         7.5777 
 181   0.0000       0.285362         7.7651 
 182   0.0000       0.287271         7.8170 
 183   0.0000       0.297296         8.0898 
 184   0.0000       0.306005         8.3268 
 185   0.0000       0.326835         8.8936 
 186   0.0000       0.335902         9.1404 
 187   0.0000       0.344344         9.3701 
 188   0.0000       0.352445         9.5905 
 189   0.0000       0.354296         9.6409 
 190   0.0000       0.355536         9.6746 
 191   0.0000       0.362299         9.8586 
 192   0.0000       0.366127         9.9628 
 193   0.0000       0.370244        10.0749 
 194   0.0000       0.372914        10.1475 
 195   0.0000       0.382175        10.3995 
 196   0.0000       0.383960        10.4481 
 197   0.0000       0.386353        10.5132 
 198   0.0000       0.389547        10.6001 
 199   0.0000       0.398099        10.8328 
 200   0.0000       0.399993        10.8843 
 201   0.0000       0.404175        10.9982 
 202   0.0000       0.412813        11.2332 
 203   0.0000       0.413682        11.2569 
 204   0.0000       0.423527        11.5247 
 205   0.0000       0.428534        11.6610 
 206   0.0000       0.434686        11.8284 
 207   0.0000       0.443168        12.0592 
 208   0.0000       0.451929        12.2976 
 209   0.0000       0.455451        12.3934 
 210   0.0000       0.461206        12.5501 
 211   0.0000       0.465025        12.6540 
 212   0.0000       0.467777        12.7289 
 213   0.0000       0.474831        12.9208 
 214   0.0000       0.478074        13.0091 
 215   0.0000       0.482309        13.1243 
 216   0.0000       0.484296        13.1784 
 217   0.0000       0.491875        13.3846 
 218   0.0000       0.495950        13.4955 
 219   0.0000       0.499447        13.5906 
 220   0.0000       0.503831        13.7099 
 221   0.0000       0.510517        13.8919 
 222   0.0000       0.512775        13.9533 
 223   0.0000       0.518064        14.0972 
 224   0.0000       0.525252        14.2928 
 225   0.0000       0.528466        14.3803 
 226   0.0000       0.539253        14.6738 
 227   0.0000       0.539843        14.6899 
 228   0.0000       0.540753        14.7146 
 229   0.0000       0.543439        14.7877 
 230   0.0000       0.546005        14.8575 
 231   0.0000       0.554836        15.0979 
 232   0.0000       0.558110        15.1869 
 233   0.0000       0.560082        15.2406 
 234   0.0000       0.566386        15.4121 
 235   0.0000       0.568655        15.4739 
 236   0.0000       0.572364        15.5748 
 237   0.0000       0.573107        15.5950 
 238   0.0000       0.576641        15.6912 
 239   0.0000       0.580249        15.7894 
 240   0.0000       0.581652        15.8276 
 241   0.0000       0.584590        15.9075 
 242   0.0000       0.588055        16.0018 
 243   0.0000       0.594994        16.1906 
 244   0.0000       0.596219        16.2239 
 245   0.0000       0.597529        16.2596 
 246   0.0000       0.598825        16.2949 
 247   0.0000       0.600238        16.3333 
 248   0.0000       0.603477        16.4214 
 249   0.0000       0.605560        16.4781 
 250   0.0000       0.605874        16.4867 
 251   0.0000       0.608614        16.5612 
 252   0.0000       0.610339        16.6082 
 253   0.0000       0.611642        16.6436 
 254   0.0000       0.616474        16.7751 
 255   0.0000       0.617611        16.8060 
 256   0.0000       0.620872        16.8948 
 257   0.0000       0.623980        16.9794 
 258   0.0000       0.628639        17.1061 
 259   0.0000       0.631060        17.1720 
 260   0.0000       0.633430        17.2365 
 261   0.0000       0.638313        17.3694 
 262   0.0000       0.642283        17.4774 
 263   0.0000       0.645705        17.5705 
 264   0.0000       0.649245        17.6669 
 265   0.0000       0.650705        17.7066 
 266   0.0000       0.653247        17.7758 
 267   0.0000       0.654483        17.8094 
 268   0.0000       0.658525        17.9194 
 269   0.0000       0.659978        17.9589 
 270   0.0000       0.666929        18.1481 
 271   0.0000       0.667944        18.1757 
 272   0.0000       0.670280        18.2393 
 273   0.0000       0.674248        18.3472 
 274   0.0000       0.675708        18.3869 
 275   0.0000       0.679943        18.5022 
 276   0.0000       0.683380        18.5957 
 277   0.0000       0.687071        18.6961 
 278   0.0000       0.689941        18.7742 
 279   0.0000       0.695049        18.9132 
 280   0.0000       0.695405        18.9229 
 281   0.0000       0.698667        19.0117 
 282   0.0000       0.707873        19.2622 
 283   0.0000       0.707988        19.2653 
 284   0.0000       0.714400        19.4398 
 285   0.0000       0.721329        19.6284 
 286   0.0000       0.724668        19.7192 
 287   0.0000       0.728087        19.8123 
 288   0.0000       0.734328        19.9821 
 289   0.0000       0.737664        20.0729 
 290   0.0000       0.742629        20.2080 
 291   0.0000       0.746916        20.3246 
 292   0.0000       0.750885        20.4326 
 293   0.0000       0.756895        20.5962 
 294   0.0000       0.759296        20.6615 
 295   0.0000       0.768325        20.9072 
 296   0.0000       0.779650        21.2154 
 297   0.0000       0.783841        21.3294 
 298   0.0000       0.788146        21.4465 
 299   0.0000       0.793506        21.5924 
 300   0.0000       0.802037        21.8245 
 301   0.0000       0.804162        21.8824 
 302   0.0000       0.813703        22.1420 
 303   0.0000       0.831953        22.6386 
 304   0.0000       0.846183        23.0258 
 305   0.0000       0.862809        23.4782 
 306   0.0000       0.869825        23.6692 
 307   0.0000       0.888124        24.1671 
 308   0.0000       0.894842        24.3499 
 309   0.0000       0.906219        24.6595 
 310   0.0000       0.926165        25.2022 
 311   0.0000       0.936101        25.4726 
 312   0.0000       0.949734        25.8436 
 313   0.0000       0.967531        26.3279 
 314   0.0000       0.981206        26.7000 
 315   0.0000       0.989994        26.9391 
 316   0.0000       0.998066        27.1588 
 317   0.0000       1.017115        27.6771 
 318   0.0000       1.026473        27.9318 
 319   0.0000       1.030077        28.0298 
 320   0.0000       1.043930        28.4068 
 321   0.0000       1.054242        28.6874 
 322   0.0000       1.063592        28.9418 
 323   0.0000       1.090447        29.6726 
 324   0.0000       1.099939        29.9309 
 325   0.0000       1.110597        30.2209 
 326   0.0000       1.133279        30.8381 
 327   0.0000       1.151930        31.3456 
 328   0.0000       1.162095        31.6222 
 329   0.0000       1.176380        32.0109 
 330   0.0000       1.201735        32.7009 
 331   0.0000       1.203629        32.7524 
 332   0.0000       1.234962        33.6050 
 333   0.0000       1.250038        34.0153 
 334   0.0000       1.260138        34.2901 
 335   0.0000       1.267858        34.5002 
 336   0.0000       1.278957        34.8022 
 337   0.0000       1.285877        34.9905 
 338   0.0000       1.294527        35.2259 
 339   0.0000       1.311956        35.7001 
 340   0.0000       1.325938        36.0806 
 341   0.0000       1.337132        36.3852 
 342   0.0000       1.342582        36.5335 
 343   0.0000       1.353052        36.8184 
 344   0.0000       1.363204        37.0947 
 345   0.0000       1.369753        37.2729 
 346   0.0000       1.377344        37.4794 
 347   0.0000       1.387309        37.7506 
 348   0.0000       1.400626        38.1130 
 349   0.0000       1.413959        38.4758 
 350   0.0000       1.416637        38.5486 
 351   0.0000       1.435082        39.0506 
 352   0.0000       1.441830        39.2342 
 353   0.0000       1.450606        39.4730 
 354   0.0000       1.459509        39.7153 
 355   0.0000       1.472467        40.0679 
 356   0.0000       1.487286        40.4711 
 357   0.0000       1.496792        40.7298 
 358   0.0000       1.503192        40.9039 
 359   0.0000       1.508963        41.0610 
 360   0.0000       1.519971        41.3605 
 361   0.0000       1.522296        41.4238 
 362   0.0000       1.539008        41.8785 
 363   0.0000       1.549395        42.1612 
 364   0.0000       1.558526        42.4096 
 365   0.0000       1.561959        42.5031 
 366   0.0000       1.577794        42.9340 
 367   0.0000       1.587937        43.2100 
 368   0.0000       1.593202        43.3532 
 369   0.0000       1.603532        43.6343 
 370   0.0000       1.611648        43.8552 
 371   0.0000       1.621849        44.1328 
 372   0.0000       1.628260        44.3072 
 373   0.0000       1.635304        44.4989 
 374   0.0000       1.643302        44.7165 
 375   0.0000       1.657100        45.0920 
 376   0.0000       1.666402        45.3451 
 377   0.0000       1.670799        45.4647 
 378   0.0000       1.681207        45.7480 
 379   0.0000       1.684902        45.8485 
 380   0.0000       1.689656        45.9779 
 381   0.0000       1.692525        46.0559 
 382   0.0000       1.694085        46.0984 
 383   0.0000       1.703792        46.3625 
 384   0.0000       1.710764        46.5523 
 385   0.0000       1.713831        46.6357 
 386   0.0000       1.715523        46.6818 
 387   0.0000       1.726162        46.9712 
 388   0.0000       1.729575        47.0641 
 389   0.0000       1.732653        47.1479 
 390   0.0000       1.735681        47.2303 
 391   0.0000       1.746183        47.5161 
 392   0.0000       1.752680        47.6928 
 393   0.0000       1.757868        47.8340 
 394   0.0000       1.768845        48.1327 
 395   0.0000       1.772728        48.2384 
 396   0.0000       1.779328        48.4180 
 397   0.0000       1.784855        48.5684 
 398   0.0000       1.789171        48.6858 
 399   0.0000       1.793798        48.8117 
 400   0.0000       1.803691        49.0809 
 401   0.0000       1.807215        49.1768 
 402   0.0000       1.813104        49.3371 
 403   0.0000       1.815653        49.4064 
 404   0.0000       1.820370        49.5348 
 405   0.0000       1.825405        49.6718 
 406   0.0000       1.834923        49.9308 
 407   0.0000       1.844742        50.1980 
 408   0.0000       1.851481        50.3814 
 409   0.0000       1.861041        50.6415 
 410   0.0000       1.867857        50.8270 
 411   0.0000       1.871213        50.9183 
 412   0.0000       1.882549        51.2268 
 413   0.0000       1.885906        51.3181 
 414   0.0000       1.888411        51.3863 
 415   0.0000       1.894163        51.5428 
 416   0.0000       1.901542        51.7436 
 417   0.0000       1.905037        51.8387 
 418   0.0000       1.915309        52.1182 
 419   0.0000       1.922862        52.3237 
 420   0.0000       1.926173        52.4138 
 421   0.0000       1.934059        52.6284 
 422   0.0000       1.944504        52.9127 
 423   0.0000       1.949979        53.0616 
 424   0.0000       1.951224        53.0955 
 425   0.0000       1.965239        53.4769 
 426   0.0000       1.965399        53.4812 
 427   0.0000       1.970760        53.6271 
 428   0.0000       1.973790        53.7095 
 429   0.0000       1.978262        53.8312 
 430   0.0000       1.983068        53.9620 
 431   0.0000       1.985870        54.0383 
 432   0.0000       1.989293        54.1314 
 433   0.0000       1.995502        54.3004 
 434   0.0000       2.002291        54.4851 
 435   0.0000       2.004909        54.5563 
 436   0.0000       2.008250        54.6473 
 437   0.0000       2.013077        54.7786 
 438   0.0000       2.014752        54.8242 
 439   0.0000       2.023821        55.0710 
 440   0.0000       2.026124        55.1337 
 441   0.0000       2.030134        55.2428 
 442   0.0000       2.036017        55.4028 
 443   0.0000       2.044716        55.6396 
[...]

 --------------
 Nucleus  47H :
 --------------

Diamagnetic contribution to the shielding tensor (ppm) : 
            32.834         -2.240        -5.597
            -2.122         32.623         5.686
            -6.630          5.270        49.150

Paramagnetic contribution to the shielding tensor (ppm): 
            -1.621          0.421         3.449
             0.157         -5.360        -3.528
             3.832         -2.309       -13.825

Total shielding tensor (ppm): 
            31.212         -1.819        -2.147
            -1.965         27.263         2.158
            -2.798          2.961        35.325


 Diagonalized sT*s matrix:
 
 sDSO            30.791           31.346           52.469  iso=      38.202
 sPSO            -4.578           -1.205          -15.023  iso=      -6.935
        ---------------  ---------------  ---------------
 Total           26.213           30.142           37.445  iso=      31.267

 --------------
 Nucleus  48H :
 --------------

Diamagnetic contribution to the shielding tensor (ppm) : 
            35.953          0.052        -2.800
             1.454         30.223        -8.052
            -6.161         -8.415        47.530

Paramagnetic contribution to the shielding tensor (ppm): 
            -5.244          0.847         2.978
            -1.224         -1.874         5.912
             7.457          5.931       -17.248

Total shielding tensor (ppm): 
            30.709          0.899         0.178
             0.230         28.349        -2.140
             1.296         -2.484        30.282


 Diagonalized sT*s matrix:
 
 sDSO            29.254           37.719           46.732  iso=      37.902
 sPSO            -2.634           -6.907          -14.825  iso=      -8.122
        ---------------  ---------------  ---------------
 Total           26.620           30.812           31.908  iso=      29.780

 --------------
 Nucleus  52H :
 --------------

Diamagnetic contribution to the shielding tensor (ppm) : 
            39.586          0.731         0.174
             4.430         44.602         0.201
             5.418          1.597        24.433

Paramagnetic contribution to the shielding tensor (ppm): 
            -6.246          1.755         3.202
            -0.362        -22.579         1.216
            -1.932         -0.786        -2.479

Total shielding tensor (ppm): 
            33.340          2.486         3.376
             4.069         22.023         1.417
             3.486          0.811        21.954


 Diagonalized sT*s matrix:
 
 sDSO            30.054           37.101           41.467  iso=      36.207
 sPSO            -9.192          -15.842           -6.269  iso=     -10.435
        ---------------  ---------------  ---------------
 Total           20.862           21.258           35.197  iso=      25.772

 --------------
 Nucleus  53H :
 --------------

Diamagnetic contribution to the shielding tensor (ppm) : 
            38.037         -5.140        -1.225
            -3.869         45.342        -2.422
            -2.167         -3.262        34.153

Paramagnetic contribution to the shielding tensor (ppm): 
            -7.420          4.885         5.244
             4.661        -21.462         4.114
             6.453          4.636        -8.739

Total shielding tensor (ppm): 
            30.617         -0.256         4.019
             0.791         23.879         1.693
             4.286          1.374        25.414


 Diagonalized sT*s matrix:
 
 sDSO            40.114           42.734           34.683  iso=      39.177
 sPSO           -17.919          -18.040           -1.663  iso=     -12.541
        ---------------  ---------------  ---------------
 Total           22.195           24.694           33.021  iso=      26.637

 --------------
 Nucleus  57H :
 --------------

Diamagnetic contribution to the shielding tensor (ppm) : 
            41.711         -3.183        -3.353
            -6.666         20.179         3.930
            -5.297          7.221        21.006

Paramagnetic contribution to the shielding tensor (ppm): 
            -9.369          1.559         0.448
             5.227          8.040        -2.756
             1.556         -6.705         7.172

Total shielding tensor (ppm): 
            32.342         -1.624        -2.905
            -1.439         28.219         1.174
            -3.741          0.516        28.179


 Diagonalized sT*s matrix:
 
 sDSO            22.086           18.088           42.723  iso=      27.632
 sPSO             4.254            9.655           -8.066  iso=       1.948
        ---------------  ---------------  ---------------
 Total           26.340           27.744           34.656  iso=      29.580

 --------------
 Nucleus  58H :
 --------------

Diamagnetic contribution to the shielding tensor (ppm) : 
            40.544          4.086         7.350
             5.345         15.149         5.256
             6.825          5.571        21.771

Paramagnetic contribution to the shielding tensor (ppm): 
            -6.247         -2.170        -3.866
            -3.284         13.396        -4.978
            -3.376         -5.772         6.076

Total shielding tensor (ppm): 
            34.297          1.917         3.483
             2.061         28.545         0.277
             3.449         -0.201        27.848


 Diagonalized sT*s matrix:
 
 sDSO            21.075           12.171           44.219  iso=      25.821
 sPSO             4.993           16.202           -7.970  iso=       4.408
        ---------------  ---------------  ---------------
 Total           26.068           28.373           36.249  iso=      30.230

 --------------
 Nucleus  61H :
 --------------

Diamagnetic contribution to the shielding tensor (ppm) : 
            34.396          0.215        -6.714
            -6.675         24.846        -3.244
             1.698         -5.359        36.826

Paramagnetic contribution to the shielding tensor (ppm): 
            -3.947         -0.596         4.310
             6.617          4.554         0.985
            -3.894          3.640        -4.313

Total shielding tensor (ppm): 
            30.449         -0.381        -2.404
            -0.058         29.400        -2.259
            -2.196         -1.719        32.513


 Diagonalized sT*s matrix:
 
 sDSO            23.869           33.768           38.430  iso=      32.023
 sPSO             3.854           -3.630           -3.929  iso=      -1.235
        ---------------  ---------------  ---------------
 Total           27.723           30.138           34.501  iso=      30.787

 --------------
 Nucleus  62H :
 --------------

Diamagnetic contribution to the shielding tensor (ppm) : 
            34.761         -0.894        10.424
            -3.884         13.096         1.340
            13.058          3.188        25.054

Paramagnetic contribution to the shielding tensor (ppm): 
            -1.700          0.715        -4.952
             3.245         15.175        -2.573
            -6.808         -3.568         6.102

Total shielding tensor (ppm): 
            33.061         -0.179         5.472
            -0.639         28.271        -1.234
             6.250         -0.380        31.156


 Diagonalized sT*s matrix:
 
 sDSO            18.412           12.325           42.173  iso=      24.303
 sPSO             7.701           15.933           -4.057  iso=       6.526
        ---------------  ---------------  ---------------
 Total           26.113           28.258           38.116  iso=      30.829

 --------------
 Nucleus  63H :
 --------------

Diamagnetic contribution to the shielding tensor (ppm) : 
            26.056         -5.789         1.413
           -13.421         34.973        -9.561
             7.541          1.110        20.392

Paramagnetic contribution to the shielding tensor (ppm): 
             1.782          3.651         0.091
            10.801          0.877         9.177
            -5.860         -2.713         7.442

Total shielding tensor (ppm): 
            27.837         -2.138         1.504
            -2.620         35.850        -0.384
             1.681         -1.603        27.834


 Diagonalized sT*s matrix:
 
 sDSO            18.377           22.370           40.674  iso=      27.140
 sPSO             7.748            6.307           -3.954  iso=       3.367
        ---------------  ---------------  ---------------
 Total           26.125           28.676           36.720  iso=      30.507

 --------------
 Nucleus  64H :
 --------------

Diamagnetic contribution to the shielding tensor (ppm) : 
            27.444          0.370        -1.150
             3.641         30.140         3.344
             4.279         -5.215        39.867

Paramagnetic contribution to the shielding tensor (ppm): 
            -0.486         -1.144        -0.322
            -4.938         -1.094        -3.923
            -4.884          3.738        -4.153

Total shielding tensor (ppm): 
            26.958         -0.773        -1.472
            -1.297         29.045        -0.579
            -0.605         -1.477        35.713


 Diagonalized sT*s matrix:
 
 sDSO            29.887           27.964           39.599  iso=      32.483
 sPSO            -3.552            1.464           -3.645  iso=      -1.911
        ---------------  ---------------  ---------------
 Total           26.335           29.428           35.954  iso=      30.572

 --------------
 Nucleus  65H :
 --------------

Diamagnetic contribution to the shielding tensor (ppm) : 
            41.999         -1.042        -0.372
             3.703         33.660         7.700
            10.064          9.517        33.219

Paramagnetic contribution to the shielding tensor (ppm): 
            -4.718          1.551         3.087
            -2.887         -6.808        -5.287
            -8.143         -5.878        -5.635

Total shielding tensor (ppm): 
            37.282          0.508         2.715
             0.816         26.852         2.413
             1.920          3.639        27.584


 Diagonalized sT*s matrix:
 
 sDSO            24.555           39.787           44.537  iso=      36.293
 sPSO            -0.471          -10.126           -6.564  iso=      -5.720
        ---------------  ---------------  ---------------
 Total           24.083           29.661           37.973  iso=      30.573

 --------------
 Nucleus  66H :
 --------------

Diamagnetic contribution to the shielding tensor (ppm) : 
            24.733         -0.148        -0.420
             7.200         42.609         5.786
             8.362          6.936        27.672

Paramagnetic contribution to the shielding tensor (ppm): 
             3.225          0.316         0.056
            -6.653         -6.962        -1.930
            -8.849         -2.236         1.778

Total shielding tensor (ppm): 
            27.959          0.168        -0.364
             0.547         35.646         3.856
            -0.487          4.700        29.451


 Diagonalized sT*s matrix:
 
 sDSO            27.033           23.136           44.845  iso=      31.671
 sPSO            -0.063            5.119           -7.014  iso=      -0.653
        ---------------  ---------------  ---------------
 Total           26.970           28.254           37.831  iso=      31.019

 --------------
 Nucleus  67H :
 --------------

Diamagnetic contribution to the shielding tensor (ppm) : 
            34.235          0.206        -7.534
             5.024         21.905         3.716
           -12.898          2.685        26.950

Paramagnetic contribution to the shielding tensor (ppm): 
            -2.526          0.321         2.835
            -4.207          6.388        -4.981
             7.272         -3.106         5.448

Total shielding tensor (ppm): 
            31.709          0.528        -4.699
             0.817         28.293        -1.265
            -5.625         -0.421        32.399


 Diagonalized sT*s matrix:
 
 sDSO            21.111           21.737           40.243  iso=      27.697
 sPSO             5.764            6.435           -2.889  iso=       3.103
        ---------------  ---------------  ---------------
 Total           26.875           28.172           37.354  iso=      30.800

 --------------
 Nucleus  68H :
 --------------

Diamagnetic contribution to the shielding tensor (ppm) : 
            27.688          4.889         1.136
            12.091         38.143        -0.414
            -5.994          1.309        17.203

Paramagnetic contribution to the shielding tensor (ppm): 
             0.149         -1.550        -1.698
            -8.734         -1.704        -0.247
             5.596         -3.211        10.549

Total shielding tensor (ppm): 
            27.837          3.340        -0.563
             3.357         36.440        -0.661
            -0.397         -1.902        27.753


 Diagonalized sT*s matrix:
 
 sDSO            23.420           17.671           41.944  iso=      27.678
 sPSO             3.266            9.897           -4.169  iso=       2.998
        ---------------  ---------------  ---------------
 Total           26.686           27.568           37.775  iso=      30.676

 --------------
 Nucleus  69H :
 --------------

Diamagnetic contribution to the shielding tensor (ppm) : 
            37.850          1.552         5.221
             7.654         32.498        -3.720
            -2.763         -8.735        26.633

Paramagnetic contribution to the shielding tensor (ppm): 
            -5.390          0.700        -1.756
            -6.438         -3.464         1.648
             6.717          5.830         2.772

Total shielding tensor (ppm): 
            32.460          2.252         3.466
             1.216         29.034        -2.072
             3.954         -2.905        29.406


 Diagonalized sT*s matrix:
 
 sDSO            22.881           38.499           35.602  iso=      32.327
 sPSO             1.886           -7.311           -0.656  iso=      -2.027
        ---------------  ---------------  ---------------
 Total           24.767           31.188           34.945  iso=      30.300

 --------------
 Nucleus  70H :
 --------------

Diamagnetic contribution to the shielding tensor (ppm) : 
            31.090          1.694         4.569
            -3.556         34.984         8.782
            -1.566          6.242        41.930

Paramagnetic contribution to the shielding tensor (ppm): 
             1.934         -1.395        -3.460
             4.248         -5.949        -3.858
             2.972         -1.512       -12.994

Total shielding tensor (ppm): 
            33.024          0.299         1.109
             0.692         29.035         4.924
             1.406          4.730        28.935


 Diagonalized sT*s matrix:
 
 sDSO            30.812           35.933           41.259  iso=      36.001
 sPSO            -6.688           -3.789           -6.532  iso=      -5.670
        ---------------  ---------------  ---------------
 Total           24.124           32.144           34.726  iso=      30.331

 --------------
 Nucleus  71H :
 --------------

Diamagnetic contribution to the shielding tensor (ppm) : 
            27.704         -5.395        -1.811
            -6.841         39.776        -3.593
            -0.424         -9.519        40.984

Paramagnetic contribution to the shielding tensor (ppm): 
             3.301          4.344         2.833
             5.373         -5.997         0.754
             1.035          6.693       -12.731

Total shielding tensor (ppm): 
            31.006         -1.050         1.022
            -1.468         33.779        -2.840
             0.611         -2.825        28.253


 Diagonalized sT*s matrix:
 
 sDSO            36.701           25.604           46.159  iso=      36.155
 sPSO            -9.661            4.930          -10.696  iso=      -5.142
        ---------------  ---------------  ---------------
 Total           27.040           30.534           35.463  iso=      31.012

 --------------
 Nucleus  72H :
 --------------

Diamagnetic contribution to the shielding tensor (ppm) : 
            36.002         -7.808        -9.483
            -6.007         23.397         3.392
           -16.363          1.294        36.387

Paramagnetic contribution to the shielding tensor (ppm): 
            -1.550          6.274         5.731
             4.178          4.390        -0.495
            12.175          2.438        -6.434

Total shielding tensor (ppm): 
            34.452         -1.534        -3.752
            -1.829         27.787         2.897
            -4.188          3.732        29.953


 Diagonalized sT*s matrix:
 
 sDSO            25.975           19.989           49.822  iso=      31.928
 sPSO            -0.731            9.179          -12.041  iso=      -1.198
        ---------------  ---------------  ---------------
 Total           25.244           29.167           37.781  iso=      30.731



--------------------------------
CHEMICAL SHIELDING SUMMARY (ppm)
--------------------------------


  Nucleus  Element    Isotropic     Anisotropy
  -------  -------  ------------   ------------
      3       H           29.366          6.445 
      4       H           29.046          7.410 
      8       H           29.564          7.949 
      9       H           29.333          5.451 
     10       H           30.100          8.319 
     11       H           29.855         10.234 
     13       H           27.735          7.767 
     16       H           26.779          4.646 
     17       H           26.499          4.795 
     19       H           25.403         10.439 
     21       H           25.583         14.623 
     24       H           28.907         10.138 
     25       H           30.051          9.493 
     27       H           30.244          7.034 
     28       H           30.112         11.841 
     30       H           29.736          8.337 
     31       H           30.474          6.838 
     33       H           29.822          4.245 
     35       H           30.163         14.671 
     37       H           30.330         10.571 
     38       H           30.175          9.963 
     40       H           29.843         10.752 
     41       H           30.251          8.187 
     42       H           30.772          5.194 
     45       H           31.228          7.307 
     46       H           31.005          8.103 
     47       H           31.267          9.268 
     48       H           29.780          3.192 
     52       H           25.772         14.137 
     53       H           26.637          9.576 
     57       H           29.580          7.615 
     58       H           30.230          9.028 
     61       H           30.787          5.570 
     62       H           30.829         10.931 
     63       H           30.507          9.320 
     64       H           30.572          8.073 
     65       H           30.573         11.101 
     66       H           31.019         10.219 
     67       H           30.800          9.831 
     68       H           30.676         10.648 
     69       H           30.300          6.968 
     70       H           30.331          6.592 
     71       H           31.012          6.676 
     72       H           30.731         10.575 



Maximum memory used throughout the entire EPRNMR-calculation: 141.4 MB

Timings for individual modules:

Sum of individual times         ...      143.766 sec (=   2.396 min)
GTO integral calculation        ...        0.776 sec (=   0.013 min)   0.5 %
SCF iterations                  ...       95.509 sec (=   1.592 min)  66.4 %
EPR/NMR calculation             ...       47.482 sec (=   0.791 min)  33.0 %
                             ****ORCA TERMINATED NORMALLY****
TOTAL RUN TIME: 0 days 0 hours 2 minutes 24 seconds 312 msec
