
                                 *****************
                                 * O   R   C   A *
                                 *****************

                                            #,                                       
                                            ###                                      
                                            ####                                     
                                            #####                                    
                                            ######                                   
                                           ########,                                 
                                     ,,################,,,,,                         
                               ,,#################################,,                 
                          ,,##########################################,,             
                       ,#########################################, ''#####,          
                    ,#############################################,,   '####,        
                  ,##################################################,,,,####,       
                ,###########''''           ''''###############################       
              ,#####''   ,,,,##########,,,,          '''####'''          '####       
            ,##' ,,,,###########################,,,                        '##       
           ' ,,###''''                  '''############,,,                           
         ,,##''                                '''############,,,,        ,,,,,,###''
      ,#''                                            '''#######################'''  
     '                                                          ''''####''''         
             ,#######,   #######,   ,#######,      ##                                
            ,#'     '#,  ##    ##  ,#'     '#,    #''#        ######   ,####,        
            ##       ##  ##   ,#'  ##            #'  '#       #        #'  '#        
            ##       ##  #######   ##           ,######,      #####,   #    #        
            '#,     ,#'  ##    ##  '#,     ,#' ,#      #,         ##   #,  ,#        
             '#######'   ##     ##  '#######'  #'      '#     #####' # '####'        



                  #######################################################
                  #                        -***-                        #
                  #          Department of theory and spectroscopy      #
                  #    Directorship and core code : Frank Neese         #
                  #        Max Planck Institute fuer Kohlenforschung    #
                  #                Kaiser Wilhelm Platz 1               #
                  #                 D-45470 Muelheim/Ruhr               #
                  #                      Germany                        #
                  #                                                     #
                  #                  All rights reserved                #
                  #                        -***-                        #
                  #######################################################


                         Program Version 5.0.2 -  RELEASE  -


 With contributions from (in alphabetic order):
   Daniel Aravena         : Magnetic Suceptibility
   Michael Atanasov       : Ab Initio Ligand Field Theory (pilot matlab implementation)
   Alexander A. Auer      : GIAO ZORA, VPT2 properties, NMR spectrum
   Ute Becker             : Parallelization
   Giovanni Bistoni       : ED, misc. LED, open-shell LED, HFLD
   Martin Brehm           : Molecular dynamics
   Dmytro Bykov           : SCF Hessian
   Vijay G. Chilkuri      : MRCI spin determinant printing, contributions to CSF-ICE
   Dipayan Datta          : RHF DLPNO-CCSD density
   Achintya Kumar Dutta   : EOM-CC, STEOM-CC
   Dmitry Ganyushin       : Spin-Orbit,Spin-Spin,Magnetic field MRCI
   Miquel Garcia          : C-PCM and meta-GGA Hessian, CC/C-PCM, Gaussian charge scheme
   Yang Guo               : DLPNO-NEVPT2, F12-NEVPT2, CIM, IAO-localization
   Andreas Hansen         : Spin unrestricted coupled pair/coupled cluster methods
   Benjamin Helmich-Paris : MC-RPA, TRAH-SCF, COSX integrals
   Lee Huntington         : MR-EOM, pCC
   Robert Izsak           : Overlap fitted RIJCOSX, COSX-SCS-MP3, EOM
   Marcus Kettner         : VPT2
   Christian Kollmar      : KDIIS, OOCD, Brueckner-CCSD(T), CCSD density, CASPT2, CASPT2-K
   Simone Kossmann        : Meta GGA functionals, TD-DFT gradient, OOMP2, MP2 Hessian
   Martin Krupicka        : Initial AUTO-CI
   Lucas Lang             : DCDCAS
   Marvin Lechner         : AUTO-CI (C++ implementation), FIC-MRCC
   Dagmar Lenk            : GEPOL surface, SMD
   Dimitrios Liakos       : Extrapolation schemes; Compound Job, initial MDCI parallelization
   Dimitrios Manganas     : Further ROCIS development; embedding schemes
   Dimitrios Pantazis     : SARC Basis sets
   Anastasios Papadopoulos: AUTO-CI, single reference methods and gradients
   Taras Petrenko         : DFT Hessian,TD-DFT gradient, ASA, ECA, R-Raman, ABS, FL, XAS/XES, NRVS
   Peter Pinski           : DLPNO-MP2, DLPNO-MP2 Gradient
   Christoph Reimann      : Effective Core Potentials
   Marius Retegan         : Local ZFS, SOC
   Christoph Riplinger    : Optimizer, TS searches, QM/MM, DLPNO-CCSD(T), (RO)-DLPNO pert. Triples
   Tobias Risthaus        : Range-separated hybrids, TD-DFT gradient, RPA, STAB
   Michael Roemelt        : Original ROCIS implementation
   Masaaki Saitow         : Open-shell DLPNO-CCSD energy and density
   Barbara Sandhoefer     : DKH picture change effects
   Avijit Sen             : IP-ROCIS
   Kantharuban Sivalingam : CASSCF convergence, NEVPT2, FIC-MRCI
   Bernardo de Souza      : ESD, SOC TD-DFT
   Georgi Stoychev        : AutoAux, RI-MP2 NMR, DLPNO-MP2 response
   Willem Van den Heuvel  : Paramagnetic NMR
   Boris Wezisla          : Elementary symmetry handling
   Frank Wennmohs         : Technical directorship


 We gratefully acknowledge several colleagues who have allowed us to
 interface, adapt or use parts of their codes:
   Stefan Grimme, W. Hujo, H. Kruse, P. Pracht,  : VdW corrections, initial TS optimization,
                  C. Bannwarth, S. Ehlert          DFT functionals, gCP, sTDA/sTD-DF
   Ed Valeev, F. Pavosevic, A. Kumar             : LibInt (2-el integral package), F12 methods
   Garnet Chan, S. Sharma, J. Yang, R. Olivares  : DMRG
   Ulf Ekstrom                                   : XCFun DFT Library
   Mihaly Kallay                                 : mrcc  (arbitrary order and MRCC methods)
   Jiri Pittner, Ondrej Demel                    : Mk-CCSD
   Frank Weinhold                                : gennbo (NPA and NBO analysis)
   Christopher J. Cramer and Donald G. Truhlar   : smd solvation model
   Lars Goerigk                                  : TD-DFT with DH, B97 family of functionals
   V. Asgeirsson, H. Jonsson                     : NEB implementation
   FAccTs GmbH                                   : IRC, NEB, NEB-TS, DLPNO-Multilevel, CI-OPT
                                                   MM, QMMM, 2- and 3-layer-ONIOM, Crystal-QMMM,
                                                   LR-CPCM, SF, NACMEs, symmetry and pop. for TD-DFT,
                                                   nearIR, NL-DFT gradient (VV10), updates on ESD,
                                                   ML-optimized integration grids
   S Lehtola, MJT Oliveira, MAL Marques          : LibXC Library
   Liviu Ungur et al                             : ANISO software


 Your calculation uses the libint2 library for the computation of 2-el integrals
 For citations please refer to: http://libint.valeyev.net

 Your ORCA version has been built with support for libXC version: 5.1.0
 For citations please refer to: https://tddft.org/programs/libxc/

 This ORCA versions uses:
   CBLAS   interface :  Fast vector & matrix operations
   LAPACKE interface :  Fast linear algebra routines
   SCALAPACK package :  Parallel linear algebra routines
   Shared memory     :  Shared parallel matrices
   BLAS/LAPACK       :  OpenBLAS 0.3.15  USE64BITINT DYNAMIC_ARCH NO_AFFINITY Zen SINGLE_THREADED
        Core in use  :  Zen
   Copyright (c) 2011-2014, The OpenBLAS Project


Your calculation utilizes the atom-pairwise dispersion correction
based on tight binding partial charges (D4)
Cite in your paper:
E.Caldeweyher, C.Bannwarth, S.Grimme, J.Chem.Phys., (2017), 147, 034112.
E.Caldeweyher, S.Ehlert, A.Hansen, H.Neugebauer, S.Grimme, J.Chem.Phys., (2018), in progress.
   

================================================================================

----- Orbital basis set information -----
Your calculation utilizes the basis: pcSseg-1
   F. Jensen, J. Chem. Theory Comput. 11, 132 (2015).

----- AuxJ basis set information -----
Your calculation utilizes the auxiliary basis: def2/J
   F. Weigend, Phys. Chem. Chem. Phys. 8, 1057 (2006).

================================================================================
                                        WARNINGS
                       Please study these warnings very carefully!
================================================================================



WARNING: Found flag for RIJCOSX approximation but no HF exchange needed!
  ===> : RIJCOSX  will be disabled and Split-RI-J is turned on

INFO   : the flag for use of the SHARK integral package has been found!

================================================================================
                                       INPUT FILE
================================================================================
NAME = inpS
|  1> ! revTPSS
|  2> ! D4
|  3> ! pcSseg-1
|  4> ! def2/J RIJCOSX
|  5> ! DEFGRID2
|  6> ! scfconv7
|  7> ! smallprint printgap noloewdin
|  8> ! NOSOSCF
|  9> %MaxCore 4000
| 10> %output
| 11>        print[P_BondOrder_M] 1
| 12>        print[P_Mayer] 1
| 13>        print[P_basis] 2
| 14> end
| 15> %pal
| 16>     nprocs 4
| 17> end
| 18> ! CPCM(chloroform)
| 19> *xyz 0 1
| 20> C   -5.1830085600   0.1286260900  -0.7137122800
| 21> C   -6.6009663400  -0.3418598000  -0.9341649800
| 22> C   -7.5864406600   0.5550274100  -0.1740543500
| 23> H   -6.7185651400  -1.3836478200  -0.6150603200
| 24> H   -6.8511118100  -0.2844573500  -2.0039384300
| 25> C   -4.9679261600   1.5560542700  -1.0404072900
| 26> C   -5.9704913900   2.4980089100  -0.4115187100
| 27> C   -7.4144340300   2.0123887400  -0.6042460000
| 28> H   -5.8461525700   3.5084624100  -0.8151374000
| 29> H   -5.7600212600   2.5553058200   0.6673698900
| 30> H   -7.6910822900   2.0936428000  -1.6643481400
| 31> H   -8.1036585900   2.6461229400  -0.0342528000
| 32> O   -7.4251651000   0.3970797300   1.2454271400
| 33> H   -8.6130189500   0.2307251200  -0.3850532300
| 34> C   -4.2433481600  -0.6947040800  -0.1909090200
| 35> C   -3.9966367500   1.9811743500  -1.8554996600
| 36> H   -3.2965840900   1.2863620700  -2.3117795300
| 37> H   -3.8864888000   3.0369527100  -2.0918735300
| 38> C   -2.8909021100  -0.3280007300   0.1612693000
| 39> H   -4.5567386600  -1.7188831300   0.0079676500
| 40> C   -1.9233144800  -1.1590530300   0.6042916900
| 41> H   -2.6481055100   0.7281972200   0.0690208600
| 42> C   -2.0569139000  -2.6501112200   0.7801015700
| 43> C   -0.9486530500  -3.4133094800   0.0295231100
| 44> H   -3.0368442000  -3.0193829800   0.4660229800
| 45> H   -1.9574328400  -2.8737899700   1.8544076300
| 46> C    0.4549837100  -2.8843922500   0.3522759500
| 47> H   -1.1333670400  -3.3433542700  -1.0499425200
| 48> H   -1.0083785300  -4.4778883400   0.2870686500
| 49> C    0.5646149800  -1.3722560100   0.1137862700
| 50> H    1.1888404000  -3.4368052300  -0.2434653500
| 51> H    0.6834889900  -3.0854961900   1.4098946900
| 52> C   -0.5494532200  -0.6822150000   0.9634247000
| 53> H   -0.3616504100  -1.0256002300   1.9978742500
| 54> C   -0.1888587000   0.7976351200   0.9062809200
| 55> H   -6.4758865200   0.3661782000   1.4313067900
| 56> C    1.3584205600   0.7888291200   0.9658116000
| 57> H   -0.6404656300   1.3670357900   1.7254897800
| 58> H   -0.5387246100   1.2454308200  -0.0305671200
| 59> C    1.8221689000  -0.6802922700   0.7131908500
| 60> H    1.7154951900   1.1503635600   1.9337973700
| 61> H    1.7893892200   1.4548457400   0.2088741200
| 62> H    1.9996246700  -1.1697655000   1.6840831300
| 63> C    3.1311448800  -0.7380951300  -0.0863741900
| 64> C    0.3975131600  -1.0331053500  -1.3746069300
| 65> H    0.6101251900   0.0216725500  -1.5746534000
| 66> H   -0.6242992600  -1.2300343300  -1.7138621300
| 67> H    1.0776191100  -1.6316507600  -1.9898235600
| 68> H    2.9678546900  -0.1897014100  -1.0280036500
| 69> C    3.5816129600  -2.1633106900  -0.4577860900
| 70> C    4.3003185400  -0.0738241200   0.6089481100
| 71> C    4.4249500400   0.1854923500   1.9102917100
| 72> H    5.1449330200   0.1289185200  -0.0514413500
| 73> H    3.5907292200  -0.0325945200   2.5788827000
| 74> C    5.6366063700   0.7411517000   2.6132274300
| 75> C    6.7943480400   1.0849838000   1.6780973300
| 76> C    6.0391493700  -0.2095080900   3.7764860500
| 77> H    5.3147805300   1.6770293300   3.1018008400
| 78> H    5.1145877300  -0.3977342500   4.3439349600
| 79> C    7.0382568600   0.4415947400   4.7356430500
| 80> C    6.5646603300  -1.5582211700   3.2807710400
| 81> H    7.1553739500   0.2034334800   1.1374994400
| 82> H    7.6351036000   1.5066595500   2.2364244300
| 83> H    6.4840023600   1.8262352300   0.9342385700
| 84> H    6.6833829400   1.4206936400   5.0777322300
| 85> H    8.0166871200   0.5813127800   4.2622172700
| 86> H    7.1897388000  -0.1909997900   5.6173960900
| 87> H    5.8697635800  -2.0234400800   2.5728048800
| 88> H    6.7078912000  -2.2461221000   4.1212821500
| 89> H    7.5324952000  -1.4434169900   2.7792278500
| 90> H    2.9075212600  -2.6343803400  -1.1773783400
| 91> H    3.6309808800  -2.7921332600   0.4391421100
| 92> H    4.5820017100  -2.1411844300  -0.9045688800
| 93> *
| 94> %eprnmr
| 95>  Nuclei = all H { shift }
| 96>  origin giao
| 97>  giao_2el giao_2el_same_as_scf
| 98>  giao_1el giao_1el_analytic
| 99> end
|100> 
|101>                          ****END OF INPUT****
================================================================================

                       ****************************
                       * Single Point Calculation *
                       ****************************

---------------------------------
CARTESIAN COORDINATES (ANGSTROEM)
---------------------------------
  C     -5.183009    0.128626   -0.713712
  C     -6.600966   -0.341860   -0.934165
  C     -7.586441    0.555027   -0.174054
  H     -6.718565   -1.383648   -0.615060
  H     -6.851112   -0.284457   -2.003938
  C     -4.967926    1.556054   -1.040407
  C     -5.970491    2.498009   -0.411519
  C     -7.414434    2.012389   -0.604246
  H     -5.846153    3.508462   -0.815137
  H     -5.760021    2.555306    0.667370
  H     -7.691082    2.093643   -1.664348
  H     -8.103659    2.646123   -0.034253
  O     -7.425165    0.397080    1.245427
  H     -8.613019    0.230725   -0.385053
  C     -4.243348   -0.694704   -0.190909
  C     -3.996637    1.981174   -1.855500
  H     -3.296584    1.286362   -2.311780
  H     -3.886489    3.036953   -2.091874
  C     -2.890902   -0.328001    0.161269
  H     -4.556739   -1.718883    0.007968
  C     -1.923314   -1.159053    0.604292
  H     -2.648106    0.728197    0.069021
  C     -2.056914   -2.650111    0.780102
  C     -0.948653   -3.413309    0.029523
  H     -3.036844   -3.019383    0.466023
  H     -1.957433   -2.873790    1.854408
  C      0.454984   -2.884392    0.352276
  H     -1.133367   -3.343354   -1.049943
  H     -1.008379   -4.477888    0.287069
  C      0.564615   -1.372256    0.113786
  H      1.188840   -3.436805   -0.243465
  H      0.683489   -3.085496    1.409895
  C     -0.549453   -0.682215    0.963425
  H     -0.361650   -1.025600    1.997874
  C     -0.188859    0.797635    0.906281
  H     -6.475887    0.366178    1.431307
  C      1.358421    0.788829    0.965812
  H     -0.640466    1.367036    1.725490
  H     -0.538725    1.245431   -0.030567
  C      1.822169   -0.680292    0.713191
  H      1.715495    1.150364    1.933797
  H      1.789389    1.454846    0.208874
  H      1.999625   -1.169766    1.684083
  C      3.131145   -0.738095   -0.086374
  C      0.397513   -1.033105   -1.374607
  H      0.610125    0.021673   -1.574653
  H     -0.624299   -1.230034   -1.713862
  H      1.077619   -1.631651   -1.989824
  H      2.967855   -0.189701   -1.028004
  C      3.581613   -2.163311   -0.457786
  C      4.300319   -0.073824    0.608948
  C      4.424950    0.185492    1.910292
  H      5.144933    0.128919   -0.051441
  H      3.590729   -0.032595    2.578883
  C      5.636606    0.741152    2.613227
  C      6.794348    1.084984    1.678097
  C      6.039149   -0.209508    3.776486
  H      5.314781    1.677029    3.101801
  H      5.114588   -0.397734    4.343935
  C      7.038257    0.441595    4.735643
  C      6.564660   -1.558221    3.280771
  H      7.155374    0.203433    1.137499
  H      7.635104    1.506660    2.236424
  H      6.484002    1.826235    0.934239
  H      6.683383    1.420694    5.077732
  H      8.016687    0.581313    4.262217
  H      7.189739   -0.191000    5.617396
  H      5.869764   -2.023440    2.572805
  H      6.707891   -2.246122    4.121282
  H      7.532495   -1.443417    2.779228
  H      2.907521   -2.634380   -1.177378
  H      3.630981   -2.792133    0.439142
  H      4.582002   -2.141184   -0.904569

----------------------------
CARTESIAN COORDINATES (A.U.)
----------------------------
  NO LB      ZA    FRAG     MASS         X           Y           Z
   0 C     6.0000    0    12.011   -9.794467    0.243068   -1.348721
   1 C     6.0000    0    12.011  -12.474019   -0.646021   -1.765316
   2 C     6.0000    0    12.011  -14.336295    1.048850   -0.328915
   3 H     1.0000    0     1.008  -12.696248   -2.614715   -1.162296
   4 H     1.0000    0     1.008  -12.946725   -0.537546   -3.786895
   5 C     6.0000    0    12.011   -9.388020    2.940516   -1.966085
   6 C     6.0000    0    12.011  -11.282594    4.720553   -0.777658
   7 C     6.0000    0    12.011  -14.011250    3.802864   -1.141859
   8 H     1.0000    0     1.008  -11.047627    6.630033   -1.540386
   9 H     1.0000    0     1.008  -10.884863    4.828828    1.261146
  10 H     1.0000    0     1.008  -14.534039    3.956412   -3.145162
  11 H     1.0000    0     1.008  -15.313695    5.000448   -0.064728
  12 O     8.0000    0    15.999  -14.031529    0.750372    2.353516
  13 H     1.0000    0     1.008  -16.276247    0.436007   -0.727645
  14 C     6.0000    0    12.011   -8.018766   -1.312800   -0.360766
  15 C     6.0000    0    12.011   -7.552549    3.743877   -3.506386
  16 H     1.0000    0     1.008   -6.229641    2.430872   -4.368630
  17 H     1.0000    0     1.008   -7.344399    5.739009   -3.953068
  18 C     6.0000    0    12.011   -5.463013   -0.619832    0.304755
  19 H     1.0000    0     1.008   -8.610988   -3.248218    0.015057
  20 C     6.0000    0    12.011   -3.634538   -2.190293    1.141946
  21 H     1.0000    0     1.008   -5.004194    1.376093    0.130431
  22 C     6.0000    0    12.011   -3.887004   -5.007984    1.474178
  23 C     6.0000    0    12.011   -1.792694   -6.450220    0.055791
  24 H     1.0000    0     1.008   -5.738804   -5.705807    0.880656
  25 H     1.0000    0     1.008   -3.699012   -5.430676    3.504323
  26 C     6.0000    0    12.011    0.859795   -5.450711    0.665705
  27 H     1.0000    0     1.008   -2.141753   -6.318024   -1.984104
  28 H     1.0000    0     1.008   -1.905559   -8.461983    0.542481
  29 C     6.0000    0    12.011    1.066968   -2.593188    0.215025
  30 H     1.0000    0     1.008    2.246583   -6.494621   -0.460083
  31 H     1.0000    0     1.008    1.291607   -5.830743    2.664315
  32 C     6.0000    0    12.011   -1.038316   -1.289200    1.820609
  33 H     1.0000    0     1.008   -0.683420   -1.938104    3.775435
  34 C     6.0000    0    12.011   -0.356891    1.507312    1.712623
  35 H     1.0000    0     1.008  -12.237652    0.691977    2.704778
  36 C     6.0000    0    12.011    2.567043    1.490671    1.825119
  37 H     1.0000    0     1.008   -1.210305    2.583323    3.260703
  38 H     1.0000    0     1.008   -1.018042    2.353523   -0.057763
  39 C     6.0000    0    12.011    3.443400   -1.285566    1.347735
  40 H     1.0000    0     1.008    3.241816    2.173872    3.654347
  41 H     1.0000    0     1.008    3.381456    2.749260    0.394715
  42 H     1.0000    0     1.008    3.778743   -2.210536    3.182456
  43 C     6.0000    0    12.011    5.917006   -1.394798   -0.163224
  44 C     6.0000    0    12.011    0.751191   -1.952286   -2.597631
  45 H     1.0000    0     1.008    1.152970    0.040955   -2.975664
  46 H     1.0000    0     1.008   -1.179755   -2.324428   -3.238730
  47 H     1.0000    0     1.008    2.036405   -3.083373   -3.760222
  48 H     1.0000    0     1.008    5.608433   -0.358484   -1.942645
  49 C     6.0000    0    12.011    6.768268   -4.088065   -0.865090
  50 C     6.0000    0    12.011    8.126424   -0.139507    1.150745
  51 C     6.0000    0    12.011    8.361944    0.350530    3.609928
  52 H     1.0000    0     1.008    9.722514    0.243621   -0.097210
  53 H     1.0000    0     1.008    6.785495   -0.061595    4.873382
  54 C     6.0000    0    12.011   10.651642    1.400574    4.938284
  55 C     6.0000    0    12.011   12.839457    2.050322    3.171144
  56 C     6.0000    0    12.011   11.412338   -0.395913    7.136524
  57 H     1.0000    0     1.008   10.043480    3.169126    5.861554
  58 H     1.0000    0     1.008    9.665170   -0.751609    8.208847
  59 C     6.0000    0    12.011   13.300378    0.834493    8.949068
  60 C     6.0000    0    12.011   12.405410   -2.944611    6.199759
  61 H     1.0000    0     1.008   13.521697    0.384434    2.149562
  62 H     1.0000    0     1.008   14.428255    2.847174    4.226230
  63 H     1.0000    0     1.008   12.252989    3.451084    1.765455
  64 H     1.0000    0     1.008   12.629763    2.684722    9.595523
  65 H     1.0000    0     1.008   15.149343    1.098522    8.054423
  66 H     1.0000    0     1.008   13.586637   -0.360937   10.615340
  67 H     1.0000    0     1.008   11.092246   -3.823748    4.861897
  68 H     1.0000    0     1.008   12.676077   -4.244556    7.788095
  69 H     1.0000    0     1.008   14.234353   -2.727663    5.251980
  70 H     1.0000    0     1.008    5.494419   -4.978257   -2.224923
  71 H     1.0000    0     1.008    6.861559   -5.276367    0.829858
  72 H     1.0000    0     1.008    8.658728   -4.046252   -1.709387

--------------------------------
INTERNAL COORDINATES (ANGSTROEM)
--------------------------------
 C      0   0   0     0.000000000000     0.00000000     0.00000000
 C      1   0   0     1.510152519280     0.00000000     0.00000000
 C      2   1   0     1.534058171218   110.40781630     0.00000000
 H      2   1   3     1.095892120790   110.75778268   237.86579545
 H      2   1   3     1.100128643274   109.82774214   118.70906954
 C      1   2   3     1.480047728084   113.87226453   305.87566832
 C      6   1   2     1.512586007564   114.36254443    50.07832913
 C      3   2   1     1.529232873919   110.21408530    56.77260026
 H      7   6   1     1.095164126850   110.24849344   188.65225322
 H      7   6   1     1.100718502946   108.25237416    71.98419857
 H      8   3   2     1.098614140297   108.27699008    64.65224559
 H      8   3   2     1.096148611459   109.50989776   181.58576985
 O      3   2   1     1.437318675981   110.67170580   292.69894942
 H      3   2   1     1.097066765589   109.45076201   177.18446505
 C      1   2   3     1.354310704686   121.22653097   122.37077947
 C      6   1   2     1.337350280229   123.13800316   232.06201819
 H     16   6   1     1.086751651013   121.36614160   358.96717939
 H     16   6   1     1.087507757560   120.97353978   178.39355585
 C     15   1   2     1.444856821329   126.10403744   185.18726792
 H     15   1   2     1.089361400922   116.25895434     3.12052951
 C     19  15   1     1.350237973509   126.47965953   184.43347228
 H     19  15   1     1.087664503989   115.76836018     5.40312936
 C     21  19  15     1.507319622673   125.70413848     1.92514673
 C     23  21  19     1.540805542671   111.67926662   126.12549444
 H     23  21  19     1.093284220268   112.33716915     2.35023163
 H     23  21  19     1.101844896096   107.85045621   244.67272233
 C     24  23  21     1.534313848579   112.63074486    51.00659379
 H     24  23  21     1.097387368188   109.05850976   288.83049544
 H     24  23  21     1.096916125916   109.09795316   172.90479467
 C     27  24  23     1.534748302214   111.85799317   306.05659623
 H     27  24  23     1.094812056225   108.95403631   182.46681383
 H     27  24  23     1.100552069132   109.21433090    65.97065363
 C     21  19  15     1.497947191144   122.68235269   180.84006419
 H     33  21  19     1.106015001309   106.32831196   125.39426808
 C     33  21  19     1.524221177228   121.13467869     2.86644784
 H     13   3   2     0.967799551192   107.65278975    42.18254123
 C     35  33  21     1.548449080830   103.26379547   194.86276312
 H     35  33  21     1.095111454841   112.28452125    73.16136639
 H     35  33  21     1.095724141365   110.68893676   313.42241123
 C     30  27  24     1.555487553697   115.85971648   166.36345878
 H     37  35  33     1.093254724947   111.00987674   251.86025109
 H     37  35  33     1.096479125495   111.26956693   133.58841905
 H     40  30  27     1.101683444805   105.79393231   321.95406481
 C     40  30  27     1.534947406275   118.16159214    82.67887890
 C     30  27  24     1.535662888212   111.12679444   294.68023020
 H     45  30  27     1.094430849249   111.64584524   187.84258728
 H     45  30  27     1.094520778952   111.23946624    67.95206480
 H     45  30  27     1.095122008219   110.86719275   307.88495871
 H     44  40  30     1.101846358720   107.46007029    63.95003660
 C     44  40  30     1.540164823331   114.19771054   305.02813931
 C     44  40  30     1.513834906072   113.75600540   181.91747979
 C     51  44  40     1.332769000115   127.30671237    20.84411161
 H     51  44  40     1.091142720628   113.66410127   195.78678879
 H     52  51  44     1.091100440517   119.20472926   355.85608047
 C     52  51  44     1.506979429761   127.04088877   174.45338046
 C     55  52  51     1.527433989202   114.00738612     2.94574683
 C     55  52  51     1.555302388661   109.36565455   234.63758188
 H     55  52  51     1.103695060506   106.54079032   121.38158453
 H     57  55  52     1.101018428060   105.82072040   310.39311294
 C     57  55  52     1.530402830126   112.18966983   193.64875190
 C     57  55  52     1.530007226252   112.66743327    67.88074805
 H     56  55  52     1.095315823430   111.76651313   299.11931674
 H     56  55  52     1.093805055942   110.90908199   178.55168995
 H     56  55  52     1.095031496534   110.69826896    59.09200623
 H     60  57  55     1.096172961786   111.36118912    51.74675375
 H     60  57  55     1.095891816537   111.49113131   290.96890848
 H     60  57  55     1.095723980335   110.42486755   171.74901861
 H     61  57  55     1.095685270088   111.45649271   308.01056494
 H     61  57  55     1.095528045122   110.47776805   187.70121418
 H     61  57  55     1.096097580861   111.05109724    68.46228041
 H     50  44  40     1.092757631600   112.16573298    67.63331227
 H     50  44  40     1.096510470548   110.27863266   306.43616381
 H     50  44  40     1.095847655447   110.28175188   187.61847430

---------------------------
INTERNAL COORDINATES (A.U.)
---------------------------
 C      0   0   0     0.000000000000     0.00000000     0.00000000
 C      1   0   0     2.853774681891     0.00000000     0.00000000
 C      2   1   0     2.898949817106   110.40781630     0.00000000
 H      2   1   3     2.070935980616   110.75778268   237.86579545
 H      2   1   3     2.078941847871   109.82774214   118.70906954
 C      1   2   3     2.796884871211   113.87226453   305.87566832
 C      6   1   2     2.858373308296   114.36254443    50.07832913
 C      3   2   1     2.889831326695   110.21408530    56.77260026
 H      7   6   1     2.069560271441   110.24849344   188.65225322
 H      7   6   1     2.080056521108   108.25237416    71.98419857
 H      8   3   2     2.076079852014   108.27699008    64.65224559
 H      8   3   2     2.071420677735   109.50989776   181.58576985
 O      3   2   1     2.716138664774   110.67170580   292.69894942
 H      3   2   1     2.073155737590   109.45076201   177.18446505
 C      1   2   3     2.559276332094   121.22653097   122.37077947
 C      6   1   2     2.527225774756   123.13800316   232.06201819
 H     16   6   1     2.053662996001   121.36614160   358.96717939
 H     16   6   1     2.055091830302   120.97353978   178.39355585
 C     15   1   2     2.730383695039   126.10403744   185.18726792
 H     15   1   2     2.058594708608   116.25895434     3.12052951
 C     19  15   1     2.551579985553   126.47965953   184.43347228
 H     19  15   1     2.055388038127   115.76836018     5.40312936
 C     21  19  15     2.848421283138   125.70413848     1.92514673
 C     23  21  19     2.911700501276   111.67926662   126.12549444
 H     23  21  19     2.066007762845   112.33716915     2.35023163
 H     23  21  19     2.082185095681   107.85045621   244.67272233
 C     24  23  21     2.899432977298   112.63074486    51.00659379
 H     24  23  21     2.073761588700   109.05850976   288.83049544
 H     24  23  21     2.072871069863   109.09795316   172.90479467
 C     27  24  23     2.900253975686   111.85799317   306.05659623
 H     27  24  23     2.068894954381   108.95403631   182.46681383
 H     27  24  23     2.079742006780   109.21433090    65.97065363
 C     21  19  15     2.830709954338   122.68235269   180.84006419
 H     33  21  19     2.090065452483   106.32831196   125.39426808
 C     33  21  19     2.880360592484   121.13467869     2.86644784
 H     13   3   2     1.828876104285   107.65278975    42.18254123
 C     35  33  21     2.926144695091   103.26379547   194.86276312
 H     35  33  21     2.069460735769   112.28452125    73.16136639
 H     35  33  21     2.070618545506   110.68893676   313.42241123
 C     30  27  24     2.939445481211   115.85971648   166.36345878
 H     37  35  33     2.065952024765   111.00987674   251.86025109
 H     37  35  33     2.072045258748   111.26956693   133.58841905
 H     40  30  27     2.081879996956   105.79393231   321.95406481
 C     40  30  27     2.900630227833   118.16159214    82.67887890
 C     30  27  24     2.901982292747   111.12679444   294.68023020
 H     45  30  27     2.068174577596   111.64584524   187.84258728
 H     45  30  27     2.068344520105   111.23946624    67.95206480
 H     45  30  27     2.069480678764   110.86719275   307.88495871
 H     44  40  30     2.082187859640   107.46007029    63.95003660
 C     44  40  30     2.910489717195   114.19771054   305.02813931
 C     44  40  30     2.860733384446   113.75600540   181.91747979
 C     51  44  40     2.518568409997   127.30671237    20.84411161
 H     51  44  40     2.061960915008   113.66410127   195.78678879
 H     52  51  44     2.061881017179   119.20472926   355.85608047
 C     52  51  44     2.847778411701   127.04088877   174.45338046
 C     55  52  51     2.886431927235   114.00738612     2.94574683
 C     55  52  51     2.939095570004   109.36565455   234.63758188
 H     55  52  51     2.085681399718   106.54079032   121.38158453
 H     57  55  52     2.080623297434   105.82072040   310.39311294
 C     57  55  52     2.892042223516   112.18966983   193.64875190
 C     57  55  52     2.891294640536   112.66743327    67.88074805
 H     56  55  52     2.069846936433   111.76651313   299.11931674
 H     56  55  52     2.066991999628   110.90908199   178.55168995
 H     56  55  52     2.069309636466   110.69826896    59.09200623
 H     60  57  55     2.071466693185   111.36118912    51.74675375
 H     60  57  55     2.070935405661   111.49113131   290.96890848
 H     60  57  55     2.070618241203   110.42486755   171.74901861
 H     61  57  55     2.070545089437   111.45649271   308.01056494
 H     61  57  55     2.070247977311   110.47776805   187.70121418
 H     61  57  55     2.071324243880   111.05109724    68.46228041
 H     50  44  40     2.065012654476   112.16573298    67.63331227
 H     50  44  40     2.072104492313   110.27863266   306.43616381
 H     50  44  40     2.070851953294   110.28175188   187.61847430

---------------------
BASIS SET INFORMATION
---------------------
There are 3 groups of distinct atoms

 Group   1 Type C   : 8s5p1d contracted to 3s3p1d pattern {521/311/1}
 Group   2 Type H   : 4s2p contracted to 2s1p pattern {31/2}
 Group   3 Type O   : 8s5p1d contracted to 3s3p1d pattern {521/311/1}

Atom   0C    basis set group =>   1
Atom   1C    basis set group =>   1
Atom   2C    basis set group =>   1
Atom   3H    basis set group =>   2
Atom   4H    basis set group =>   2
Atom   5C    basis set group =>   1
Atom   6C    basis set group =>   1
Atom   7C    basis set group =>   1
Atom   8H    basis set group =>   2
Atom   9H    basis set group =>   2
Atom  10H    basis set group =>   2
Atom  11H    basis set group =>   2
Atom  12O    basis set group =>   3
Atom  13H    basis set group =>   2
Atom  14C    basis set group =>   1
Atom  15C    basis set group =>   1
Atom  16H    basis set group =>   2
Atom  17H    basis set group =>   2
Atom  18C    basis set group =>   1
Atom  19H    basis set group =>   2
Atom  20C    basis set group =>   1
Atom  21H    basis set group =>   2
Atom  22C    basis set group =>   1
Atom  23C    basis set group =>   1
Atom  24H    basis set group =>   2
Atom  25H    basis set group =>   2
Atom  26C    basis set group =>   1
Atom  27H    basis set group =>   2
Atom  28H    basis set group =>   2
Atom  29C    basis set group =>   1
Atom  30H    basis set group =>   2
Atom  31H    basis set group =>   2
Atom  32C    basis set group =>   1
Atom  33H    basis set group =>   2
Atom  34C    basis set group =>   1
Atom  35H    basis set group =>   2
Atom  36C    basis set group =>   1
Atom  37H    basis set group =>   2
Atom  38H    basis set group =>   2
Atom  39C    basis set group =>   1
Atom  40H    basis set group =>   2
Atom  41H    basis set group =>   2
Atom  42H    basis set group =>   2
Atom  43C    basis set group =>   1
Atom  44C    basis set group =>   1
Atom  45H    basis set group =>   2
Atom  46H    basis set group =>   2
Atom  47H    basis set group =>   2
Atom  48H    basis set group =>   2
Atom  49C    basis set group =>   1
Atom  50C    basis set group =>   1
Atom  51C    basis set group =>   1
Atom  52H    basis set group =>   2
Atom  53H    basis set group =>   2
Atom  54C    basis set group =>   1
Atom  55C    basis set group =>   1
Atom  56C    basis set group =>   1
Atom  57H    basis set group =>   2
Atom  58H    basis set group =>   2
Atom  59C    basis set group =>   1
Atom  60C    basis set group =>   1
Atom  61H    basis set group =>   2
Atom  62H    basis set group =>   2
Atom  63H    basis set group =>   2
Atom  64H    basis set group =>   2
Atom  65H    basis set group =>   2
Atom  66H    basis set group =>   2
Atom  67H    basis set group =>   2
Atom  68H    basis set group =>   2
Atom  69H    basis set group =>   2
Atom  70H    basis set group =>   2
Atom  71H    basis set group =>   2
Atom  72H    basis set group =>   2

-------------------------
BASIS SET IN INPUT FORMAT
-------------------------

 # Basis set for element : H 
 NewGTO H 
 S 3 
   1      12.2518000000      0.0372173893
   2       1.8687100000      0.2538082070
   3       0.4182080000      0.7973867639
 S 1 
   1       0.1061000000      1.0000000000
 P 2 
   1       9.0000000000      0.0402678705
   2       1.0000000000      0.9880231245
  end;

 # Basis set for element : C 
 NewGTO C 
 S 5 
   1    1243.2000000000      0.0056300977
   2     187.1450000000      0.0419506039
   3      42.5126000000      0.1846643605
   4      11.7393000000      0.4665574214
   5       3.5054800000      0.4482347783
 S 2 
   1       5.3908900000     -0.1481148174
   2       0.4933410000      1.0519817143
 S 1 
   1       0.1497410000      1.0000000000
 P 3 
   1      59.6736000000      0.0113906672
   2       9.1805600000      0.1672414929
   3       1.9365800000      0.9041087436
 P 1 
   1       0.5262960000      1.0000000000
 P 1 
   1       0.1363190000      1.0000000000
 D 1 
   1       0.8000000000      1.0000000000
  end;

 # Basis set for element : O 
 NewGTO O 
 S 5 
   1    2288.6400000000      0.0054511382
   2     344.4160000000      0.0407189228
   3      78.2538000000      0.1813694209
   4      21.7195000000      0.4655368202
   5       6.5590700000      0.4512113212
 S 2 
   1      10.4656000000     -0.1502112012
   2       0.9643510000      1.0528679834
 S 1 
   1       0.2851270000      1.0000000000
 P 3 
   1     110.8840000000      0.0113058003
   2      17.0590000000      0.1699226452
   3       3.6899900000      0.9008060328
 P 1 
   1       0.9929960000      1.0000000000
 P 1 
   1       0.2449240000      1.0000000000
 D 1 
   1       1.0000000000      1.0000000000
  end;

---------------------------------
AUXILIARY/J BASIS SET INFORMATION
---------------------------------
There are 3 groups of distinct atoms

 Group   1 Type C   : 12s5p4d2f1g contracted to 6s4p3d1f1g pattern {711111/2111/211/2/1}
 Group   2 Type H   : 5s2p1d contracted to 3s1p1d pattern {311/2/1}
 Group   3 Type O   : 12s5p4d2f1g contracted to 6s4p3d1f1g pattern {711111/2111/211/2/1}

Atom   0C    basis set group =>   1
Atom   1C    basis set group =>   1
Atom   2C    basis set group =>   1
Atom   3H    basis set group =>   2
Atom   4H    basis set group =>   2
Atom   5C    basis set group =>   1
Atom   6C    basis set group =>   1
Atom   7C    basis set group =>   1
Atom   8H    basis set group =>   2
Atom   9H    basis set group =>   2
Atom  10H    basis set group =>   2
Atom  11H    basis set group =>   2
Atom  12O    basis set group =>   3
Atom  13H    basis set group =>   2
Atom  14C    basis set group =>   1
Atom  15C    basis set group =>   1
Atom  16H    basis set group =>   2
Atom  17H    basis set group =>   2
Atom  18C    basis set group =>   1
Atom  19H    basis set group =>   2
Atom  20C    basis set group =>   1
Atom  21H    basis set group =>   2
Atom  22C    basis set group =>   1
Atom  23C    basis set group =>   1
Atom  24H    basis set group =>   2
Atom  25H    basis set group =>   2
Atom  26C    basis set group =>   1
Atom  27H    basis set group =>   2
Atom  28H    basis set group =>   2
Atom  29C    basis set group =>   1
Atom  30H    basis set group =>   2
Atom  31H    basis set group =>   2
Atom  32C    basis set group =>   1
Atom  33H    basis set group =>   2
Atom  34C    basis set group =>   1
Atom  35H    basis set group =>   2
Atom  36C    basis set group =>   1
Atom  37H    basis set group =>   2
Atom  38H    basis set group =>   2
Atom  39C    basis set group =>   1
Atom  40H    basis set group =>   2
Atom  41H    basis set group =>   2
Atom  42H    basis set group =>   2
Atom  43C    basis set group =>   1
Atom  44C    basis set group =>   1
Atom  45H    basis set group =>   2
Atom  46H    basis set group =>   2
Atom  47H    basis set group =>   2
Atom  48H    basis set group =>   2
Atom  49C    basis set group =>   1
Atom  50C    basis set group =>   1
Atom  51C    basis set group =>   1
Atom  52H    basis set group =>   2
Atom  53H    basis set group =>   2
Atom  54C    basis set group =>   1
Atom  55C    basis set group =>   1
Atom  56C    basis set group =>   1
Atom  57H    basis set group =>   2
Atom  58H    basis set group =>   2
Atom  59C    basis set group =>   1
Atom  60C    basis set group =>   1
Atom  61H    basis set group =>   2
Atom  62H    basis set group =>   2
Atom  63H    basis set group =>   2
Atom  64H    basis set group =>   2
Atom  65H    basis set group =>   2
Atom  66H    basis set group =>   2
Atom  67H    basis set group =>   2
Atom  68H    basis set group =>   2
Atom  69H    basis set group =>   2
Atom  70H    basis set group =>   2
Atom  71H    basis set group =>   2
Atom  72H    basis set group =>   2

-------------------------------------
AUXILIARY/J BASIS SET IN INPUT FORMAT
-------------------------------------

 # Auxiliary/J basis set for element : H 
 NewAuxJGTO H 
 S 3 
   1      15.6752927000      0.1007184237
   2       3.6063578000      0.3404257499
   3       1.2080016000      0.6491996172
 S 1 
   1       0.4726794000      1.0000000000
 S 1 
   1       0.2018100000      1.0000000000
 P 2 
   1       2.0281365000      0.5596620919
   2       0.5358730000      0.5596620919
 D 1 
   1       2.2165124000      1.0000000000
  end;

 # Auxiliary/J basis set for element : C 
 NewAuxJGTO C 
 S 7 
   1    1861.0916331000      0.0134602335
   2     642.9939764000      0.0299160374
   3     235.1105725000      0.1008649584
   4      90.7028894000      0.2370970548
   5      36.7794552000      0.3924037254
   6      15.6046273000      0.3195862154
   7       6.8907294000      0.0530104441
 S 1 
   1       3.1478850000     -1.0000000000
 S 1 
   1       1.4777287000      1.0000000000
 S 1 
   1       0.7076466000      1.0000000000
 S 1 
   1       0.3430122000      1.0000000000
 S 1 
   1       0.1669453000      1.0000000000
 P 2 
   1      13.5472892000     -0.6769313712
   2       5.4669419000     -0.3779500978
 P 1 
   1       2.1751721000      1.0000000000
 P 1 
   1       0.8582194000      1.0000000000
 P 1 
   1       0.3376720000      1.0000000000
 D 2 
   1       5.9287253000     -0.3533329857
   2       1.9809209000     -0.7456525731
 D 1 
   1       0.8055417000     -1.0000000000
 D 1 
   1       0.3531244000     -1.0000000000
 F 2 
   1       1.6755626000      0.6311076882
   2       0.5997536000      0.4968166032
 G 1 
   1       1.0024600000     -1.0000000000
  end;

 # Auxiliary/J basis set for element : O 
 NewAuxJGTO O 
 S 7 
   1    2876.8216605000      0.0168151159
   2    1004.7443032000      0.0340137548
   3     369.7579954000      0.1194951309
   4     142.9442404000      0.2664627624
   5      57.8366425000      0.4202764046
   6      24.3864983000      0.2765077335
   7      10.6622662000      0.0057008815
 S 1 
   1       4.8070437000     -1.0000000000
 S 1 
   1       2.2210770000      1.0000000000
 S 1 
   1       1.0447795000      1.0000000000
 S 1 
   1       0.4968425000      1.0000000000
 S 1 
   1       0.2371384000      1.0000000000
 P 2 
   1      64.2613382000     -0.2731534179
   2      16.3006076000     -0.8168011598
 P 1 
   1       4.3550542000      1.0000000000
 P 1 
   1       1.2019554000      1.0000000000
 P 1 
   1       0.3354196000      1.0000000000
 D 2 
   1       9.2146611000     -0.4661230638
   2       2.8435251000     -0.6600908911
 D 1 
   1       0.9955759000     -1.0000000000
 D 1 
   1       0.3649441000     -1.0000000000
 F 2 
   1       2.6420115000      0.5931563945
   2       0.7345613000      0.5931563945
 G 1 
   1       1.3931000000     -1.0000000000
  end;



           ************************************************************
           *        Program running with 4 parallel MPI-processes     *
           *              working on a common directory               *
           ************************************************************
------------------------------------------------------------------------------
                           ORCA GTO INTEGRAL CALCULATION
                           -- RI-GTO INTEGRALS CHOSEN --
------------------------------------------------------------------------------
------------------------------------------------------------------------------
                   ___                                                        
                  /   \      - P O W E R E D   B Y -                         
                 /     \                                                     
                 |  |  |   _    _      __       _____    __    __             
                 |  |  |  | |  | |    /  \     |  _  \  |  |  /  |          
                  \  \/   | |  | |   /    \    | | | |  |  | /  /          
                 / \  \   | |__| |  /  /\  \   | |_| |  |  |/  /          
                |  |  |   |  __  | /  /__\  \  |    /   |      \           
                |  |  |   | |  | | |   __   |  |    \   |  |\   \          
                \     /   | |  | | |  |  |  |  | |\  \  |  | \   \       
                 \___/    |_|  |_| |__|  |__|  |_| \__\ |__|  \__/        
                                                                              
                      - O R C A' S   B I G   F R I E N D -                    
                                      &                                       
                       - I N T E G R A L  F E E D E R -                       
                                                                              
 v1 FN, 2020, v2 2021                                                         
------------------------------------------------------------------------------


Reading SHARK input file inpS.SHARKINP.tmp ... ok
----------------------
SHARK INTEGRAL PACKAGE
----------------------

Number of atoms                             ...     73
Number of basis functions                   ...    713
Number of shells                            ...    335
Maximum angular momentum                    ...      2
Integral batch strategy                     ... SHARK/LIBINT Hybrid
RI-J (if used) integral strategy            ... SPLIT-RIJ (Revised 2003 algorithm where possible)
Printlevel                                  ...      1
Contraction scheme used                     ... SEGMENTED contraction
Coulomb Range Separation                    ... NOT USED
Exchange Range Separation                   ... NOT USED
Finite Nucleus Model                        ... NOT USED
Auxiliary Coulomb fitting basis             ... AVAILABLE
   # of basis functions in Aux-J            ...   1905
   # of shells in Aux-J                     ...    655
   Maximum angular momentum in Aux-J        ...      4
Auxiliary J/K fitting basis                 ... NOT available
Auxiliary Correlation fitting basis         ... NOT available
Auxiliary 'external' fitting basis          ... NOT available
Integral threshold                          ...     3.000000e-11
Primitive cut-off                           ...     1.000000e-12
Primitive pair pre-selection threshold      ...     1.000000e-12

Calculating pre-screening integrals         ... done (  0.0 sec) Dimension = 335
Organizing shell pair data                  ... done (  0.2 sec)
Shell pair information
Total number of shell pairs                 ...     56280
Shell pairs after pre-screening             ...     31770
Total number of primitive shell pairs       ...    225367
Primitive shell pairs kept                  ...     74882
          la=0 lb=0:   9707 shell pairs
          la=1 lb=0:  13041 shell pairs
          la=1 lb=1:   4275 shell pairs
          la=2 lb=0:   2778 shell pairs
          la=2 lb=1:   1772 shell pairs
          la=2 lb=2:    197 shell pairs

Calculating one electron integrals          ... done (  0.1 sec)
Calculating RI/J V-Matrix + Cholesky decomp.... done (  0.2 sec)
Calculating Nuclear repulsion               ... done (  0.0 sec) ENN=   2790.275590064611 Eh

SHARK setup successfully completed in   0.6 seconds

Maximum memory used throughout the entire GTOINT-calculation: 61.3 MB


           ************************************************************
           *        Program running with 4 parallel MPI-processes     *
           *              working on a common directory               *
           ************************************************************
-------------------------------------------------------------------------------
                                 ORCA SCF
-------------------------------------------------------------------------------

------------
SCF SETTINGS
------------
Hamiltonian:
 Density Functional     Method          .... DFT(GTOs)
 Exchange Functional    Exchange        .... revTPSS
 Correlation Functional Correlation     .... revTPSS
 LDA part of GGA corr.  LDAOpt          .... PW91-LDA
 Gradients option       PostSCFGGA      .... off
   Density functional embedding theory  .... OFF
 RI-approximation to the Coulomb term is turned on
   Number of AuxJ basis functions       .... 1905


General Settings:
 Integral files         IntName         .... inpS
 Hartree-Fock type      HFTyp           .... RHF
 Total Charge           Charge          ....    0
 Multiplicity           Mult            ....    1
 Number of Electrons    NEL             ....  220
 Basis Dimension        Dim             ....  713
 Nuclear Repulsion      ENuc            ....   2790.2755900646 Eh

Convergence Acceleration:
 DIIS                   CNVDIIS         .... on
   Start iteration      DIISMaxIt       ....    12
   Startup error        DIISStart       ....  0.200000
   # of expansion vecs  DIISMaxEq       ....     5
   Bias factor          DIISBfac        ....   1.050
   Max. coefficient     DIISMaxC        ....  10.000
 Trust-Rad. Augm. Hess. CNVTRAH         .... auto
   Auto Start mean grad. ratio tolernc. ....  1.125000
   Auto Start start iteration           ....    20
   Auto Start num. interpolation iter.  ....    10
   Max. Number of Micro iterations      ....    16
   Max. Number of Macro iterations      .... Maxiter - #DIIS iter
   Number of Davidson start vectors     ....     2
   Converg. threshold I  (grad. norm)   ....   1.000e-04
   Converg. threshold II (energy diff.) ....   1.000e-07
   Grad. Scal. Fac. for Micro threshold ....   0.100
   Minimum threshold for Micro iter.    ....   0.010
   NR start threshold (gradient norm)   ....   0.001
   Initial trust radius                 ....   0.400
   Minimum AH scaling param. (alpha)    ....   1.000
   Maximum AH scaling param. (alpha)    .... 1000.000
   Orbital update algorithm             .... Taylor
   White noise on init. David. guess    .... on
   Maximum white noise                  ....   0.010
   Quad. conv. algorithm                .... NR
 SOSCF                  CNVSOSCF        .... off
 Level Shifting         CNVShift        .... on
   Level shift para.    LevelShift      ....    0.2500
   Turn off err/grad.   ShiftErr        ....    0.0010
 Zerner damping         CNVZerner       .... off
 Static damping         CNVDamp         .... on
   Fraction old density DampFac         ....    0.7000
   Max. Damping (<1)    DampMax         ....    0.9800
   Min. Damping (>=0)   DampMin         ....    0.0000
   Turn off err/grad.   DampErr         ....    0.1000
 Fernandez-Rico         CNVRico         .... off

SCF Procedure:
 Maximum # iterations   MaxIter         ....   125
 SCF integral mode      SCFMode         .... Direct
   Integral package                     .... SHARK and LIBINT hybrid scheme
 Reset frequency        DirectResetFreq ....    20
 Integral Threshold     Thresh          ....  3.000e-11 Eh
 Primitive CutOff       TCut            ....  1.000e-12 Eh

Convergence Tolerance:
 Convergence Check Mode ConvCheckMode   .... Total+1el-Energy
 Convergence forced     ConvForced      .... 0
 Energy Change          TolE            ....  1.000e-07 Eh
 1-El. energy change                    ....  1.000e-04 Eh
 DIIS Error             TolErr          ....  1.000e-07


Diagonalization of the overlap matrix:
Smallest eigenvalue                        ... 4.984e-04
Time for diagonalization                   ...    0.062 sec
Threshold for overlap eigenvalues          ... 1.000e-08
Number of eigenvalues below threshold      ... 0
Time for construction of square roots      ...    0.053 sec
Total time needed                          ...    0.116 sec

Time for model grid setup =    0.788 sec

------------------------------
INITIAL GUESS: MODEL POTENTIAL
------------------------------
Loading Hartree-Fock densities                     ... done
Calculating cut-offs                               ... done
Initializing the effective Hamiltonian             ... done
Setting up the integral package (SHARK)            ... done
Starting the Coulomb interaction                   ... done (   0.8 sec)
Reading the grid                                   ... done
Mapping shells                                     ... done
Starting the XC term evaluation                    ... done (   0.3 sec)
  promolecular density results
     # of electrons  =    219.973682819
     EX              =   -164.432713938
     EC              =     -7.329039861
     EX+EC           =   -171.761753800
Transforming the Hamiltonian                       ... done (   0.0 sec)
Diagonalizing the Hamiltonian                      ... done (   0.1 sec)
Back transforming the eigenvectors                 ... done (   0.0 sec)
Now organizing SCF variables                       ... done
                      ------------------
                      INITIAL GUESS DONE (   2.0 sec)
                      ------------------
-------------------
DFT GRID GENERATION
-------------------

General Integration Accuracy     IntAcc      ... 4.388
Radial Grid Type                 RadialGrid  ... OptM3 with GC (2021)
Angular Grid (max. ang.)         AngularGrid ... 4 (Lebedev-302)
Angular grid pruning method      GridPruning ... 4 (adaptive)
Weight generation scheme         WeightScheme... Becke
Basis function cutoff            BFCut       ... 1.0000e-11
Integration weight cutoff        WCut        ... 1.0000e-14
Angular grids for H and He will be reduced by one unit
Partially contracted basis set               ... off
Rotationally invariant grid construction     ... off

Total number of grid points                  ...   309811
Total number of batches                      ...     4880
Average number of points per batch           ...       63
Average number of grid points per atom       ...     4244
Time for grid setup =    2.939 sec


--------------------
CPCM SOLVATION MODEL
--------------------
CPCM parameters:
  Epsilon                                         ...       4.9000
  Refrac                                          ...       1.4500
  Rsolv                                           ...       1.3000
  Surface type                                    ... GAUSSIAN VDW
  Epsilon function type                           ...         CPCM
Radii:
 Radius for C  used is    3.8550 Bohr (=   2.0400 Ang.)
 Radius for H  used is    2.4944 Bohr (=   1.3200 Ang.)
 Radius for O  used is    3.4469 Bohr (=   1.8240 Ang.)
Calculating surface                               ...        done! (  0.0s)
GEPOL surface points                              ...         3608
GEPOL Volume                                      ...    3589.9947
GEPOL Surface-area                                ...    1774.3129
Calculating surface distance matrix               ...        done! (  0.1s)
Performing Cholesky decomposition & store         ...        done! (  0.5s)
Overall time for CPCM initialization              ...                 0.6s
--------------
SCF ITERATIONS
--------------
ITER       Energy         Delta-E        Max-DP      RMS-DP      [F,P]     Damp
               ***  Starting incremental Fock matrix formation  ***

  HOMO= 109 E= -1.942 eV LUMO=  7.771 eV gap=   9.714 eV
  0  -1167.5213166593   0.000000000000 0.05581080  0.00083612  0.2640895 0.7000

  HOMO= 109 E= -3.447 eV LUMO=  6.672 eV gap=  10.120 eV
  1  -1167.8956490280  -0.374332368719 0.02896982  0.00061691  0.1019886 0.7000
                               ***Turning on DIIS***

  HOMO= 109 E= -4.417 eV LUMO=  5.790 eV gap=  10.207 eV
  2  -1168.0418381866  -0.146189158573 0.04808843  0.00101428  0.0316944 0.0000

  HOMO= 109 E= -5.036 eV LUMO=  5.208 eV gap=  10.244 eV
  3  -1168.2399168653  -0.198078678714 0.02318603  0.00047681  0.0526489 0.0000

  HOMO= 109 E= -5.063 eV LUMO=  5.182 eV gap=  10.245 eV
  4  -1168.3067388399  -0.066821974581 0.00747352  0.00015143  0.0103676 0.0000

  HOMO= 109 E= -5.016 eV LUMO=  5.235 eV gap=  10.252 eV
  5  -1168.3097753528  -0.003036512931 0.00341850  0.00005685  0.0101421 0.0000

  HOMO= 109 E= -4.997 eV LUMO=  5.252 eV gap=  10.249 eV
  6  -1168.3100379805  -0.000262627736 0.00128396  0.00001907  0.0031400 0.0000

  HOMO= 109 E= -4.999 eV LUMO= -1.553 eV gap=   3.446 eV
  7  -1168.3100584509  -0.000020470394 0.00071732  0.00001152  0.0004641 0.0000

  HOMO= 109 E= -4.997 eV LUMO= -1.551 eV gap=   3.446 eV
  8  -1168.3100612803  -0.000002829381 0.00026287  0.00000295  0.0003741 0.0000

  HOMO= 109 E= -4.995 eV LUMO= -1.549 eV gap=   3.446 eV
  9  -1168.3100619585  -0.000000678178 0.00015818  0.00000150  0.0002346 0.0000

  HOMO= 109 E= -4.995 eV LUMO= -1.549 eV gap=   3.446 eV
 10  -1168.3100622161  -0.000000257614 0.00006207  0.00000068  0.0000959 0.0000

  HOMO= 109 E= -4.996 eV LUMO= -1.550 eV gap=   3.446 eV
 11  -1168.3100622458  -0.000000029741 0.00002268  0.00000025  0.0000238 0.0000

  HOMO= 109 E= -4.996 eV LUMO= -1.550 eV gap=   3.446 eV
 12  -1168.3100622485  -0.000000002692 0.00001159  0.00000012  0.0000182 0.0000

  HOMO= 109 E= -4.996 eV LUMO= -1.549 eV gap=   3.446 eV
 13  -1168.3100622677  -0.000000019197 0.00000598  0.00000005  0.0000089 0.0000
                 **** Energy Check signals convergence ****

               *****************************************************
               *                     SUCCESS                       *
               *           SCF CONVERGED AFTER  14 CYCLES          *
               *****************************************************


----------------
TOTAL SCF ENERGY
----------------

Total Energy       :        -1168.31006226 Eh          -31791.33303 eV

Components:
Nuclear Repulsion  :         2790.27559006 Eh           75927.25887 eV
Electronic Energy  :        -3958.58565232 Eh         -107718.59191 eV
One Electron Energy:        -7126.71467937 Eh         -193927.76552 eV
Two Electron Energy:         3168.12902705 Eh           86209.17362 eV
CPCM Dielectric    :           -0.00910151 Eh              -0.24766 eV

Virial components:
Potential Energy   :        -2330.40817782 Eh          -63413.63041 eV
Kinetic Energy     :         1162.09811556 Eh           31622.29737 eV
Virial Ratio       :            2.00534546


DFT components:
N(Alpha)           :      110.000000515739 electrons
N(Beta)            :      110.000000515739 electrons
N(Total)           :      220.000001031478 electrons
E(X)               :     -169.584503695804 Eh       
E(C)               :       -7.445284450679 Eh       
E(XC)              :     -177.029788146484 Eh       
DFET-embed. en.    :        0.000000000000 Eh       
CPCM Solvation Model Properties:
Surface-charge          :           -0.04520004
Charge-correction       :           -0.00007153 Eh              -0.00195 eV
Free-energy (cav+disp)  :  This term is not implemented in the current solvation scheme

---------------
SCF CONVERGENCE
---------------

  Last Energy change         ...    1.0721e-08  Tolerance :   1.0000e-07
  Last MAX-Density change    ...    2.7291e-06  Tolerance :   1.0000e-05
  Last RMS-Density change    ...    2.6131e-08  Tolerance :   1.0000e-06
  Last DIIS Error            ...    3.4548e-06  Tolerance :   1.0000e-07

             **** THE GBW FILE WAS UPDATED (inpS.gbw) ****
             **** DENSITY inpS.scfp WAS UPDATED ****
             **** ENERGY FILE WAS UPDATED (inpS.en.tmp) ****
             **** THE GBW FILE WAS UPDATED (inpS.gbw) ****
             **** DENSITY inpS.scfp WAS UPDATED ****
----------------
ORBITAL ENERGIES
----------------

  NO   OCC          E(Eh)            E(eV) 
   0   2.0000     -18.903708      -514.3960 
   1   2.0000     -10.057239      -273.6714 
   2   2.0000     -10.016421      -272.5607 
   3   2.0000     -10.014742      -272.5150 
   4   2.0000     -10.012240      -272.4469 
   5   2.0000     -10.012056      -272.4419 
   6   2.0000     -10.012037      -272.4414 
   7   2.0000     -10.011840      -272.4360 
   8   2.0000     -10.010307      -272.3943 
   9   2.0000     -10.009871      -272.3824 
  10   2.0000     -10.009679      -272.3772 
  11   2.0000     -10.008145      -272.3355 
  12   2.0000     -10.007572      -272.3199 
  13   2.0000     -10.006304      -272.2854 
  14   2.0000     -10.006150      -272.2812 
  15   2.0000     -10.005090      -272.2523 
  16   2.0000     -10.004869      -272.2463 
  17   2.0000     -10.000918      -272.1388 
  18   2.0000     -10.000431      -272.1255 
  19   2.0000      -9.999564      -272.1020 
  20   2.0000      -9.999269      -272.0939 
  21   2.0000      -9.998764      -272.0802 
  22   2.0000      -9.998542      -272.0742 
  23   2.0000      -9.997660      -272.0502 
  24   2.0000      -9.996614      -272.0217 
  25   2.0000      -9.996158      -272.0093 
  26   2.0000      -9.995990      -272.0047 
  27   2.0000      -9.995103      -271.9806 
  28   2.0000      -9.994018      -271.9511 
  29   2.0000      -0.954374       -25.9698 
  30   2.0000      -0.807826       -21.9821 
  31   2.0000      -0.789535       -21.4843 
  32   2.0000      -0.770636       -20.9701 
  33   2.0000      -0.756746       -20.5921 
  34   2.0000      -0.734460       -19.9857 
  35   2.0000      -0.728037       -19.8109 
  36   2.0000      -0.708901       -19.2902 
  37   2.0000      -0.708833       -19.2883 
  38   2.0000      -0.693627       -18.8746 
  39   2.0000      -0.675939       -18.3932 
  40   2.0000      -0.657619       -17.8947 
  41   2.0000      -0.651732       -17.7345 
  42   2.0000      -0.635832       -17.3019 
  43   2.0000      -0.628793       -17.1103 
  44   2.0000      -0.625675       -17.0255 
  45   2.0000      -0.619463       -16.8564 
  46   2.0000      -0.598097       -16.2750 
  47   2.0000      -0.591012       -16.0822 
  48   2.0000      -0.559322       -15.2199 
  49   2.0000      -0.547719       -14.9042 
  50   2.0000      -0.541277       -14.7289 
  51   2.0000      -0.536070       -14.5872 
  52   2.0000      -0.526160       -14.3175 
  53   2.0000      -0.507647       -13.8138 
  54   2.0000      -0.493494       -13.4287 
  55   2.0000      -0.473048       -12.8723 
  56   2.0000      -0.466756       -12.7011 
  57   2.0000      -0.463213       -12.6047 
  58   2.0000      -0.451231       -12.2786 
  59   2.0000      -0.446117       -12.1395 
  60   2.0000      -0.434338       -11.8189 
  61   2.0000      -0.429623       -11.6906 
  62   2.0000      -0.425876       -11.5887 
  63   2.0000      -0.417247       -11.3539 
  64   2.0000      -0.414182       -11.2705 
  65   2.0000      -0.409048       -11.1308 
  66   2.0000      -0.404710       -11.0127 
  67   2.0000      -0.397903       -10.8275 
  68   2.0000      -0.397016       -10.8033 
  69   2.0000      -0.394164       -10.7257 
  70   2.0000      -0.389807       -10.6072 
  71   2.0000      -0.382566       -10.4101 
  72   2.0000      -0.380168       -10.3449 
  73   2.0000      -0.372305       -10.1309 
  74   2.0000      -0.371738       -10.1155 
  75   2.0000      -0.362755        -9.8711 
  76   2.0000      -0.359981        -9.7956 
  77   2.0000      -0.357371        -9.7246 
  78   2.0000      -0.354951        -9.6587 
  79   2.0000      -0.352255        -9.5853 
  80   2.0000      -0.346322        -9.4239 
  81   2.0000      -0.345529        -9.4023 
  82   2.0000      -0.342983        -9.3330 
  83   2.0000      -0.338210        -9.2032 
  84   2.0000      -0.329786        -8.9739 
  85   2.0000      -0.325836        -8.8665 
  86   2.0000      -0.322974        -8.7886 
  87   2.0000      -0.318753        -8.6737 
  88   2.0000      -0.314789        -8.5658 
  89   2.0000      -0.310480        -8.4486 
  90   2.0000      -0.309444        -8.4204 
  91   2.0000      -0.306089        -8.3291 
  92   2.0000      -0.303308        -8.2534 
  93   2.0000      -0.297167        -8.0863 
  94   2.0000      -0.290784        -7.9126 
  95   2.0000      -0.287759        -7.8303 
  96   2.0000      -0.285758        -7.7759 
  97   2.0000      -0.282800        -7.6954 
  98   2.0000      -0.281491        -7.6598 
  99   2.0000      -0.278431        -7.5765 
 100   2.0000      -0.275868        -7.5068 
 101   2.0000      -0.273914        -7.4536 
 102   2.0000      -0.272078        -7.4036 
 103   2.0000      -0.267275        -7.2729 
 104   2.0000      -0.259673        -7.0661 
 105   2.0000      -0.250043        -6.8040 
 106   2.0000      -0.229733        -6.2514 
 107   2.0000      -0.228683        -6.2228 
 108   2.0000      -0.213021        -5.7966 
 109   2.0000      -0.183584        -4.9956 
 110   0.0000      -0.056943        -1.5495 
 111   0.0000      -0.014160        -0.3853 
 112   0.0000      -0.004472        -0.1217 
 113   0.0000       0.029107         0.7920 
 114   0.0000       0.036516         0.9936 
 115   0.0000       0.040883         1.1125 
 116   0.0000       0.046180         1.2566 
 117   0.0000       0.047489         1.2922 
 118   0.0000       0.053042         1.4434 
 119   0.0000       0.056675         1.5422 
 120   0.0000       0.060702         1.6518 
 121   0.0000       0.065822         1.7911 
 122   0.0000       0.070939         1.9304 
 123   0.0000       0.075766         2.0617 
 124   0.0000       0.079912         2.1745 
 125   0.0000       0.082314         2.2399 
 126   0.0000       0.085308         2.3214 
 127   0.0000       0.086549         2.3551 
 128   0.0000       0.088541         2.4093 
 129   0.0000       0.091591         2.4923 
 130   0.0000       0.096846         2.6353 
 131   0.0000       0.100768         2.7421 
 132   0.0000       0.103083         2.8050 
 133   0.0000       0.106685         2.9030 
 134   0.0000       0.107643         2.9291 
 135   0.0000       0.110625         3.0103 
 136   0.0000       0.115084         3.1316 
 137   0.0000       0.117728         3.2035 
 138   0.0000       0.120898         3.2898 
 139   0.0000       0.123357         3.3567 
 140   0.0000       0.126870         3.4523 
 141   0.0000       0.128139         3.4868 
 142   0.0000       0.129434         3.5221 
 143   0.0000       0.135291         3.6815 
 144   0.0000       0.138422         3.7666 
 145   0.0000       0.140362         3.8195 
 146   0.0000       0.141549         3.8518 
 147   0.0000       0.145574         3.9613 
 148   0.0000       0.150338         4.0909 
 149   0.0000       0.152270         4.1435 
 150   0.0000       0.153182         4.1683 
 151   0.0000       0.160131         4.3574 
 152   0.0000       0.160882         4.3778 
 153   0.0000       0.162302         4.4165 
 154   0.0000       0.167989         4.5712 
 155   0.0000       0.174082         4.7370 
 156   0.0000       0.175245         4.7687 
 157   0.0000       0.177470         4.8292 
 158   0.0000       0.181617         4.9420 
 159   0.0000       0.183353         4.9893 
 160   0.0000       0.188464         5.1284 
 161   0.0000       0.192160         5.2289 
 162   0.0000       0.192519         5.2387 
 163   0.0000       0.194714         5.2984 
 164   0.0000       0.203979         5.5506 
 165   0.0000       0.205012         5.5787 
 166   0.0000       0.206733         5.6255 
 167   0.0000       0.210777         5.7355 
 168   0.0000       0.211058         5.7432 
 169   0.0000       0.217940         5.9304 
 170   0.0000       0.221297         6.0218 
 171   0.0000       0.224474         6.1082 
 172   0.0000       0.230591         6.2747 
 173   0.0000       0.233688         6.3590 
 174   0.0000       0.240924         6.5559 
 175   0.0000       0.243716         6.6318 
 176   0.0000       0.245577         6.6825 
 177   0.0000       0.255512         6.9528 
 178   0.0000       0.259797         7.0694 
 179   0.0000       0.267104         7.2683 
 180   0.0000       0.273682         7.4473 
 181   0.0000       0.283482         7.7139 
 182   0.0000       0.291055         7.9200 
 183   0.0000       0.295328         8.0363 
 184   0.0000       0.303968         8.2714 
 185   0.0000       0.325613         8.8604 
 186   0.0000       0.331166         9.0115 
 187   0.0000       0.338367         9.2074 
 188   0.0000       0.345853         9.4111 
 189   0.0000       0.352628         9.5955 
 190   0.0000       0.358454         9.7540 
 191   0.0000       0.364953         9.9309 
 192   0.0000       0.366461         9.9719 
 193   0.0000       0.374626        10.1941 
 194   0.0000       0.378264        10.2931 
 195   0.0000       0.382789        10.4162 
 196   0.0000       0.385859        10.4998 
 197   0.0000       0.386624        10.5206 
 198   0.0000       0.397155        10.8071 
 199   0.0000       0.399741        10.8775 
 200   0.0000       0.405669        11.0388 
 201   0.0000       0.408826        11.1247 
 202   0.0000       0.414223        11.2716 
 203   0.0000       0.421450        11.4682 
 204   0.0000       0.421935        11.4814 
 205   0.0000       0.426356        11.6017 
 206   0.0000       0.429100        11.6764 
 207   0.0000       0.444711        12.1012 
 208   0.0000       0.448786        12.2121 
 209   0.0000       0.453879        12.3507 
 210   0.0000       0.459974        12.5165 
 211   0.0000       0.462736        12.5917 
 212   0.0000       0.469856        12.7854 
 213   0.0000       0.479220        13.0402 
 214   0.0000       0.480360        13.0713 
 215   0.0000       0.484262        13.1774 
 216   0.0000       0.487274        13.2594 
 217   0.0000       0.495042        13.4708 
 218   0.0000       0.500576        13.6214 
 219   0.0000       0.500938        13.6312 
 220   0.0000       0.505475        13.7547 
 221   0.0000       0.510399        13.8887 
 222   0.0000       0.514577        14.0023 
 223   0.0000       0.519471        14.1355 
 224   0.0000       0.524430        14.2705 
 225   0.0000       0.529354        14.4045 
 226   0.0000       0.536369        14.5954 
 227   0.0000       0.540055        14.6957 
 228   0.0000       0.542101        14.7513 
 229   0.0000       0.542796        14.7702 
 230   0.0000       0.545010        14.8305 
 231   0.0000       0.553319        15.0566 
 232   0.0000       0.553697        15.0669 
 233   0.0000       0.561191        15.2708 
 234   0.0000       0.564859        15.3706 
 235   0.0000       0.568408        15.4672 
 236   0.0000       0.570536        15.5251 
 237   0.0000       0.572768        15.5858 
 238   0.0000       0.574864        15.6428 
 239   0.0000       0.578784        15.7495 
 240   0.0000       0.582675        15.8554 
 241   0.0000       0.583912        15.8890 
 242   0.0000       0.588417        16.0116 
 243   0.0000       0.590812        16.0768 
 244   0.0000       0.591108        16.0849 
 245   0.0000       0.596291        16.2259 
 246   0.0000       0.598149        16.2765 
 247   0.0000       0.601871        16.3777 
 248   0.0000       0.603417        16.4198 
 249   0.0000       0.605655        16.4807 
 250   0.0000       0.607525        16.5316 
 251   0.0000       0.609035        16.5727 
 252   0.0000       0.610059        16.6006 
 253   0.0000       0.613430        16.6923 
 254   0.0000       0.616042        16.7633 
 255   0.0000       0.619621        16.8608 
 256   0.0000       0.622619        16.9423 
 257   0.0000       0.628123        17.0921 
 258   0.0000       0.630074        17.1452 
 259   0.0000       0.634157        17.2563 
 260   0.0000       0.635898        17.3037 
 261   0.0000       0.639366        17.3980 
 262   0.0000       0.642169        17.4743 
 263   0.0000       0.644432        17.5359 
 264   0.0000       0.648357        17.6427 
 265   0.0000       0.649144        17.6641 
 266   0.0000       0.652101        17.7446 
 267   0.0000       0.652655        17.7597 
 268   0.0000       0.656764        17.8715 
 269   0.0000       0.664183        18.0733 
 270   0.0000       0.665024        18.0962 
 271   0.0000       0.666093        18.1253 
 272   0.0000       0.671045        18.2601 
 273   0.0000       0.672949        18.3119 
 274   0.0000       0.675292        18.3756 
 275   0.0000       0.679376        18.4868 
 276   0.0000       0.682529        18.5726 
 277   0.0000       0.685062        18.6415 
 278   0.0000       0.689944        18.7743 
 279   0.0000       0.692894        18.8546 
 280   0.0000       0.695045        18.9131 
 281   0.0000       0.699898        19.0452 
 282   0.0000       0.704696        19.1757 
 283   0.0000       0.709507        19.3067 
 284   0.0000       0.714834        19.4516 
 285   0.0000       0.719191        19.5702 
 286   0.0000       0.723075        19.6759 
 287   0.0000       0.727587        19.7986 
 288   0.0000       0.733343        19.9553 
 289   0.0000       0.741352        20.1732 
 290   0.0000       0.744375        20.2555 
 291   0.0000       0.748930        20.3794 
 292   0.0000       0.751469        20.4485 
 293   0.0000       0.760410        20.6918 
 294   0.0000       0.763103        20.7651 
 295   0.0000       0.770427        20.9644 
 296   0.0000       0.773079        21.0366 
 297   0.0000       0.782774        21.3004 
 298   0.0000       0.788632        21.4598 
 299   0.0000       0.796307        21.6686 
 300   0.0000       0.799363        21.7518 
 301   0.0000       0.805739        21.9253 
 302   0.0000       0.811698        22.0874 
 303   0.0000       0.822764        22.3885 
 304   0.0000       0.838509        22.8170 
 305   0.0000       0.856778        23.3141 
 306   0.0000       0.871248        23.7079 
 307   0.0000       0.889320        24.1996 
 308   0.0000       0.893334        24.3089 
 309   0.0000       0.914439        24.8832 
 310   0.0000       0.933947        25.4140 
 311   0.0000       0.940221        25.5847 
 312   0.0000       0.954063        25.9614 
 313   0.0000       0.969824        26.3903 
 314   0.0000       0.983576        26.7645 
 315   0.0000       0.991244        26.9731 
 316   0.0000       1.007045        27.4031 
 317   0.0000       1.019489        27.7417 
 318   0.0000       1.026155        27.9231 
 319   0.0000       1.031718        28.0745 
 320   0.0000       1.044737        28.4287 
 321   0.0000       1.058736        28.8097 
 322   0.0000       1.060807        28.8660 
 323   0.0000       1.067675        29.0529 
 324   0.0000       1.092347        29.7243 
 325   0.0000       1.113914        30.3111 
 326   0.0000       1.134217        30.8636 
 327   0.0000       1.147193        31.2167 
 328   0.0000       1.160722        31.5849 
 329   0.0000       1.169445        31.8222 
 330   0.0000       1.183165        32.1956 
 331   0.0000       1.213800        33.0292 
 332   0.0000       1.226665        33.3792 
 333   0.0000       1.232997        33.5515 
 334   0.0000       1.251486        34.0547 
 335   0.0000       1.263661        34.3860 
 336   0.0000       1.289703        35.0946 
 337   0.0000       1.291100        35.1326 
 338   0.0000       1.303196        35.4618 
 339   0.0000       1.305886        35.5350 
 340   0.0000       1.315762        35.8037 
 341   0.0000       1.323488        36.0139 
 342   0.0000       1.337862        36.4051 
 343   0.0000       1.347050        36.6551 
 344   0.0000       1.359741        37.0004 
 345   0.0000       1.378420        37.5087 
 346   0.0000       1.383303        37.6416 
 347   0.0000       1.397379        38.0246 
 348   0.0000       1.411069        38.3971 
 349   0.0000       1.418037        38.5867 
 350   0.0000       1.425119        38.7795 
 351   0.0000       1.432957        38.9927 
 352   0.0000       1.448333        39.4111 
 353   0.0000       1.453746        39.5584 
 354   0.0000       1.457920        39.6720 
 355   0.0000       1.474591        40.1257 
 356   0.0000       1.490807        40.5669 
 357   0.0000       1.501270        40.8516 
 358   0.0000       1.502328        40.8804 
 359   0.0000       1.507745        41.0278 
 360   0.0000       1.518444        41.3190 
 361   0.0000       1.520918        41.3863 
 362   0.0000       1.528615        41.5957 
 363   0.0000       1.532525        41.7021 
 364   0.0000       1.550966        42.2039 
 365   0.0000       1.562559        42.5194 
 366   0.0000       1.575028        42.8587 
 367   0.0000       1.588578        43.2274 
 368   0.0000       1.595580        43.4179 
 369   0.0000       1.607609        43.7453 
 370   0.0000       1.610043        43.8115 
 371   0.0000       1.618201        44.0335 
 372   0.0000       1.628405        44.3112 
 373   0.0000       1.639855        44.6227 
 374   0.0000       1.651730        44.9458 
 375   0.0000       1.659052        45.1451 
 376   0.0000       1.666914        45.3590 
 377   0.0000       1.676290        45.6142 
 378   0.0000       1.681561        45.7576 
 379   0.0000       1.683525        45.8111 
 380   0.0000       1.690464        45.9999 
 381   0.0000       1.691928        46.0397 
 382   0.0000       1.697553        46.1928 
 383   0.0000       1.705759        46.4161 
 384   0.0000       1.714085        46.6426 
 385   0.0000       1.720517        46.8177 
 386   0.0000       1.722952        46.8839 
 387   0.0000       1.728944        47.0470 
 388   0.0000       1.733515        47.1713 
 389   0.0000       1.739546        47.3354 
 390   0.0000       1.745617        47.5007 
 391   0.0000       1.754508        47.7426 
 392   0.0000       1.757048        47.8117 
 393   0.0000       1.760591        47.9081 
 394   0.0000       1.769200        48.1424 
 395   0.0000       1.773028        48.2465 
 396   0.0000       1.775142        48.3041 
 397   0.0000       1.783147        48.5219 
 398   0.0000       1.787729        48.6466 
 399   0.0000       1.793455        48.8024 
 400   0.0000       1.798905        48.9507 
 401   0.0000       1.799587        48.9692 
 402   0.0000       1.808359        49.2079 
 403   0.0000       1.813766        49.3551 
 404   0.0000       1.820184        49.5297 
 405   0.0000       1.825383        49.6712 
 406   0.0000       1.832615        49.8680 
 407   0.0000       1.843916        50.1755 
 408   0.0000       1.850132        50.3446 
 409   0.0000       1.856728        50.5241 
 410   0.0000       1.862357        50.6773 
 411   0.0000       1.871626        50.9295 
 412   0.0000       1.875507        51.0351 
 413   0.0000       1.882701        51.2309 
 414   0.0000       1.890922        51.4546 
 415   0.0000       1.897472        51.6328 
 416   0.0000       1.902296        51.7641 
 417   0.0000       1.906158        51.8692 
 418   0.0000       1.912044        52.0294 
 419   0.0000       1.919484        52.2318 
 420   0.0000       1.932324        52.5812 
 421   0.0000       1.937083        52.7107 
 422   0.0000       1.945137        52.9299 
 423   0.0000       1.951796        53.1111 
 424   0.0000       1.953149        53.1479 
 425   0.0000       1.961530        53.3760 
 426   0.0000       1.966293        53.5056 
 427   0.0000       1.970459        53.6189 
 428   0.0000       1.974542        53.7300 
 429   0.0000       1.980583        53.8944 
 430   0.0000       1.986847        54.0648 
 431   0.0000       1.989592        54.1395 
 432   0.0000       1.992983        54.2318 
 433   0.0000       1.993400        54.2432 
 434   0.0000       1.998234        54.3747 
 435   0.0000       2.001921        54.4750 
 436   0.0000       2.006928        54.6113 
 437   0.0000       2.012818        54.7716 
 438   0.0000       2.014720        54.8233 
 439   0.0000       2.017372        54.8955 
 440   0.0000       2.025897        55.1275 
 441   0.0000       2.030638        55.2565 
 442   0.0000       2.039795        55.5056 
 443   0.0000       2.043098        55.5955 
[...]

 --------------
 Nucleus  47H :
 --------------

Diamagnetic contribution to the shielding tensor (ppm) : 
            34.153         -3.449        -6.331
            -4.343         37.719         6.195
            -6.375          7.778        44.934

Paramagnetic contribution to the shielding tensor (ppm): 
            -2.325          1.399         3.946
             2.108        -10.313        -3.505
             3.244         -4.415       -10.423

Total shielding tensor (ppm): 
            31.828         -2.050        -2.385
            -2.235         27.406         2.690
            -3.131          3.363        34.511


 Diagonalized sT*s matrix:
 
 sDSO            33.687           31.577           51.542  iso=      38.936
 sPSO            -7.637           -1.465          -13.958  iso=      -7.687
        ---------------  ---------------  ---------------
 Total           26.050           30.112           37.584  iso=      31.249

 --------------
 Nucleus  48H :
 --------------

Diamagnetic contribution to the shielding tensor (ppm) : 
            35.398          0.285        -2.689
            -0.952         40.727        -6.864
            -1.624         -1.761        43.325

Paramagnetic contribution to the shielding tensor (ppm): 
            -3.896          0.835         3.240
             1.408        -13.423         3.530
             1.694         -0.624       -12.773

Total shielding tensor (ppm): 
            31.502          1.120         0.551
             0.456         27.304        -3.334
             0.070         -2.385        30.552


 Diagonalized sT*s matrix:
 
 sDSO            38.000           34.779           46.671  iso=      39.817
 sPSO           -12.477           -3.185          -14.429  iso=     -10.031
        ---------------  ---------------  ---------------
 Total           25.523           31.593           32.242  iso=      29.786

 --------------
 Nucleus  52H :
 --------------

Diamagnetic contribution to the shielding tensor (ppm) : 
            44.124          3.448        -8.501
            11.095         27.313        -2.100
           -12.667         -4.085        48.655

Paramagnetic contribution to the shielding tensor (ppm): 
           -16.465         -0.757        12.618
            -8.266         -3.043         3.657
            15.815          5.112       -21.540

Total shielding tensor (ppm): 
            27.659          2.692         4.118
             2.828         24.270         1.557
             3.148          1.028        27.115


 Diagonalized sT*s matrix:
 
 sDSO            30.104           53.142           36.846  iso=      40.031
 sPSO            -7.553          -28.766           -4.729  iso=     -13.683
        ---------------  ---------------  ---------------
 Total           22.551           24.376           32.117  iso=      26.348

 --------------
 Nucleus  53H :
 --------------

Diamagnetic contribution to the shielding tensor (ppm) : 
            44.810          6.418        -8.324
             3.880         42.458        -4.224
            -1.011         -4.725        49.894

Paramagnetic contribution to the shielding tensor (ppm): 
           -14.927         -5.903        14.878
            -3.467        -20.167         6.942
             6.363          6.580       -23.436

Total shielding tensor (ppm): 
            29.884          0.515         6.554
             0.413         22.291         2.718
             5.352          1.855        26.458


 Diagonalized sT*s matrix:
 
 sDSO            54.137           40.445           42.581  iso=      45.721
 sPSO           -33.659          -16.904           -7.966  iso=     -19.510
        ---------------  ---------------  ---------------
 Total           20.478           23.541           34.614  iso=      26.211

 --------------
 Nucleus  57H :
 --------------

Diamagnetic contribution to the shielding tensor (ppm) : 
            32.430         -1.793        -6.282
            11.768         41.723        16.075
            -1.657          3.590        44.232

Paramagnetic contribution to the shielding tensor (ppm): 
            -3.365         -0.707         6.492
           -13.977         -9.825       -12.234
             2.039         -1.518       -16.330

Total shielding tensor (ppm): 
            29.065         -2.501         0.210
            -2.209         31.897         3.841
             0.382          2.073        27.903


 Diagonalized sT*s matrix:
 
 sDSO            38.516           34.378           45.491  iso=      39.462
 sPSO           -12.828           -5.432          -11.260  iso=      -9.840
        ---------------  ---------------  ---------------
 Total           25.688           28.946           34.231  iso=      29.622

 --------------
 Nucleus  58H :
 --------------

Diamagnetic contribution to the shielding tensor (ppm) : 
            35.070          3.695       -11.444
            -0.120         28.077        -4.275
             5.888         -5.911        48.385

Paramagnetic contribution to the shielding tensor (ppm): 
            -1.693         -2.755         9.704
             1.722         -2.053         2.932
            -8.192          5.453       -17.083

Total shielding tensor (ppm): 
            33.377          0.941        -1.740
             1.602         26.024        -1.343
            -2.305         -0.458        31.302


 Diagonalized sT*s matrix:
 
 sDSO            26.993           42.368           42.170  iso=      37.177
 sPSO            -1.244          -12.300           -7.286  iso=      -6.943
        ---------------  ---------------  ---------------
 Total           25.750           30.069           34.884  iso=      30.234

 --------------
 Nucleus  61H :
 --------------

Diamagnetic contribution to the shielding tensor (ppm) : 
            36.099         -4.959        -5.231
            -0.535         28.388        10.754
           -10.370          6.809        32.470

Paramagnetic contribution to the shielding tensor (ppm): 
            -4.891          3.188         2.301
            -1.468          2.135        -8.633
             8.107         -4.681        -0.977

Total shielding tensor (ppm): 
            31.208         -1.772        -2.929
            -2.003         30.523         2.120
            -2.263          2.128        31.493


 Diagonalized sT*s matrix:
 
 sDSO            23.214           27.973           45.770  iso=      32.319
 sPSO             5.505            0.977          -10.216  iso=      -1.245
        ---------------  ---------------  ---------------
 Total           28.719           28.950           35.554  iso=      31.074

 --------------
 Nucleus  62H :
 --------------

Diamagnetic contribution to the shielding tensor (ppm) : 
            40.126          4.308         6.090
            17.388         28.083        14.673
            -0.312          4.857        17.584

Paramagnetic contribution to the shielding tensor (ppm): 
            -6.140          0.790        -3.875
           -12.147          0.225       -14.996
             1.995         -5.368        12.470

Total shielding tensor (ppm): 
            33.986          5.098         2.215
             5.241         28.307        -0.323
             1.683         -0.511        30.054


 Diagonalized sT*s matrix:
 
 sDSO            24.803           12.778           48.211  iso=      28.598
 sPSO             0.080           17.341          -10.865  iso=       2.185
        ---------------  ---------------  ---------------
 Total           24.883           30.119           37.345  iso=      30.783

 --------------
 Nucleus  63H :
 --------------

Diamagnetic contribution to the shielding tensor (ppm) : 
            33.471          0.312        -0.345
            21.016         32.804        -0.413
           -14.258         -7.904        34.616

Paramagnetic contribution to the shielding tensor (ppm): 
            -4.436          0.818         0.884
           -19.308         -0.656        -5.258
            15.119          2.801        -2.973

Total shielding tensor (ppm): 
            29.035          1.130         0.539
             1.708         32.148        -5.671
             0.861         -5.103        31.642


 Diagonalized sT*s matrix:
 
 sDSO            28.390           32.958           39.543  iso=      33.630
 sPSO            -2.578           -3.269           -2.219  iso=      -2.689
        ---------------  ---------------  ---------------
 Total           25.812           29.689           37.324  iso=      30.942

 --------------
 Nucleus  64H :
 --------------

Diamagnetic contribution to the shielding tensor (ppm) : 
            22.422         -1.684        -1.152
             9.172         24.904        20.430
            13.108          6.326        32.697

Paramagnetic contribution to the shielding tensor (ppm): 
             5.145          1.887         2.483
           -10.133          8.389       -15.599
           -12.264         -0.805        -1.211

Total shielding tensor (ppm): 
            27.568          0.203         1.331
            -0.961         33.293         4.831
             0.844          5.521        31.486


 Diagonalized sT*s matrix:
 
 sDSO            16.659           21.662           41.703  iso=      26.674
 sPSO             9.589            6.777           -4.044  iso=       4.108
        ---------------  ---------------  ---------------
 Total           26.248           28.439           37.659  iso=      30.782

 --------------
 Nucleus  65H :
 --------------

Diamagnetic contribution to the shielding tensor (ppm) : 
            39.322          2.956         4.179
             5.735         12.674         8.174
             5.275         -1.100        19.310

Paramagnetic contribution to the shielding tensor (ppm): 
            -4.014         -0.501        -3.572
            -3.273         14.403        -8.582
            -4.039          1.114        10.629

Total shielding tensor (ppm): 
            35.308          2.455         0.607
             2.462         27.077        -0.408
             1.236          0.015        29.939


 Diagonalized sT*s matrix:
 
 sDSO            12.998           17.542           40.767  iso=      23.769
 sPSO            13.348           12.337           -4.667  iso=       7.006
        ---------------  ---------------  ---------------
 Total           26.345           29.879           36.100  iso=      30.775

 --------------
 Nucleus  66H :
 --------------

Diamagnetic contribution to the shielding tensor (ppm) : 
            21.882         -1.171         5.322
            -0.513          5.557        -6.881
            18.970         -5.414        36.565

Paramagnetic contribution to the shielding tensor (ppm): 
             5.920          0.566        -1.231
             0.610         22.677         4.697
           -15.413          3.076        -0.689

Total shielding tensor (ppm): 
            27.802         -0.605         4.090
             0.097         28.234        -2.184
             3.557         -2.338        35.875


 Diagonalized sT*s matrix:
 
 sDSO            12.941            7.525           43.537  iso=      21.334
 sPSO            13.129           20.417           -5.639  iso=       9.302
        ---------------  ---------------  ---------------
 Total           26.071           27.942           37.898  iso=      30.637

 --------------
 Nucleus  67H :
 --------------

Diamagnetic contribution to the shielding tensor (ppm) : 
            32.140         -0.855         4.975
           -15.987         37.335       -10.039
             5.982          5.162        32.627

Paramagnetic contribution to the shielding tensor (ppm): 
            -2.069          1.484         0.292
            17.498         -4.686        12.723
            -0.432         -3.040        -2.857

Total shielding tensor (ppm): 
            30.070          0.629         5.267
             1.511         32.649         2.684
             5.550          2.122        29.770


 Diagonalized sT*s matrix:
 
 sDSO            26.148           44.827           31.126  iso=      34.034
 sPSO            -1.762          -13.520            5.670  iso=      -3.204
        ---------------  ---------------  ---------------
 Total           24.386           31.307           36.796  iso=      30.830

 --------------
 Nucleus  68H :
 --------------

Diamagnetic contribution to the shielding tensor (ppm) : 
            25.726         -4.161         2.921
           -20.452         27.375       -20.626
             4.867         -9.187        28.100

Paramagnetic contribution to the shielding tensor (ppm): 
             1.834          2.608        -0.917
            18.594          7.365        15.806
            -3.424          5.214         2.963

Total shielding tensor (ppm): 
            27.560         -1.553         2.004
            -1.858         34.741        -4.821
             1.443         -3.973        31.063


 Diagonalized sT*s matrix:
 
 sDSO            23.541           11.603           46.058  iso=      27.067
 sPSO             3.312           16.711           -7.860  iso=       4.054
        ---------------  ---------------  ---------------
 Total           26.853           28.313           38.199  iso=      31.121

 --------------
 Nucleus  69H :
 --------------

Diamagnetic contribution to the shielding tensor (ppm) : 
            37.743         -5.995        -3.703
           -15.884         22.077        -7.044
             0.177          2.385        24.346

Paramagnetic contribution to the shielding tensor (ppm): 
            -3.410          3.877         1.175
            12.773          8.008         6.939
            -2.746         -2.527         5.153

Total shielding tensor (ppm): 
            34.333         -2.118        -2.527
            -3.112         30.086        -0.105
            -2.568         -0.142        29.500


 Diagonalized sT*s matrix:
 
 sDSO            18.076           24.410           41.681  iso=      28.056
 sPSO             9.569            5.526           -5.343  iso=       3.251
        ---------------  ---------------  ---------------
 Total           27.645           29.936           36.338  iso=      31.306

 --------------
 Nucleus  70H :
 --------------

Diamagnetic contribution to the shielding tensor (ppm) : 
            31.569          1.024         3.457
            -7.130         40.972         7.047
            -0.343          9.330        37.036

Paramagnetic contribution to the shielding tensor (ppm): 
             0.549         -1.074        -2.844
             8.220        -11.258        -1.311
             1.874         -4.580        -8.086

Total shielding tensor (ppm): 
            32.118         -0.050         0.614
             1.091         29.714         5.736
             1.530          4.749        28.950


 Diagonalized sT*s matrix:
 
 sDSO            30.344           34.887           44.345  iso=      36.526
 sPSO            -6.292           -3.174           -9.329  iso=      -6.265
        ---------------  ---------------  ---------------
 Total           24.053           31.714           35.016  iso=      30.261

 --------------
 Nucleus  71H :
 --------------

Diamagnetic contribution to the shielding tensor (ppm) : 
            28.409         -5.737         0.232
           -12.663         43.052        -8.028
            -0.908         -5.633        34.593

Paramagnetic contribution to the shielding tensor (ppm): 
             2.658          3.676         1.167
            11.232         -9.820         5.493
             1.561          3.299        -5.222

Total shielding tensor (ppm): 
            31.067         -2.061         1.398
            -1.431         33.232        -2.535
             0.652         -2.334        29.371


 Diagonalized sT*s matrix:
 
 sDSO            31.501           24.819           49.734  iso=      35.351
 sPSO            -3.319            5.311          -14.376  iso=      -4.128
        ---------------  ---------------  ---------------
 Total           28.182           30.130           35.358  iso=      31.223

 --------------
 Nucleus  72H :
 --------------

Diamagnetic contribution to the shielding tensor (ppm) : 
            37.444         -7.448        -8.069
           -12.453         29.063        -2.222
           -10.193          4.543        30.658

Paramagnetic contribution to the shielding tensor (ppm): 
            -2.531          6.016         4.354
            10.358         -0.623         5.458
             6.773         -2.349        -1.816

Total shielding tensor (ppm): 
            34.913         -1.432        -3.715
            -2.095         28.440         3.235
            -3.420          2.194        28.842


 Diagonalized sT*s matrix:
 
 sDSO            28.955           20.708           47.503  iso=      32.388
 sPSO            -3.230            8.339          -10.079  iso=      -1.657
        ---------------  ---------------  ---------------
 Total           25.725           29.046           37.423  iso=      30.731



--------------------------------
CHEMICAL SHIELDING SUMMARY (ppm)
--------------------------------


  Nucleus  Element    Isotropic     Anisotropy
  -------  -------  ------------   ------------
      3       H           29.366          6.466 
      4       H           29.047          7.433 
      8       H           29.570          7.965 
      9       H           29.338          5.432 
     10       H           30.103          8.372 
     11       H           29.859         10.212 
     13       H           27.732          7.773 
     16       H           26.798          4.710 
     17       H           26.515          4.786 
     19       H           25.398         10.460 
     21       H           25.597         14.873 
     24       H           28.896         10.173 
     25       H           30.019          9.458 
     27       H           30.248          7.178 
     28       H           30.120         11.785 
     30       H           29.734          8.050 
     31       H           30.425          6.835 
     33       H           29.773          4.062 
     35       H           30.161         14.835 
     37       H           30.353         10.692 
     38       H           30.268          9.877 
     40       H           29.674          9.632 
     41       H           30.736          7.671 
     42       H           30.149          7.484 
     45       H           31.222          7.482 
     46       H           31.015          8.061 
     47       H           31.249          9.503 
     48       H           29.786          3.684 
     52       H           26.348          8.653 
     53       H           26.211         12.605 
     57       H           29.622          6.914 
     58       H           30.234          6.975 
     61       H           31.074          6.719 
     62       H           30.783          9.844 
     63       H           30.942          9.574 
     64       H           30.782         10.316 
     65       H           30.775          7.988 
     66       H           30.637         10.892 
     67       H           30.830          8.949 
     68       H           31.121         10.616 
     69       H           31.306          7.548 
     70       H           30.261          7.133 
     71       H           31.223          6.202 
     72       H           30.731         10.038 



Maximum memory used throughout the entire EPRNMR-calculation: 141.0 MB

Timings for individual modules:

Sum of individual times         ...      144.236 sec (=   2.404 min)
GTO integral calculation        ...        0.801 sec (=   0.013 min)   0.6 %
SCF iterations                  ...       97.072 sec (=   1.618 min)  67.3 %
EPR/NMR calculation             ...       46.363 sec (=   0.773 min)  32.1 %
                             ****ORCA TERMINATED NORMALLY****
TOTAL RUN TIME: 0 days 0 hours 2 minutes 24 seconds 737 msec
