
                                 *****************
                                 * O   R   C   A *
                                 *****************

                                            #,                                       
                                            ###                                      
                                            ####                                     
                                            #####                                    
                                            ######                                   
                                           ########,                                 
                                     ,,################,,,,,                         
                               ,,#################################,,                 
                          ,,##########################################,,             
                       ,#########################################, ''#####,          
                    ,#############################################,,   '####,        
                  ,##################################################,,,,####,       
                ,###########''''           ''''###############################       
              ,#####''   ,,,,##########,,,,          '''####'''          '####       
            ,##' ,,,,###########################,,,                        '##       
           ' ,,###''''                  '''############,,,                           
         ,,##''                                '''############,,,,        ,,,,,,###''
      ,#''                                            '''#######################'''  
     '                                                          ''''####''''         
             ,#######,   #######,   ,#######,      ##                                
            ,#'     '#,  ##    ##  ,#'     '#,    #''#        ######   ,####,        
            ##       ##  ##   ,#'  ##            #'  '#       #        #'  '#        
            ##       ##  #######   ##           ,######,      #####,   #    #        
            '#,     ,#'  ##    ##  '#,     ,#' ,#      #,         ##   #,  ,#        
             '#######'   ##     ##  '#######'  #'      '#     #####' # '####'        



                  #######################################################
                  #                        -***-                        #
                  #          Department of theory and spectroscopy      #
                  #    Directorship and core code : Frank Neese         #
                  #        Max Planck Institute fuer Kohlenforschung    #
                  #                Kaiser Wilhelm Platz 1               #
                  #                 D-45470 Muelheim/Ruhr               #
                  #                      Germany                        #
                  #                                                     #
                  #                  All rights reserved                #
                  #                        -***-                        #
                  #######################################################


                         Program Version 5.0.2 -  RELEASE  -


 With contributions from (in alphabetic order):
   Daniel Aravena         : Magnetic Suceptibility
   Michael Atanasov       : Ab Initio Ligand Field Theory (pilot matlab implementation)
   Alexander A. Auer      : GIAO ZORA, VPT2 properties, NMR spectrum
   Ute Becker             : Parallelization
   Giovanni Bistoni       : ED, misc. LED, open-shell LED, HFLD
   Martin Brehm           : Molecular dynamics
   Dmytro Bykov           : SCF Hessian
   Vijay G. Chilkuri      : MRCI spin determinant printing, contributions to CSF-ICE
   Dipayan Datta          : RHF DLPNO-CCSD density
   Achintya Kumar Dutta   : EOM-CC, STEOM-CC
   Dmitry Ganyushin       : Spin-Orbit,Spin-Spin,Magnetic field MRCI
   Miquel Garcia          : C-PCM and meta-GGA Hessian, CC/C-PCM, Gaussian charge scheme
   Yang Guo               : DLPNO-NEVPT2, F12-NEVPT2, CIM, IAO-localization
   Andreas Hansen         : Spin unrestricted coupled pair/coupled cluster methods
   Benjamin Helmich-Paris : MC-RPA, TRAH-SCF, COSX integrals
   Lee Huntington         : MR-EOM, pCC
   Robert Izsak           : Overlap fitted RIJCOSX, COSX-SCS-MP3, EOM
   Marcus Kettner         : VPT2
   Christian Kollmar      : KDIIS, OOCD, Brueckner-CCSD(T), CCSD density, CASPT2, CASPT2-K
   Simone Kossmann        : Meta GGA functionals, TD-DFT gradient, OOMP2, MP2 Hessian
   Martin Krupicka        : Initial AUTO-CI
   Lucas Lang             : DCDCAS
   Marvin Lechner         : AUTO-CI (C++ implementation), FIC-MRCC
   Dagmar Lenk            : GEPOL surface, SMD
   Dimitrios Liakos       : Extrapolation schemes; Compound Job, initial MDCI parallelization
   Dimitrios Manganas     : Further ROCIS development; embedding schemes
   Dimitrios Pantazis     : SARC Basis sets
   Anastasios Papadopoulos: AUTO-CI, single reference methods and gradients
   Taras Petrenko         : DFT Hessian,TD-DFT gradient, ASA, ECA, R-Raman, ABS, FL, XAS/XES, NRVS
   Peter Pinski           : DLPNO-MP2, DLPNO-MP2 Gradient
   Christoph Reimann      : Effective Core Potentials
   Marius Retegan         : Local ZFS, SOC
   Christoph Riplinger    : Optimizer, TS searches, QM/MM, DLPNO-CCSD(T), (RO)-DLPNO pert. Triples
   Tobias Risthaus        : Range-separated hybrids, TD-DFT gradient, RPA, STAB
   Michael Roemelt        : Original ROCIS implementation
   Masaaki Saitow         : Open-shell DLPNO-CCSD energy and density
   Barbara Sandhoefer     : DKH picture change effects
   Avijit Sen             : IP-ROCIS
   Kantharuban Sivalingam : CASSCF convergence, NEVPT2, FIC-MRCI
   Bernardo de Souza      : ESD, SOC TD-DFT
   Georgi Stoychev        : AutoAux, RI-MP2 NMR, DLPNO-MP2 response
   Willem Van den Heuvel  : Paramagnetic NMR
   Boris Wezisla          : Elementary symmetry handling
   Frank Wennmohs         : Technical directorship


 We gratefully acknowledge several colleagues who have allowed us to
 interface, adapt or use parts of their codes:
   Stefan Grimme, W. Hujo, H. Kruse, P. Pracht,  : VdW corrections, initial TS optimization,
                  C. Bannwarth, S. Ehlert          DFT functionals, gCP, sTDA/sTD-DF
   Ed Valeev, F. Pavosevic, A. Kumar             : LibInt (2-el integral package), F12 methods
   Garnet Chan, S. Sharma, J. Yang, R. Olivares  : DMRG
   Ulf Ekstrom                                   : XCFun DFT Library
   Mihaly Kallay                                 : mrcc  (arbitrary order and MRCC methods)
   Jiri Pittner, Ondrej Demel                    : Mk-CCSD
   Frank Weinhold                                : gennbo (NPA and NBO analysis)
   Christopher J. Cramer and Donald G. Truhlar   : smd solvation model
   Lars Goerigk                                  : TD-DFT with DH, B97 family of functionals
   V. Asgeirsson, H. Jonsson                     : NEB implementation
   FAccTs GmbH                                   : IRC, NEB, NEB-TS, DLPNO-Multilevel, CI-OPT
                                                   MM, QMMM, 2- and 3-layer-ONIOM, Crystal-QMMM,
                                                   LR-CPCM, SF, NACMEs, symmetry and pop. for TD-DFT,
                                                   nearIR, NL-DFT gradient (VV10), updates on ESD,
                                                   ML-optimized integration grids
   S Lehtola, MJT Oliveira, MAL Marques          : LibXC Library
   Liviu Ungur et al                             : ANISO software


 Your calculation uses the libint2 library for the computation of 2-el integrals
 For citations please refer to: http://libint.valeyev.net

 Your ORCA version has been built with support for libXC version: 5.1.0
 For citations please refer to: https://tddft.org/programs/libxc/

 This ORCA versions uses:
   CBLAS   interface :  Fast vector & matrix operations
   LAPACKE interface :  Fast linear algebra routines
   SCALAPACK package :  Parallel linear algebra routines
   Shared memory     :  Shared parallel matrices
   BLAS/LAPACK       :  OpenBLAS 0.3.15  USE64BITINT DYNAMIC_ARCH NO_AFFINITY Zen SINGLE_THREADED
        Core in use  :  Zen
   Copyright (c) 2011-2014, The OpenBLAS Project


Your calculation utilizes the atom-pairwise dispersion correction
based on tight binding partial charges (D4)
Cite in your paper:
E.Caldeweyher, C.Bannwarth, S.Grimme, J.Chem.Phys., (2017), 147, 034112.
E.Caldeweyher, S.Ehlert, A.Hansen, H.Neugebauer, S.Grimme, J.Chem.Phys., (2018), in progress.
   

================================================================================

----- Orbital basis set information -----
Your calculation utilizes the basis: pcJ-0
   F. Jensen, Theor. Chem. Acc. 126, 371 (2010).

----- AuxJ basis set information -----
Your calculation utilizes the auxiliary basis: def2/J
   F. Weigend, Phys. Chem. Chem. Phys. 8, 1057 (2006).

================================================================================
                                        WARNINGS
                       Please study these warnings very carefully!
================================================================================


INFO   : the flag for use of the SHARK integral package has been found!

================================================================================
                                       INPUT FILE
================================================================================
NAME = inpJ
|  1> ! pbe0
|  2> ! D4
|  3> ! pcJ-0
|  4> ! def2/J RIJCOSX
|  5> ! DEFGRID2
|  6> ! scfconv7
|  7> ! smallprint printgap noloewdin
|  8> ! NOSOSCF
|  9> %MaxCore 4000
| 10> %output
| 11>        print[P_BondOrder_M] 1
| 12>        print[P_Mayer] 1
| 13>        print[P_basis] 2
| 14> end
| 15> %pal
| 16>     nprocs 4
| 17> end
| 18> ! CPCM(chloroform)
| 19> *xyz 0 1
| 20> C   -5.1830085600   0.1286260900  -0.7137122800
| 21> C   -6.6009663400  -0.3418598000  -0.9341649800
| 22> C   -7.5864406600   0.5550274100  -0.1740543500
| 23> H   -6.7185651400  -1.3836478200  -0.6150603200
| 24> H   -6.8511118100  -0.2844573500  -2.0039384300
| 25> C   -4.9679261600   1.5560542700  -1.0404072900
| 26> C   -5.9704913900   2.4980089100  -0.4115187100
| 27> C   -7.4144340300   2.0123887400  -0.6042460000
| 28> H   -5.8461525700   3.5084624100  -0.8151374000
| 29> H   -5.7600212600   2.5553058200   0.6673698900
| 30> H   -7.6910822900   2.0936428000  -1.6643481400
| 31> H   -8.1036585900   2.6461229400  -0.0342528000
| 32> O   -7.4251651000   0.3970797300   1.2454271400
| 33> H   -8.6130189500   0.2307251200  -0.3850532300
| 34> C   -4.2433481600  -0.6947040800  -0.1909090200
| 35> C   -3.9966367500   1.9811743500  -1.8554996600
| 36> H   -3.2965840900   1.2863620700  -2.3117795300
| 37> H   -3.8864888000   3.0369527100  -2.0918735300
| 38> C   -2.8909021100  -0.3280007300   0.1612693000
| 39> H   -4.5567386600  -1.7188831300   0.0079676500
| 40> C   -1.9233144800  -1.1590530300   0.6042916900
| 41> H   -2.6481055100   0.7281972200   0.0690208600
| 42> C   -2.0569139000  -2.6501112200   0.7801015700
| 43> C   -0.9486530500  -3.4133094800   0.0295231100
| 44> H   -3.0368442000  -3.0193829800   0.4660229800
| 45> H   -1.9574328400  -2.8737899700   1.8544076300
| 46> C    0.4549837100  -2.8843922500   0.3522759500
| 47> H   -1.1333670400  -3.3433542700  -1.0499425200
| 48> H   -1.0083785300  -4.4778883400   0.2870686500
| 49> C    0.5646149800  -1.3722560100   0.1137862700
| 50> H    1.1888404000  -3.4368052300  -0.2434653500
| 51> H    0.6834889900  -3.0854961900   1.4098946900
| 52> C   -0.5494532200  -0.6822150000   0.9634247000
| 53> H   -0.3616504100  -1.0256002300   1.9978742500
| 54> C   -0.1888587000   0.7976351200   0.9062809200
| 55> H   -6.4758865200   0.3661782000   1.4313067900
| 56> C    1.3584205600   0.7888291200   0.9658116000
| 57> H   -0.6404656300   1.3670357900   1.7254897800
| 58> H   -0.5387246100   1.2454308200  -0.0305671200
| 59> C    1.8221689000  -0.6802922700   0.7131908500
| 60> H    1.7154951900   1.1503635600   1.9337973700
| 61> H    1.7893892200   1.4548457400   0.2088741200
| 62> H    1.9996246700  -1.1697655000   1.6840831300
| 63> C    3.1311448800  -0.7380951300  -0.0863741900
| 64> C    0.3975131600  -1.0331053500  -1.3746069300
| 65> H    0.6101251900   0.0216725500  -1.5746534000
| 66> H   -0.6242992600  -1.2300343300  -1.7138621300
| 67> H    1.0776191100  -1.6316507600  -1.9898235600
| 68> H    2.9678546900  -0.1897014100  -1.0280036500
| 69> C    3.5816129600  -2.1633106900  -0.4577860900
| 70> C    4.3003185400  -0.0738241200   0.6089481100
| 71> C    4.4249500400   0.1854923500   1.9102917100
| 72> H    5.1449330200   0.1289185200  -0.0514413500
| 73> H    3.5907292200  -0.0325945200   2.5788827000
| 74> C    5.6366063700   0.7411517000   2.6132274300
| 75> C    6.7943480400   1.0849838000   1.6780973300
| 76> C    6.0391493700  -0.2095080900   3.7764860500
| 77> H    5.3147805300   1.6770293300   3.1018008400
| 78> H    5.1145877300  -0.3977342500   4.3439349600
| 79> C    7.0382568600   0.4415947400   4.7356430500
| 80> C    6.5646603300  -1.5582211700   3.2807710400
| 81> H    7.1553739500   0.2034334800   1.1374994400
| 82> H    7.6351036000   1.5066595500   2.2364244300
| 83> H    6.4840023600   1.8262352300   0.9342385700
| 84> H    6.6833829400   1.4206936400   5.0777322300
| 85> H    8.0166871200   0.5813127800   4.2622172700
| 86> H    7.1897388000  -0.1909997900   5.6173960900
| 87> H    5.8697635800  -2.0234400800   2.5728048800
| 88> H    6.7078912000  -2.2461221000   4.1212821500
| 89> H    7.5324952000  -1.4434169900   2.7792278500
| 90> H    2.9075212600  -2.6343803400  -1.1773783400
| 91> H    3.6309808800  -2.7921332600   0.4391421100
| 92> H    4.5820017100  -2.1411844300  -0.9045688800
| 93> *
| 94> %eprnmr
| 95>  Nuclei = all H { ssfc }
| 96>  SpinSpinRThresh 8.0
| 97> end
| 98> 
| 99>                          ****END OF INPUT****
================================================================================

                       ****************************
                       * Single Point Calculation *
                       ****************************

---------------------------------
CARTESIAN COORDINATES (ANGSTROEM)
---------------------------------
  C     -5.183009    0.128626   -0.713712
  C     -6.600966   -0.341860   -0.934165
  C     -7.586441    0.555027   -0.174054
  H     -6.718565   -1.383648   -0.615060
  H     -6.851112   -0.284457   -2.003938
  C     -4.967926    1.556054   -1.040407
  C     -5.970491    2.498009   -0.411519
  C     -7.414434    2.012389   -0.604246
  H     -5.846153    3.508462   -0.815137
  H     -5.760021    2.555306    0.667370
  H     -7.691082    2.093643   -1.664348
  H     -8.103659    2.646123   -0.034253
  O     -7.425165    0.397080    1.245427
  H     -8.613019    0.230725   -0.385053
  C     -4.243348   -0.694704   -0.190909
  C     -3.996637    1.981174   -1.855500
  H     -3.296584    1.286362   -2.311780
  H     -3.886489    3.036953   -2.091874
  C     -2.890902   -0.328001    0.161269
  H     -4.556739   -1.718883    0.007968
  C     -1.923314   -1.159053    0.604292
  H     -2.648106    0.728197    0.069021
  C     -2.056914   -2.650111    0.780102
  C     -0.948653   -3.413309    0.029523
  H     -3.036844   -3.019383    0.466023
  H     -1.957433   -2.873790    1.854408
  C      0.454984   -2.884392    0.352276
  H     -1.133367   -3.343354   -1.049943
  H     -1.008379   -4.477888    0.287069
  C      0.564615   -1.372256    0.113786
  H      1.188840   -3.436805   -0.243465
  H      0.683489   -3.085496    1.409895
  C     -0.549453   -0.682215    0.963425
  H     -0.361650   -1.025600    1.997874
  C     -0.188859    0.797635    0.906281
  H     -6.475887    0.366178    1.431307
  C      1.358421    0.788829    0.965812
  H     -0.640466    1.367036    1.725490
  H     -0.538725    1.245431   -0.030567
  C      1.822169   -0.680292    0.713191
  H      1.715495    1.150364    1.933797
  H      1.789389    1.454846    0.208874
  H      1.999625   -1.169766    1.684083
  C      3.131145   -0.738095   -0.086374
  C      0.397513   -1.033105   -1.374607
  H      0.610125    0.021673   -1.574653
  H     -0.624299   -1.230034   -1.713862
  H      1.077619   -1.631651   -1.989824
  H      2.967855   -0.189701   -1.028004
  C      3.581613   -2.163311   -0.457786
  C      4.300319   -0.073824    0.608948
  C      4.424950    0.185492    1.910292
  H      5.144933    0.128919   -0.051441
  H      3.590729   -0.032595    2.578883
  C      5.636606    0.741152    2.613227
  C      6.794348    1.084984    1.678097
  C      6.039149   -0.209508    3.776486
  H      5.314781    1.677029    3.101801
  H      5.114588   -0.397734    4.343935
  C      7.038257    0.441595    4.735643
  C      6.564660   -1.558221    3.280771
  H      7.155374    0.203433    1.137499
  H      7.635104    1.506660    2.236424
  H      6.484002    1.826235    0.934239
  H      6.683383    1.420694    5.077732
  H      8.016687    0.581313    4.262217
  H      7.189739   -0.191000    5.617396
  H      5.869764   -2.023440    2.572805
  H      6.707891   -2.246122    4.121282
  H      7.532495   -1.443417    2.779228
  H      2.907521   -2.634380   -1.177378
  H      3.630981   -2.792133    0.439142
  H      4.582002   -2.141184   -0.904569

----------------------------
CARTESIAN COORDINATES (A.U.)
----------------------------
  NO LB      ZA    FRAG     MASS         X           Y           Z
   0 C     6.0000    0    12.011   -9.794467    0.243068   -1.348721
   1 C     6.0000    0    12.011  -12.474019   -0.646021   -1.765316
   2 C     6.0000    0    12.011  -14.336295    1.048850   -0.328915
   3 H     1.0000    0     1.008  -12.696248   -2.614715   -1.162296
   4 H     1.0000    0     1.008  -12.946725   -0.537546   -3.786895
   5 C     6.0000    0    12.011   -9.388020    2.940516   -1.966085
   6 C     6.0000    0    12.011  -11.282594    4.720553   -0.777658
   7 C     6.0000    0    12.011  -14.011250    3.802864   -1.141859
   8 H     1.0000    0     1.008  -11.047627    6.630033   -1.540386
   9 H     1.0000    0     1.008  -10.884863    4.828828    1.261146
  10 H     1.0000    0     1.008  -14.534039    3.956412   -3.145162
  11 H     1.0000    0     1.008  -15.313695    5.000448   -0.064728
  12 O     8.0000    0    15.999  -14.031529    0.750372    2.353516
  13 H     1.0000    0     1.008  -16.276247    0.436007   -0.727645
  14 C     6.0000    0    12.011   -8.018766   -1.312800   -0.360766
  15 C     6.0000    0    12.011   -7.552549    3.743877   -3.506386
  16 H     1.0000    0     1.008   -6.229641    2.430872   -4.368630
  17 H     1.0000    0     1.008   -7.344399    5.739009   -3.953068
  18 C     6.0000    0    12.011   -5.463013   -0.619832    0.304755
  19 H     1.0000    0     1.008   -8.610988   -3.248218    0.015057
  20 C     6.0000    0    12.011   -3.634538   -2.190293    1.141946
  21 H     1.0000    0     1.008   -5.004194    1.376093    0.130431
  22 C     6.0000    0    12.011   -3.887004   -5.007984    1.474178
  23 C     6.0000    0    12.011   -1.792694   -6.450220    0.055791
  24 H     1.0000    0     1.008   -5.738804   -5.705807    0.880656
  25 H     1.0000    0     1.008   -3.699012   -5.430676    3.504323
  26 C     6.0000    0    12.011    0.859795   -5.450711    0.665705
  27 H     1.0000    0     1.008   -2.141753   -6.318024   -1.984104
  28 H     1.0000    0     1.008   -1.905559   -8.461983    0.542481
  29 C     6.0000    0    12.011    1.066968   -2.593188    0.215025
  30 H     1.0000    0     1.008    2.246583   -6.494621   -0.460083
  31 H     1.0000    0     1.008    1.291607   -5.830743    2.664315
  32 C     6.0000    0    12.011   -1.038316   -1.289200    1.820609
  33 H     1.0000    0     1.008   -0.683420   -1.938104    3.775435
  34 C     6.0000    0    12.011   -0.356891    1.507312    1.712623
  35 H     1.0000    0     1.008  -12.237652    0.691977    2.704778
  36 C     6.0000    0    12.011    2.567043    1.490671    1.825119
  37 H     1.0000    0     1.008   -1.210305    2.583323    3.260703
  38 H     1.0000    0     1.008   -1.018042    2.353523   -0.057763
  39 C     6.0000    0    12.011    3.443400   -1.285566    1.347735
  40 H     1.0000    0     1.008    3.241816    2.173872    3.654347
  41 H     1.0000    0     1.008    3.381456    2.749260    0.394715
  42 H     1.0000    0     1.008    3.778743   -2.210536    3.182456
  43 C     6.0000    0    12.011    5.917006   -1.394798   -0.163224
  44 C     6.0000    0    12.011    0.751191   -1.952286   -2.597631
  45 H     1.0000    0     1.008    1.152970    0.040955   -2.975664
  46 H     1.0000    0     1.008   -1.179755   -2.324428   -3.238730
  47 H     1.0000    0     1.008    2.036405   -3.083373   -3.760222
  48 H     1.0000    0     1.008    5.608433   -0.358484   -1.942645
  49 C     6.0000    0    12.011    6.768268   -4.088065   -0.865090
  50 C     6.0000    0    12.011    8.126424   -0.139507    1.150745
  51 C     6.0000    0    12.011    8.361944    0.350530    3.609928
  52 H     1.0000    0     1.008    9.722514    0.243621   -0.097210
  53 H     1.0000    0     1.008    6.785495   -0.061595    4.873382
  54 C     6.0000    0    12.011   10.651642    1.400574    4.938284
  55 C     6.0000    0    12.011   12.839457    2.050322    3.171144
  56 C     6.0000    0    12.011   11.412338   -0.395913    7.136524
  57 H     1.0000    0     1.008   10.043480    3.169126    5.861554
  58 H     1.0000    0     1.008    9.665170   -0.751609    8.208847
  59 C     6.0000    0    12.011   13.300378    0.834493    8.949068
  60 C     6.0000    0    12.011   12.405410   -2.944611    6.199759
  61 H     1.0000    0     1.008   13.521697    0.384434    2.149562
  62 H     1.0000    0     1.008   14.428255    2.847174    4.226230
  63 H     1.0000    0     1.008   12.252989    3.451084    1.765455
  64 H     1.0000    0     1.008   12.629763    2.684722    9.595523
  65 H     1.0000    0     1.008   15.149343    1.098522    8.054423
  66 H     1.0000    0     1.008   13.586637   -0.360937   10.615340
  67 H     1.0000    0     1.008   11.092246   -3.823748    4.861897
  68 H     1.0000    0     1.008   12.676077   -4.244556    7.788095
  69 H     1.0000    0     1.008   14.234353   -2.727663    5.251980
  70 H     1.0000    0     1.008    5.494419   -4.978257   -2.224923
  71 H     1.0000    0     1.008    6.861559   -5.276367    0.829858
  72 H     1.0000    0     1.008    8.658728   -4.046252   -1.709387

--------------------------------
INTERNAL COORDINATES (ANGSTROEM)
--------------------------------
 C      0   0   0     0.000000000000     0.00000000     0.00000000
 C      1   0   0     1.510152519280     0.00000000     0.00000000
 C      2   1   0     1.534058171218   110.40781630     0.00000000
 H      2   1   3     1.095892120790   110.75778268   237.86579545
 H      2   1   3     1.100128643274   109.82774214   118.70906954
 C      1   2   3     1.480047728084   113.87226453   305.87566832
 C      6   1   2     1.512586007564   114.36254443    50.07832913
 C      3   2   1     1.529232873919   110.21408530    56.77260026
 H      7   6   1     1.095164126850   110.24849344   188.65225322
 H      7   6   1     1.100718502946   108.25237416    71.98419857
 H      8   3   2     1.098614140297   108.27699008    64.65224559
 H      8   3   2     1.096148611459   109.50989776   181.58576985
 O      3   2   1     1.437318675981   110.67170580   292.69894942
 H      3   2   1     1.097066765589   109.45076201   177.18446505
 C      1   2   3     1.354310704686   121.22653097   122.37077947
 C      6   1   2     1.337350280229   123.13800316   232.06201819
 H     16   6   1     1.086751651013   121.36614160   358.96717939
 H     16   6   1     1.087507757560   120.97353978   178.39355585
 C     15   1   2     1.444856821329   126.10403744   185.18726792
 H     15   1   2     1.089361400922   116.25895434     3.12052951
 C     19  15   1     1.350237973509   126.47965953   184.43347228
 H     19  15   1     1.087664503989   115.76836018     5.40312936
 C     21  19  15     1.507319622673   125.70413848     1.92514673
 C     23  21  19     1.540805542671   111.67926662   126.12549444
 H     23  21  19     1.093284220268   112.33716915     2.35023163
 H     23  21  19     1.101844896096   107.85045621   244.67272233
 C     24  23  21     1.534313848579   112.63074486    51.00659379
 H     24  23  21     1.097387368188   109.05850976   288.83049544
 H     24  23  21     1.096916125916   109.09795316   172.90479467
 C     27  24  23     1.534748302214   111.85799317   306.05659623
 H     27  24  23     1.094812056225   108.95403631   182.46681383
 H     27  24  23     1.100552069132   109.21433090    65.97065363
 C     21  19  15     1.497947191144   122.68235269   180.84006419
 H     33  21  19     1.106015001309   106.32831196   125.39426808
 C     33  21  19     1.524221177228   121.13467869     2.86644784
 H     13   3   2     0.967799551192   107.65278975    42.18254123
 C     35  33  21     1.548449080830   103.26379547   194.86276312
 H     35  33  21     1.095111454841   112.28452125    73.16136639
 H     35  33  21     1.095724141365   110.68893676   313.42241123
 C     30  27  24     1.555487553697   115.85971648   166.36345878
 H     37  35  33     1.093254724947   111.00987674   251.86025109
 H     37  35  33     1.096479125495   111.26956693   133.58841905
 H     40  30  27     1.101683444805   105.79393231   321.95406481
 C     40  30  27     1.534947406275   118.16159214    82.67887890
 C     30  27  24     1.535662888212   111.12679444   294.68023020
 H     45  30  27     1.094430849249   111.64584524   187.84258728
 H     45  30  27     1.094520778952   111.23946624    67.95206480
 H     45  30  27     1.095122008219   110.86719275   307.88495871
 H     44  40  30     1.101846358720   107.46007029    63.95003660
 C     44  40  30     1.540164823331   114.19771054   305.02813931
 C     44  40  30     1.513834906072   113.75600540   181.91747979
 C     51  44  40     1.332769000115   127.30671237    20.84411161
 H     51  44  40     1.091142720628   113.66410127   195.78678879
 H     52  51  44     1.091100440517   119.20472926   355.85608047
 C     52  51  44     1.506979429761   127.04088877   174.45338046
 C     55  52  51     1.527433989202   114.00738612     2.94574683
 C     55  52  51     1.555302388661   109.36565455   234.63758188
 H     55  52  51     1.103695060506   106.54079032   121.38158453
 H     57  55  52     1.101018428060   105.82072040   310.39311294
 C     57  55  52     1.530402830126   112.18966983   193.64875190
 C     57  55  52     1.530007226252   112.66743327    67.88074805
 H     56  55  52     1.095315823430   111.76651313   299.11931674
 H     56  55  52     1.093805055942   110.90908199   178.55168995
 H     56  55  52     1.095031496534   110.69826896    59.09200623
 H     60  57  55     1.096172961786   111.36118912    51.74675375
 H     60  57  55     1.095891816537   111.49113131   290.96890848
 H     60  57  55     1.095723980335   110.42486755   171.74901861
 H     61  57  55     1.095685270088   111.45649271   308.01056494
 H     61  57  55     1.095528045122   110.47776805   187.70121418
 H     61  57  55     1.096097580861   111.05109724    68.46228041
 H     50  44  40     1.092757631600   112.16573298    67.63331227
 H     50  44  40     1.096510470548   110.27863266   306.43616381
 H     50  44  40     1.095847655447   110.28175188   187.61847430

---------------------------
INTERNAL COORDINATES (A.U.)
---------------------------
 C      0   0   0     0.000000000000     0.00000000     0.00000000
 C      1   0   0     2.853774681891     0.00000000     0.00000000
 C      2   1   0     2.898949817106   110.40781630     0.00000000
 H      2   1   3     2.070935980616   110.75778268   237.86579545
 H      2   1   3     2.078941847871   109.82774214   118.70906954
 C      1   2   3     2.796884871211   113.87226453   305.87566832
 C      6   1   2     2.858373308296   114.36254443    50.07832913
 C      3   2   1     2.889831326695   110.21408530    56.77260026
 H      7   6   1     2.069560271441   110.24849344   188.65225322
 H      7   6   1     2.080056521108   108.25237416    71.98419857
 H      8   3   2     2.076079852014   108.27699008    64.65224559
 H      8   3   2     2.071420677735   109.50989776   181.58576985
 O      3   2   1     2.716138664774   110.67170580   292.69894942
 H      3   2   1     2.073155737590   109.45076201   177.18446505
 C      1   2   3     2.559276332094   121.22653097   122.37077947
 C      6   1   2     2.527225774756   123.13800316   232.06201819
 H     16   6   1     2.053662996001   121.36614160   358.96717939
 H     16   6   1     2.055091830302   120.97353978   178.39355585
 C     15   1   2     2.730383695039   126.10403744   185.18726792
 H     15   1   2     2.058594708608   116.25895434     3.12052951
 C     19  15   1     2.551579985553   126.47965953   184.43347228
 H     19  15   1     2.055388038127   115.76836018     5.40312936
 C     21  19  15     2.848421283138   125.70413848     1.92514673
 C     23  21  19     2.911700501276   111.67926662   126.12549444
 H     23  21  19     2.066007762845   112.33716915     2.35023163
 H     23  21  19     2.082185095681   107.85045621   244.67272233
 C     24  23  21     2.899432977298   112.63074486    51.00659379
 H     24  23  21     2.073761588700   109.05850976   288.83049544
 H     24  23  21     2.072871069863   109.09795316   172.90479467
 C     27  24  23     2.900253975686   111.85799317   306.05659623
 H     27  24  23     2.068894954381   108.95403631   182.46681383
 H     27  24  23     2.079742006780   109.21433090    65.97065363
 C     21  19  15     2.830709954338   122.68235269   180.84006419
 H     33  21  19     2.090065452483   106.32831196   125.39426808
 C     33  21  19     2.880360592484   121.13467869     2.86644784
 H     13   3   2     1.828876104285   107.65278975    42.18254123
 C     35  33  21     2.926144695091   103.26379547   194.86276312
 H     35  33  21     2.069460735769   112.28452125    73.16136639
 H     35  33  21     2.070618545506   110.68893676   313.42241123
 C     30  27  24     2.939445481211   115.85971648   166.36345878
 H     37  35  33     2.065952024765   111.00987674   251.86025109
 H     37  35  33     2.072045258748   111.26956693   133.58841905
 H     40  30  27     2.081879996956   105.79393231   321.95406481
 C     40  30  27     2.900630227833   118.16159214    82.67887890
 C     30  27  24     2.901982292747   111.12679444   294.68023020
 H     45  30  27     2.068174577596   111.64584524   187.84258728
 H     45  30  27     2.068344520105   111.23946624    67.95206480
 H     45  30  27     2.069480678764   110.86719275   307.88495871
 H     44  40  30     2.082187859640   107.46007029    63.95003660
 C     44  40  30     2.910489717195   114.19771054   305.02813931
 C     44  40  30     2.860733384446   113.75600540   181.91747979
 C     51  44  40     2.518568409997   127.30671237    20.84411161
 H     51  44  40     2.061960915008   113.66410127   195.78678879
 H     52  51  44     2.061881017179   119.20472926   355.85608047
 C     52  51  44     2.847778411701   127.04088877   174.45338046
 C     55  52  51     2.886431927235   114.00738612     2.94574683
 C     55  52  51     2.939095570004   109.36565455   234.63758188
 H     55  52  51     2.085681399718   106.54079032   121.38158453
 H     57  55  52     2.080623297434   105.82072040   310.39311294
 C     57  55  52     2.892042223516   112.18966983   193.64875190
 C     57  55  52     2.891294640536   112.66743327    67.88074805
 H     56  55  52     2.069846936433   111.76651313   299.11931674
 H     56  55  52     2.066991999628   110.90908199   178.55168995
 H     56  55  52     2.069309636466   110.69826896    59.09200623
 H     60  57  55     2.071466693185   111.36118912    51.74675375
 H     60  57  55     2.070935405661   111.49113131   290.96890848
 H     60  57  55     2.070618241203   110.42486755   171.74901861
 H     61  57  55     2.070545089437   111.45649271   308.01056494
 H     61  57  55     2.070247977311   110.47776805   187.70121418
 H     61  57  55     2.071324243880   111.05109724    68.46228041
 H     50  44  40     2.065012654476   112.16573298    67.63331227
 H     50  44  40     2.072104492313   110.27863266   306.43616381
 H     50  44  40     2.070851953294   110.28175188   187.61847430

---------------------
BASIS SET INFORMATION
---------------------
There are 3 groups of distinct atoms

 Group   1 Type C   : 7s4p contracted to 4s3p pattern {4111/211}
 Group   2 Type H   : 5s contracted to 3s pattern {311}
 Group   3 Type O   : 7s4p contracted to 4s3p pattern {4111/211}

Atom   0C    basis set group =>   1
Atom   1C    basis set group =>   1
Atom   2C    basis set group =>   1
Atom   3H    basis set group =>   2
Atom   4H    basis set group =>   2
Atom   5C    basis set group =>   1
Atom   6C    basis set group =>   1
Atom   7C    basis set group =>   1
Atom   8H    basis set group =>   2
Atom   9H    basis set group =>   2
Atom  10H    basis set group =>   2
Atom  11H    basis set group =>   2
Atom  12O    basis set group =>   3
Atom  13H    basis set group =>   2
Atom  14C    basis set group =>   1
Atom  15C    basis set group =>   1
Atom  16H    basis set group =>   2
Atom  17H    basis set group =>   2
Atom  18C    basis set group =>   1
Atom  19H    basis set group =>   2
Atom  20C    basis set group =>   1
Atom  21H    basis set group =>   2
Atom  22C    basis set group =>   1
Atom  23C    basis set group =>   1
Atom  24H    basis set group =>   2
Atom  25H    basis set group =>   2
Atom  26C    basis set group =>   1
Atom  27H    basis set group =>   2
Atom  28H    basis set group =>   2
Atom  29C    basis set group =>   1
Atom  30H    basis set group =>   2
Atom  31H    basis set group =>   2
Atom  32C    basis set group =>   1
Atom  33H    basis set group =>   2
Atom  34C    basis set group =>   1
Atom  35H    basis set group =>   2
Atom  36C    basis set group =>   1
Atom  37H    basis set group =>   2
Atom  38H    basis set group =>   2
Atom  39C    basis set group =>   1
Atom  40H    basis set group =>   2
Atom  41H    basis set group =>   2
Atom  42H    basis set group =>   2
Atom  43C    basis set group =>   1
Atom  44C    basis set group =>   1
Atom  45H    basis set group =>   2
Atom  46H    basis set group =>   2
Atom  47H    basis set group =>   2
Atom  48H    basis set group =>   2
Atom  49C    basis set group =>   1
Atom  50C    basis set group =>   1
Atom  51C    basis set group =>   1
Atom  52H    basis set group =>   2
Atom  53H    basis set group =>   2
Atom  54C    basis set group =>   1
Atom  55C    basis set group =>   1
Atom  56C    basis set group =>   1
Atom  57H    basis set group =>   2
Atom  58H    basis set group =>   2
Atom  59C    basis set group =>   1
Atom  60C    basis set group =>   1
Atom  61H    basis set group =>   2
Atom  62H    basis set group =>   2
Atom  63H    basis set group =>   2
Atom  64H    basis set group =>   2
Atom  65H    basis set group =>   2
Atom  66H    basis set group =>   2
Atom  67H    basis set group =>   2
Atom  68H    basis set group =>   2
Atom  69H    basis set group =>   2
Atom  70H    basis set group =>   2
Atom  71H    basis set group =>   2
Atom  72H    basis set group =>   2

-------------------------
BASIS SET IN INPUT FORMAT
-------------------------

 # Basis set for element : H 
 NewGTO H 
 S 3 
   1    1357.7500000000      0.0012928364
   2      54.3100000000      0.0588280685
   3       4.3448000000      0.9761499708
 S 1 
   1       0.6604910000      1.0000000000
 S 1 
   1       0.1366870000      1.0000000000
  end;

 # Basis set for element : C 
 NewGTO C 
 S 4 
   1  139534.0000000000      0.0001655246
   2    5581.3600000000      0.0074486101
   3     446.5090000000      0.1285821065
   4      67.4620000000      0.9218029311
 S 1 
   1      15.0674000000      1.0000000000
 S 1 
   1       3.9387600000      1.0000000000
 S 1 
   1       0.2999150000      1.0000000000
 P 2 
   1      28.3900000000      0.0816325586
   2       4.3676900000      0.9660360576
 P 1 
   1       0.8698170000      1.0000000000
 P 1 
   1       0.1889340000      1.0000000000
  end;

 # Basis set for element : O 
 NewGTO O 
 S 4 
   1  253789.0000000000      0.0001641076
   2   10151.6000000000      0.0074010921
   3     812.1250000000      0.1277711901
   4     122.6930000000      0.9223372164
 S 1 
   1      27.5608000000      1.0000000000
 S 1 
   1       7.3172600000      1.0000000000
 S 1 
   1       0.5792400000      1.0000000000
 P 2 
   1      53.4157000000      0.0793786106
   2       8.2177900000      0.9670506337
 P 1 
   1       1.6754400000      1.0000000000
 P 1 
   1       0.3506720000      1.0000000000
  end;

---------------------------------
AUXILIARY/J BASIS SET INFORMATION
---------------------------------
There are 3 groups of distinct atoms

 Group   1 Type C   : 12s5p4d2f1g contracted to 6s4p3d1f1g pattern {711111/2111/211/2/1}
 Group   2 Type H   : 5s2p1d contracted to 3s1p1d pattern {311/2/1}
 Group   3 Type O   : 12s5p4d2f1g contracted to 6s4p3d1f1g pattern {711111/2111/211/2/1}

Atom   0C    basis set group =>   1
Atom   1C    basis set group =>   1
Atom   2C    basis set group =>   1
Atom   3H    basis set group =>   2
Atom   4H    basis set group =>   2
Atom   5C    basis set group =>   1
Atom   6C    basis set group =>   1
Atom   7C    basis set group =>   1
Atom   8H    basis set group =>   2
Atom   9H    basis set group =>   2
Atom  10H    basis set group =>   2
Atom  11H    basis set group =>   2
Atom  12O    basis set group =>   3
Atom  13H    basis set group =>   2
Atom  14C    basis set group =>   1
Atom  15C    basis set group =>   1
Atom  16H    basis set group =>   2
Atom  17H    basis set group =>   2
Atom  18C    basis set group =>   1
Atom  19H    basis set group =>   2
Atom  20C    basis set group =>   1
Atom  21H    basis set group =>   2
Atom  22C    basis set group =>   1
Atom  23C    basis set group =>   1
Atom  24H    basis set group =>   2
Atom  25H    basis set group =>   2
Atom  26C    basis set group =>   1
Atom  27H    basis set group =>   2
Atom  28H    basis set group =>   2
Atom  29C    basis set group =>   1
Atom  30H    basis set group =>   2
Atom  31H    basis set group =>   2
Atom  32C    basis set group =>   1
Atom  33H    basis set group =>   2
Atom  34C    basis set group =>   1
Atom  35H    basis set group =>   2
Atom  36C    basis set group =>   1
Atom  37H    basis set group =>   2
Atom  38H    basis set group =>   2
Atom  39C    basis set group =>   1
Atom  40H    basis set group =>   2
Atom  41H    basis set group =>   2
Atom  42H    basis set group =>   2
Atom  43C    basis set group =>   1
Atom  44C    basis set group =>   1
Atom  45H    basis set group =>   2
Atom  46H    basis set group =>   2
Atom  47H    basis set group =>   2
Atom  48H    basis set group =>   2
Atom  49C    basis set group =>   1
Atom  50C    basis set group =>   1
Atom  51C    basis set group =>   1
Atom  52H    basis set group =>   2
Atom  53H    basis set group =>   2
Atom  54C    basis set group =>   1
Atom  55C    basis set group =>   1
Atom  56C    basis set group =>   1
Atom  57H    basis set group =>   2
Atom  58H    basis set group =>   2
Atom  59C    basis set group =>   1
Atom  60C    basis set group =>   1
Atom  61H    basis set group =>   2
Atom  62H    basis set group =>   2
Atom  63H    basis set group =>   2
Atom  64H    basis set group =>   2
Atom  65H    basis set group =>   2
Atom  66H    basis set group =>   2
Atom  67H    basis set group =>   2
Atom  68H    basis set group =>   2
Atom  69H    basis set group =>   2
Atom  70H    basis set group =>   2
Atom  71H    basis set group =>   2
Atom  72H    basis set group =>   2

-------------------------------------
AUXILIARY/J BASIS SET IN INPUT FORMAT
-------------------------------------

 # Auxiliary/J basis set for element : H 
 NewAuxJGTO H 
 S 3 
   1      15.6752927000      0.1007184237
   2       3.6063578000      0.3404257499
   3       1.2080016000      0.6491996172
 S 1 
   1       0.4726794000      1.0000000000
 S 1 
   1       0.2018100000      1.0000000000
 P 2 
   1       2.0281365000      0.5596620919
   2       0.5358730000      0.5596620919
 D 1 
   1       2.2165124000      1.0000000000
  end;

 # Auxiliary/J basis set for element : C 
 NewAuxJGTO C 
 S 7 
   1    1861.0916331000      0.0134602335
   2     642.9939764000      0.0299160374
   3     235.1105725000      0.1008649584
   4      90.7028894000      0.2370970548
   5      36.7794552000      0.3924037254
   6      15.6046273000      0.3195862154
   7       6.8907294000      0.0530104441
 S 1 
   1       3.1478850000     -1.0000000000
 S 1 
   1       1.4777287000      1.0000000000
 S 1 
   1       0.7076466000      1.0000000000
 S 1 
   1       0.3430122000      1.0000000000
 S 1 
   1       0.1669453000      1.0000000000
 P 2 
   1      13.5472892000     -0.6769313712
   2       5.4669419000     -0.3779500978
 P 1 
   1       2.1751721000      1.0000000000
 P 1 
   1       0.8582194000      1.0000000000
 P 1 
   1       0.3376720000      1.0000000000
 D 2 
   1       5.9287253000     -0.3533329857
   2       1.9809209000     -0.7456525731
 D 1 
   1       0.8055417000     -1.0000000000
 D 1 
   1       0.3531244000     -1.0000000000
 F 2 
   1       1.6755626000      0.6311076882
   2       0.5997536000      0.4968166032
 G 1 
   1       1.0024600000     -1.0000000000
  end;

 # Auxiliary/J basis set for element : O 
 NewAuxJGTO O 
 S 7 
   1    2876.8216605000      0.0168151159
   2    1004.7443032000      0.0340137548
   3     369.7579954000      0.1194951309
   4     142.9442404000      0.2664627624
   5      57.8366425000      0.4202764046
   6      24.3864983000      0.2765077335
   7      10.6622662000      0.0057008815
 S 1 
   1       4.8070437000     -1.0000000000
 S 1 
   1       2.2210770000      1.0000000000
 S 1 
   1       1.0447795000      1.0000000000
 S 1 
   1       0.4968425000      1.0000000000
 S 1 
   1       0.2371384000      1.0000000000
 P 2 
   1      64.2613382000     -0.2731534179
   2      16.3006076000     -0.8168011598
 P 1 
   1       4.3550542000      1.0000000000
 P 1 
   1       1.2019554000      1.0000000000
 P 1 
   1       0.3354196000      1.0000000000
 D 2 
   1       9.2146611000     -0.4661230638
   2       2.8435251000     -0.6600908911
 D 1 
   1       0.9955759000     -1.0000000000
 D 1 
   1       0.3649441000     -1.0000000000
 F 2 
   1       2.6420115000      0.5931563945
   2       0.7345613000      0.5931563945
 G 1 
   1       1.3931000000     -1.0000000000
  end;



           ************************************************************
           *        Program running with 4 parallel MPI-processes     *
           *              working on a common directory               *
           ************************************************************
------------------------------------------------------------------------------
                           ORCA GTO INTEGRAL CALCULATION
                           -- RI-GTO INTEGRALS CHOSEN --
------------------------------------------------------------------------------
------------------------------------------------------------------------------
                   ___                                                        
                  /   \      - P O W E R E D   B Y -                         
                 /     \                                                     
                 |  |  |   _    _      __       _____    __    __             
                 |  |  |  | |  | |    /  \     |  _  \  |  |  /  |          
                  \  \/   | |  | |   /    \    | | | |  |  | /  /          
                 / \  \   | |__| |  /  /\  \   | |_| |  |  |/  /          
                |  |  |   |  __  | /  /__\  \  |    /   |      \           
                |  |  |   | |  | | |   __   |  |    \   |  |\   \          
                \     /   | |  | | |  |  |  |  | |\  \  |  | \   \       
                 \___/    |_|  |_| |__|  |__|  |_| \__\ |__|  \__/        
                                                                              
                      - O R C A' S   B I G   F R I E N D -                    
                                      &                                       
                       - I N T E G R A L  F E E D E R -                       
                                                                              
 v1 FN, 2020, v2 2021                                                         
------------------------------------------------------------------------------


Reading SHARK input file inpJ.SHARKINP.tmp ... ok
----------------------
SHARK INTEGRAL PACKAGE
----------------------

Number of atoms                             ...     73
Number of basis functions                   ...    509
Number of shells                            ...    335
Maximum angular momentum                    ...      1
Integral batch strategy                     ... SHARK/LIBINT Hybrid
RI-J (if used) integral strategy            ... SPLIT-RIJ (Revised 2003 algorithm where possible)
Printlevel                                  ...      1
Contraction scheme used                     ... SEGMENTED contraction
Coulomb Range Separation                    ... NOT USED
Exchange Range Separation                   ... NOT USED
Finite Nucleus Model                        ... NOT USED
Auxiliary Coulomb fitting basis             ... AVAILABLE
   # of basis functions in Aux-J            ...   1905
   # of shells in Aux-J                     ...    655
   Maximum angular momentum in Aux-J        ...      4
Auxiliary J/K fitting basis                 ... NOT available
Auxiliary Correlation fitting basis         ... NOT available
Auxiliary 'external' fitting basis          ... NOT available
Integral threshold                          ...     3.000000e-11
Primitive cut-off                           ...     1.000000e-12
Primitive pair pre-selection threshold      ...     1.000000e-12

Calculating pre-screening integrals         ... done (  0.0 sec) Dimension = 335
Organizing shell pair data                  ... done (  0.1 sec)
Shell pair information
Total number of shell pairs                 ...     56280
Shell pairs after pre-screening             ...     21914
Total number of primitive shell pairs       ...    145865
Primitive shell pairs kept                  ...     37644
          la=0 lb=0:  11016 shell pairs
          la=1 lb=0:   9023 shell pairs
          la=1 lb=1:   1875 shell pairs

Calculating one electron integrals          ... done (  0.0 sec)
Calculating RI/J V-Matrix + Cholesky decomp.... done (  0.1 sec)
Calculating Nuclear repulsion               ... done (  0.0 sec) ENN=   2790.275590064611 Eh

SHARK setup successfully completed in   0.4 seconds

Maximum memory used throughout the entire GTOINT-calculation: 46.3 MB


           ************************************************************
           *        Program running with 4 parallel MPI-processes     *
           *              working on a common directory               *
           ************************************************************
-------------------------------------------------------------------------------
                                 ORCA SCF
-------------------------------------------------------------------------------

------------
SCF SETTINGS
------------
Hamiltonian:
 Density Functional     Method          .... DFT(GTOs)
 Exchange Functional    Exchange        .... PBE
   PBE kappa parameter   XKappa         ....  0.804000
   PBE mue parameter    XMuePBE         ....  0.219520
 Correlation Functional Correlation     .... PBE
   PBE beta parameter  CBetaPBE         ....  0.066725
 LDA part of GGA corr.  LDAOpt          .... PW91-LDA
 Gradients option       PostSCFGGA      .... off
 Hybrid DFT is turned on
   Fraction HF Exchange ScalHFX         ....  0.250000
   Scaling of DF-GGA-X  ScalDFX         ....  0.750000
   Scaling of DF-GGA-C  ScalDFC         ....  1.000000
   Scaling of DF-LDA-C  ScalLDAC        ....  1.000000
   Perturbative correction              ....  0.000000
   Density functional embedding theory  .... OFF
   NL short-range parameter             ....  6.900000
 RI-approximation to the Coulomb term is turned on
   Number of AuxJ basis functions       .... 1905
   RIJ-COSX (HFX calculated with COS-X)).... on


General Settings:
 Integral files         IntName         .... inpJ
 Hartree-Fock type      HFTyp           .... RHF
 Total Charge           Charge          ....    0
 Multiplicity           Mult            ....    1
 Number of Electrons    NEL             ....  220
 Basis Dimension        Dim             ....  509
 Nuclear Repulsion      ENuc            ....   2790.2755900646 Eh

Convergence Acceleration:
 DIIS                   CNVDIIS         .... on
   Start iteration      DIISMaxIt       ....    12
   Startup error        DIISStart       ....  0.200000
   # of expansion vecs  DIISMaxEq       ....     5
   Bias factor          DIISBfac        ....   1.050
   Max. coefficient     DIISMaxC        ....  10.000
 Trust-Rad. Augm. Hess. CNVTRAH         .... auto
   Auto Start mean grad. ratio tolernc. ....  1.125000
   Auto Start start iteration           ....    20
   Auto Start num. interpolation iter.  ....    10
   Max. Number of Micro iterations      ....    16
   Max. Number of Macro iterations      .... Maxiter - #DIIS iter
   Number of Davidson start vectors     ....     2
   Converg. threshold I  (grad. norm)   ....   1.000e-04
   Converg. threshold II (energy diff.) ....   1.000e-07
   Grad. Scal. Fac. for Micro threshold ....   0.100
   Minimum threshold for Micro iter.    ....   0.010
   NR start threshold (gradient norm)   ....   0.001
   Initial trust radius                 ....   0.400
   Minimum AH scaling param. (alpha)    ....   1.000
   Maximum AH scaling param. (alpha)    .... 1000.000
   Orbital update algorithm             .... Taylor
   White noise on init. David. guess    .... on
   Maximum white noise                  ....   0.010
   Quad. conv. algorithm                .... NR
 SOSCF                  CNVSOSCF        .... off
 Level Shifting         CNVShift        .... on
   Level shift para.    LevelShift      ....    0.2500
   Turn off err/grad.   ShiftErr        ....    0.0010
 Zerner damping         CNVZerner       .... off
 Static damping         CNVDamp         .... on
   Fraction old density DampFac         ....    0.7000
   Max. Damping (<1)    DampMax         ....    0.9800
   Min. Damping (>=0)   DampMin         ....    0.0000
   Turn off err/grad.   DampErr         ....    0.1000
 Fernandez-Rico         CNVRico         .... off

SCF Procedure:
 Maximum # iterations   MaxIter         ....   125
 SCF integral mode      SCFMode         .... Direct
   Integral package                     .... SHARK and LIBINT hybrid scheme
 Reset frequency        DirectResetFreq ....    20
 Integral Threshold     Thresh          ....  3.000e-11 Eh
 Primitive CutOff       TCut            ....  1.000e-12 Eh

Convergence Tolerance:
 Convergence Check Mode ConvCheckMode   .... Total+1el-Energy
 Convergence forced     ConvForced      .... 0
 Energy Change          TolE            ....  1.000e-07 Eh
 1-El. energy change                    ....  1.000e-04 Eh
 DIIS Error             TolErr          ....  1.000e-07


Diagonalization of the overlap matrix:
Smallest eigenvalue                        ... 7.556e-03
Time for diagonalization                   ...    0.028 sec
Threshold for overlap eigenvalues          ... 1.000e-08
Number of eigenvalues below threshold      ... 0
Time for construction of square roots      ...    0.030 sec
Total time needed                          ...    0.059 sec

Time for model grid setup =    0.715 sec

------------------------------
INITIAL GUESS: MODEL POTENTIAL
------------------------------
Loading Hartree-Fock densities                     ... done
Calculating cut-offs                               ... done
Initializing the effective Hamiltonian             ... done
Setting up the integral package (SHARK)            ... done
Starting the Coulomb interaction                   ... done (   0.3 sec)
Reading the grid                                   ... done
Mapping shells                                     ... done
Starting the XC term evaluation                    ... done (   0.1 sec)
  promolecular density results
     # of electrons  =    219.973682819
     EX              =   -164.432713938
     EC              =     -7.329039861
     EX+EC           =   -171.761753800
Transforming the Hamiltonian                       ... done (   0.0 sec)
Diagonalizing the Hamiltonian                      ... done (   0.0 sec)
Back transforming the eigenvectors                 ... done (   0.0 sec)
Now organizing SCF variables                       ... done
                      ------------------
                      INITIAL GUESS DONE (   1.3 sec)
                      ------------------
-------------------
DFT GRID GENERATION
-------------------

General Integration Accuracy     IntAcc      ... 4.388
Radial Grid Type                 RadialGrid  ... OptM3 with GC (2021)
Angular Grid (max. ang.)         AngularGrid ... 4 (Lebedev-302)
Angular grid pruning method      GridPruning ... 4 (adaptive)
Weight generation scheme         WeightScheme... Becke
Basis function cutoff            BFCut       ... 1.0000e-11
Integration weight cutoff        WCut        ... 1.0000e-14
Angular grids for H and He will be reduced by one unit
Partially contracted basis set               ... off
Rotationally invariant grid construction     ... off

Total number of grid points                  ...   309811
Total number of batches                      ...     4880
Average number of points per batch           ...       63
Average number of grid points per atom       ...     4244
Time for grid setup =    2.778 sec

--------------------
COSX GRID GENERATION
--------------------

GRIDX 1
-------
General Integration Accuracy     IntAcc      ... 3.816
Radial Grid Type                 RadialGrid  ... OptM3 with GC (2021)
Angular Grid (max. ang.)         AngularGrid ... 1 (Lebedev-50)
Angular grid pruning method      GridPruning ... 4 (adaptive)
Weight generation scheme         WeightScheme... Becke
Basis function cutoff            BFCut       ... 1.0000e-11
Integration weight cutoff        WCut        ... 1.0000e-14
Angular grids for H and He will be reduced by one unit
Partially contracted basis set               ... on
Rotationally invariant grid construction     ... off

Total number of grid points                  ...    39398
Total number of batches                      ...      659
Average number of points per batch           ...       59
Average number of grid points per atom       ...      540
UseSFitting                                  ... on

GRIDX 2
-------
General Integration Accuracy     IntAcc      ... 4.020
Radial Grid Type                 RadialGrid  ... OptM3 with GC (2021)
Angular Grid (max. ang.)         AngularGrid ... 2 (Lebedev-110)
Angular grid pruning method      GridPruning ... 4 (adaptive)
Weight generation scheme         WeightScheme... Becke
Basis function cutoff            BFCut       ... 1.0000e-11
Integration weight cutoff        WCut        ... 1.0000e-14
Angular grids for H and He will be reduced by one unit
Partially contracted basis set               ... on
Rotationally invariant grid construction     ... off

Total number of grid points                  ...    81424
Total number of batches                      ...     1306
Average number of points per batch           ...       62
Average number of grid points per atom       ...     1115
UseSFitting                                  ... on

GRIDX 3
-------
General Integration Accuracy     IntAcc      ... 4.338
Radial Grid Type                 RadialGrid  ... OptM3 with GC (2021)
Angular Grid (max. ang.)         AngularGrid ... 3 (Lebedev-194)
Angular grid pruning method      GridPruning ... 4 (adaptive)
Weight generation scheme         WeightScheme... Becke
Basis function cutoff            BFCut       ... 1.0000e-11
Integration weight cutoff        WCut        ... 1.0000e-14
Angular grids for H and He will be reduced by one unit
Partially contracted basis set               ... on
Rotationally invariant grid construction     ... off

Total number of grid points                  ...   176108
Total number of batches                      ...     2787
Average number of points per batch           ...       63
Average number of grid points per atom       ...     2412
UseSFitting                                  ... on

Time for X-Grid setup             =    2.708 sec


--------------------
CPCM SOLVATION MODEL
--------------------
CPCM parameters:
  Epsilon                                         ...       4.9000
  Refrac                                          ...       1.4500
  Rsolv                                           ...       1.3000
  Surface type                                    ... GAUSSIAN VDW
  Epsilon function type                           ...         CPCM
Radii:
 Radius for C  used is    3.8550 Bohr (=   2.0400 Ang.)
 Radius for H  used is    2.4944 Bohr (=   1.3200 Ang.)
 Radius for O  used is    3.4469 Bohr (=   1.8240 Ang.)
Calculating surface                               ...        done! (  0.0s)
GEPOL surface points                              ...         3608
GEPOL Volume                                      ...    3589.9947
GEPOL Surface-area                                ...    1774.3129
Calculating surface distance matrix               ...        done! (  0.1s)
Performing Cholesky decomposition & store         ...        done! (  0.5s)
Overall time for CPCM initialization              ...                 0.6s
--------------
SCF ITERATIONS
--------------
ITER       Energy         Delta-E        Max-DP      RMS-DP      [F,P]     Damp
               ***  Starting incremental Fock matrix formation  ***

  HOMO= 109 E= -3.995 eV LUMO=  7.701 eV gap=  11.696 eV
  0  -1165.0078110266   0.000000000000 0.09763799  0.00107079  0.1970944 0.7000

  HOMO= 109 E= -4.854 eV LUMO=  7.020 eV gap=  11.874 eV
  1  -1165.2278187126  -0.220007686037 0.06549327  0.00078703  0.0954240 0.7000
                               ***Turning on DIIS***

  HOMO= 109 E= -5.449 eV LUMO=  6.474 eV gap=  11.923 eV
  2  -1165.3289394867  -0.101120774074 0.10325056  0.00138981  0.0375604 0.0000

  HOMO= 109 E= -6.004 eV LUMO=  5.946 eV gap=  11.950 eV
  3  -1165.4736595174  -0.144720030681 0.05141826  0.00057601  0.0462233 0.0000

  HOMO= 109 E= -6.076 eV LUMO=  5.873 eV gap=  11.949 eV
  4  -1165.5094377590  -0.035778241662 0.01170932  0.00013393  0.0059663 0.0000

  HOMO= 109 E= -6.024 eV LUMO=  5.932 eV gap=  11.956 eV
  5  -1165.5102858626  -0.000848103556 0.00251010  0.00003791  0.0050722 0.0000

  HOMO= 109 E= -6.011 eV LUMO=  5.946 eV gap=  11.957 eV
  6  -1165.5103644760  -0.000078613390 0.00117386  0.00001170  0.0010830 0.0000

  HOMO= 109 E= -6.013 eV LUMO= -0.859 eV gap=   5.154 eV
  7  -1165.5103697048  -0.000005228779 0.00049933  0.00000597  0.0002288 0.0000
               *** Restarting incremental Fock matrix formation ***
                                   *** Resetting DIIS ***

  HOMO= 109 E= -6.012 eV LUMO= -0.857 eV gap=   5.155 eV
  8  -1165.5103538380   0.000015866765 0.00035490  0.00000271  0.0001160 0.0000

  HOMO= 109 E= -6.012 eV LUMO= -0.858 eV gap=   5.155 eV
  9  -1165.5103538614  -0.000000023357 0.00012980  0.00000124  0.0001552 0.0000

  HOMO= 109 E= -6.012 eV LUMO= -0.858 eV gap=   5.155 eV
 10  -1165.5103539877  -0.000000126355 0.00005974  0.00000038  0.0000293 0.0000

  HOMO= 109 E= -6.012 eV LUMO= -0.858 eV gap=   5.155 eV
 11  -1165.5103540185  -0.000000030751 0.00002373  0.00000017  0.0000168 0.0000

  HOMO= 109 E= -6.012 eV LUMO= -0.858 eV gap=   5.155 eV
 12  -1165.5103540034   0.000000015047 0.00000684  0.00000004  0.0000031 0.0000
                 **** Energy Check signals convergence ****

               *****************************************************
               *                     SUCCESS                       *
               *           SCF CONVERGED AFTER  13 CYCLES          *
               *****************************************************

Old exchange energy                            =    -42.067914074 Eh
New exchange energy                            =    -42.067964267 Eh
Exchange energy change after final integration =     -0.000050193 Eh
Total energy after final integration           =  -1165.510404208 Eh
Final COS-X integration done in                =    14.349 sec

----------------
TOTAL SCF ENERGY
----------------

Total Energy       :        -1165.51040421 Eh          -31715.15047 eV

Components:
Nuclear Repulsion  :         2790.27559006 Eh           75927.25887 eV
Electronic Energy  :        -3955.78599427 Eh         -107642.40934 eV
One Electron Energy:        -7122.31054566 Eh         -193807.92295 eV
Two Electron Energy:         3166.52455138 Eh           86165.51361 eV
Max COSX asymmetry :            0.00000199 Eh               0.00005 eV
CPCM Dielectric    :           -0.01357000 Eh              -0.36926 eV

Virial components:
Potential Energy   :        -2322.40684373 Eh          -63195.90304 eV
Kinetic Energy     :         1156.89643952 Eh           31480.75257 eV
Virial Ratio       :            2.00744575


DFT components:
N(Alpha)           :      109.999955038633 electrons
N(Beta)            :      109.999955038633 electrons
N(Total)           :      219.999910077265 electrons
E(X)               :     -125.746218018122 Eh       
E(C)               :       -7.329316221517 Eh       
E(XC)              :     -133.075534239639 Eh       
DFET-embed. en.    :        0.000000000000 Eh       
CPCM Solvation Model Properties:
Surface-charge          :           -0.03434829
Charge-correction       :           -0.00008373 Eh              -0.00228 eV
Free-energy (cav+disp)  :  This term is not implemented in the current solvation scheme

---------------
SCF CONVERGENCE
---------------

  Last Energy change         ...   -1.1576e-08  Tolerance :   1.0000e-07
  Last MAX-Density change    ...    0.0000e+00  Tolerance :   1.0000e-05
  Last RMS-Density change    ...    0.0000e+00  Tolerance :   1.0000e-06
  Last DIIS Error            ...    2.0073e-06  Tolerance :   1.0000e-07

             **** THE GBW FILE WAS UPDATED (inpJ.gbw) ****
             **** DENSITY inpJ.scfp WAS UPDATED ****
             **** ENERGY FILE WAS UPDATED (inpJ.en.tmp) ****
             **** THE GBW FILE WAS UPDATED (inpJ.gbw) ****
             **** DENSITY inpJ.scfp WAS UPDATED ****
----------------
ORBITAL ENERGIES
----------------

  NO   OCC          E(Eh)            E(eV) 
   0   2.0000     -19.212382      -522.7955 
   1   2.0000     -10.300456      -280.2897 
   2   2.0000     -10.270363      -279.4708 
   3   2.0000     -10.268280      -279.4141 
   4   2.0000     -10.263716      -279.2899 
   5   2.0000     -10.257383      -279.1176 
   6   2.0000     -10.256922      -279.1050 
   7   2.0000     -10.251953      -278.9698 
   8   2.0000     -10.251026      -278.9446 
   9   2.0000     -10.249264      -278.8967 
  10   2.0000     -10.248099      -278.8649 
  11   2.0000     -10.247627      -278.8521 
  12   2.0000     -10.245957      -278.8067 
  13   2.0000     -10.244532      -278.7679 
  14   2.0000     -10.244335      -278.7625 
  15   2.0000     -10.243523      -278.7404 
  16   2.0000     -10.242853      -278.7222 
  17   2.0000     -10.242532      -278.7135 
  18   2.0000     -10.241753      -278.6923 
  19   2.0000     -10.241313      -278.6803 
  20   2.0000     -10.239922      -278.6424 
  21   2.0000     -10.234088      -278.4837 
  22   2.0000     -10.233787      -278.4755 
  23   2.0000     -10.232958      -278.4530 
  24   2.0000     -10.227013      -278.2912 
  25   2.0000     -10.224972      -278.2356 
  26   2.0000     -10.224314      -278.2177 
  27   2.0000     -10.222050      -278.1561 
  28   2.0000     -10.220558      -278.1155 
  29   2.0000      -1.043164       -28.3859 
  30   2.0000      -0.901504       -24.5312 
  31   2.0000      -0.882155       -24.0047 
  32   2.0000      -0.860127       -23.4052 
  33   2.0000      -0.845862       -23.0171 
  34   2.0000      -0.822395       -22.3785 
  35   2.0000      -0.814352       -22.1596 
  36   2.0000      -0.795885       -21.6571 
  37   2.0000      -0.795007       -21.6332 
  38   2.0000      -0.776868       -21.1396 
  39   2.0000      -0.758084       -20.6285 
  40   2.0000      -0.740134       -20.1401 
  41   2.0000      -0.730834       -19.8870 
  42   2.0000      -0.715222       -19.4622 
  43   2.0000      -0.702920       -19.1274 
  44   2.0000      -0.702222       -19.1084 
  45   2.0000      -0.696009       -18.9394 
  46   2.0000      -0.672266       -18.2933 
  47   2.0000      -0.670493       -18.2450 
  48   2.0000      -0.633327       -17.2337 
  49   2.0000      -0.622201       -16.9309 
  50   2.0000      -0.612488       -16.6667 
  51   2.0000      -0.606677       -16.5085 
  52   2.0000      -0.596552       -16.2330 
  53   2.0000      -0.577941       -15.7266 
  54   2.0000      -0.561867       -15.2892 
  55   2.0000      -0.540947       -14.7199 
  56   2.0000      -0.531907       -14.4739 
  57   2.0000      -0.529222       -14.4009 
  58   2.0000      -0.515106       -14.0167 
  59   2.0000      -0.509821       -13.8729 
  60   2.0000      -0.500335       -13.6148 
  61   2.0000      -0.491891       -13.3850 
  62   2.0000      -0.486720       -13.2443 
  63   2.0000      -0.481563       -13.1040 
  64   2.0000      -0.475618       -12.9422 
  65   2.0000      -0.473270       -12.8783 
  66   2.0000      -0.465102       -12.6561 
  67   2.0000      -0.459268       -12.4973 
  68   2.0000      -0.456696       -12.4273 
  69   2.0000      -0.453493       -12.3402 
  70   2.0000      -0.450873       -12.2689 
  71   2.0000      -0.441350       -12.0097 
  72   2.0000      -0.439505       -11.9595 
  73   2.0000      -0.432971       -11.7818 
  74   2.0000      -0.430900       -11.7254 
  75   2.0000      -0.420864       -11.4523 
  76   2.0000      -0.416802       -11.3418 
  77   2.0000      -0.412800       -11.2328 
  78   2.0000      -0.409817       -11.1517 
  79   2.0000      -0.407508       -11.0889 
  80   2.0000      -0.401817       -10.9340 
  81   2.0000      -0.399316       -10.8659 
  82   2.0000      -0.395316       -10.7571 
  83   2.0000      -0.391000       -10.6396 
  84   2.0000      -0.382773       -10.4158 
  85   2.0000      -0.380682       -10.3589 
  86   2.0000      -0.375065       -10.2060 
  87   2.0000      -0.373145       -10.1538 
  88   2.0000      -0.364952        -9.9309 
  89   2.0000      -0.363640        -9.8951 
  90   2.0000      -0.360554        -9.8112 
  91   2.0000      -0.356711        -9.7066 
  92   2.0000      -0.355091        -9.6625 
  93   2.0000      -0.345821        -9.4103 
  94   2.0000      -0.340777        -9.2730 
  95   2.0000      -0.339023        -9.2253 
  96   2.0000      -0.338474        -9.2103 
  97   2.0000      -0.332897        -9.0586 
  98   2.0000      -0.331175        -9.0117 
  99   2.0000      -0.329572        -8.9681 
 100   2.0000      -0.327063        -8.8998 
 101   2.0000      -0.325410        -8.8549 
 102   2.0000      -0.319061        -8.6821 
 103   2.0000      -0.315857        -8.5949 
 104   2.0000      -0.310384        -8.4460 
 105   2.0000      -0.301113        -8.1937 
 106   2.0000      -0.276531        -7.5248 
 107   2.0000      -0.274849        -7.4790 
 108   2.0000      -0.255576        -6.9546 
 109   2.0000      -0.220951        -6.0124 
 110   0.0000      -0.031517        -0.8576 
 111   0.0000       0.019485         0.5302 
 112   0.0000       0.029793         0.8107 
 113   0.0000       0.080845         2.1999 
 114   0.0000       0.089705         2.4410 
 115   0.0000       0.102307         2.7839 
 116   0.0000       0.104392         2.8406 
 117   0.0000       0.107759         2.9323 
 118   0.0000       0.110134         2.9969 
 119   0.0000       0.113369         3.0849 
 120   0.0000       0.118197         3.2163 
 121   0.0000       0.120555         3.2805 
 122   0.0000       0.126176         3.4334 
 123   0.0000       0.130572         3.5530 
 124   0.0000       0.131110         3.5677 
 125   0.0000       0.137849         3.7511 
 126   0.0000       0.138327         3.7641 
 127   0.0000       0.140785         3.8309 
 128   0.0000       0.142532         3.8785 
 129   0.0000       0.152574         4.1517 
 130   0.0000       0.154246         4.1972 
 131   0.0000       0.158015         4.2998 
 132   0.0000       0.160724         4.3735 
 133   0.0000       0.164411         4.4739 
 134   0.0000       0.167027         4.5450 
 135   0.0000       0.168385         4.5820 
 136   0.0000       0.174137         4.7385 
 137   0.0000       0.174482         4.7479 
 138   0.0000       0.175939         4.7875 
 139   0.0000       0.177743         4.8366 
 140   0.0000       0.181243         4.9319 
 141   0.0000       0.185660         5.0521 
 142   0.0000       0.189063         5.1447 
 143   0.0000       0.190461         5.1827 
 144   0.0000       0.194341         5.2883 
 145   0.0000       0.200084         5.4446 
 146   0.0000       0.202856         5.5200 
 147   0.0000       0.204496         5.5646 
 148   0.0000       0.206253         5.6124 
 149   0.0000       0.212435         5.7806 
 150   0.0000       0.219354         5.9689 
 151   0.0000       0.221005         6.0139 
 152   0.0000       0.222141         6.0448 
 153   0.0000       0.228241         6.2108 
 154   0.0000       0.231887         6.3100 
 155   0.0000       0.233316         6.3488 
 156   0.0000       0.240267         6.5380 
 157   0.0000       0.245127         6.6702 
 158   0.0000       0.250026         6.8036 
 159   0.0000       0.251106         6.8329 
 160   0.0000       0.252679         6.8757 
 161   0.0000       0.257354         7.0030 
 162   0.0000       0.263077         7.1587 
 163   0.0000       0.265090         7.2135 
 164   0.0000       0.266794         7.2598 
 165   0.0000       0.273651         7.4464 
 166   0.0000       0.276377         7.5206 
 167   0.0000       0.278806         7.5867 
 168   0.0000       0.284529         7.7424 
 169   0.0000       0.293149         7.9770 
 170   0.0000       0.298873         8.1328 
 171   0.0000       0.298921         8.1340 
 172   0.0000       0.301273         8.1981 
 173   0.0000       0.307196         8.3592 
 174   0.0000       0.311816         8.4850 
 175   0.0000       0.318602         8.6696 
 176   0.0000       0.331179         9.0118 
 177   0.0000       0.331411         9.0182 
 178   0.0000       0.344399         9.3716 
 179   0.0000       0.357213         9.7203 
 180   0.0000       0.362597         9.8668 
 181   0.0000       0.379679        10.3316 
 182   0.0000       0.382883        10.4188 
 183   0.0000       0.410876        11.1805 
 184   0.0000       0.420367        11.4388 
 185   0.0000       0.464276        12.6336 
 186   0.0000       0.484272        13.1777 
 187   0.0000       0.498223        13.5573 
 188   0.0000       0.505258        13.7488 
 189   0.0000       0.514200        13.9921 
 190   0.0000       0.516001        14.0411 
 191   0.0000       0.524666        14.2769 
 192   0.0000       0.543256        14.7828 
 193   0.0000       0.568339        15.4653 
 194   0.0000       0.569563        15.4986 
 195   0.0000       0.573866        15.6157 
 196   0.0000       0.586247        15.9526 
 197   0.0000       0.598311        16.2809 
 198   0.0000       0.604847        16.4587 
 199   0.0000       0.613579        16.6963 
 200   0.0000       0.616712        16.7816 
 201   0.0000       0.625855        17.0304 
 202   0.0000       0.627115        17.0647 
 203   0.0000       0.630806        17.1651 
 204   0.0000       0.639841        17.4109 
 205   0.0000       0.649359        17.6700 
 206   0.0000       0.658409        17.9162 
 207   0.0000       0.663338        18.0503 
 208   0.0000       0.665450        18.1078 
 209   0.0000       0.669165        18.2089 
 210   0.0000       0.676138        18.3987 
 211   0.0000       0.682640        18.5756 
 212   0.0000       0.688029        18.7222 
 213   0.0000       0.698391        19.0042 
 214   0.0000       0.703381        19.1400 
 215   0.0000       0.707202        19.2440 
 216   0.0000       0.711274        19.3548 
 217   0.0000       0.716244        19.4900 
 218   0.0000       0.718762        19.5585 
 219   0.0000       0.726528        19.7698 
 220   0.0000       0.728021        19.8104 
 221   0.0000       0.733423        19.9574 
 222   0.0000       0.739311        20.1177 
 223   0.0000       0.744142        20.2491 
 224   0.0000       0.747536        20.3415 
 225   0.0000       0.751911        20.4605 
 226   0.0000       0.754139        20.5212 
 227   0.0000       0.756049        20.5731 
 228   0.0000       0.763199        20.7677 
 229   0.0000       0.764021        20.7901 
 230   0.0000       0.775333        21.0979 
 231   0.0000       0.779236        21.2041 
 232   0.0000       0.780078        21.2270 
 233   0.0000       0.786542        21.4029 
 234   0.0000       0.790124        21.5004 
 235   0.0000       0.794316        21.6144 
 236   0.0000       0.795675        21.6514 
 237   0.0000       0.799425        21.7535 
 238   0.0000       0.809028        22.0148 
 239   0.0000       0.814701        22.1691 
 240   0.0000       0.819826        22.3086 
 241   0.0000       0.830840        22.6083 
 242   0.0000       0.833749        22.6875 
 243   0.0000       0.848593        23.0914 
 244   0.0000       0.853954        23.2373 
 245   0.0000       0.856973        23.3194 
 246   0.0000       0.858619        23.3642 
 247   0.0000       0.865412        23.5491 
 248   0.0000       0.867413        23.6035 
 249   0.0000       0.871271        23.7085 
 250   0.0000       0.871619        23.7179 
 251   0.0000       0.873157        23.7598 
 252   0.0000       0.876625        23.8542 
 253   0.0000       0.876965        23.8634 
 254   0.0000       0.882104        24.0033 
 255   0.0000       0.884913        24.0797 
 256   0.0000       0.885695        24.1010 
 257   0.0000       0.890149        24.2222 
 258   0.0000       0.892843        24.2955 
 259   0.0000       0.897337        24.4178 
 260   0.0000       0.899307        24.4714 
 261   0.0000       0.902520        24.5588 
 262   0.0000       0.908570        24.7235 
 263   0.0000       0.909984        24.7619 
 264   0.0000       0.911533        24.8041 
 265   0.0000       0.918866        25.0036 
 266   0.0000       0.923816        25.1383 
 267   0.0000       0.928980        25.2788 
 268   0.0000       0.930563        25.3219 
 269   0.0000       0.933523        25.4024 
 270   0.0000       0.939992        25.5785 
 271   0.0000       0.941896        25.6303 
 272   0.0000       0.945587        25.7307 
 273   0.0000       0.950229        25.8571 
 274   0.0000       0.954598        25.9759 
 275   0.0000       0.961530        26.1646 
 276   0.0000       0.968539        26.3553 
 277   0.0000       0.971910        26.4470 
 278   0.0000       0.975402        26.5420 
 279   0.0000       0.984814        26.7982 
 280   0.0000       0.990226        26.9454 
 281   0.0000       0.994839        27.0709 
 282   0.0000       1.004788        27.3417 
 283   0.0000       1.012061        27.5396 
 284   0.0000       1.020646        27.7732 
 285   0.0000       1.024600        27.8808 
 286   0.0000       1.026933        27.9443 
 287   0.0000       1.037347        28.2277 
 288   0.0000       1.055097        28.7106 
 289   0.0000       1.065281        28.9878 
 290   0.0000       1.072630        29.1877 
 291   0.0000       1.075699        29.2713 
 292   0.0000       1.085863        29.5478 
 293   0.0000       1.092198        29.7202 
 294   0.0000       1.099641        29.9228 
 295   0.0000       1.110624        30.2216 
 296   0.0000       1.116268        30.3752 
 297   0.0000       1.137776        30.9605 
 298   0.0000       1.139108        30.9967 
 299   0.0000       1.156350        31.4659 
 300   0.0000       1.161950        31.6183 
 301   0.0000       1.174330        31.9552 
 302   0.0000       1.203143        32.7392 
 303   0.0000       1.212951        33.0061 
 304   0.0000       1.226252        33.3680 
 305   0.0000       1.233912        33.5765 
 306   0.0000       1.246055        33.9069 
 307   0.0000       1.286994        35.0209 
 308   0.0000       1.293584        35.2002 
 309   0.0000       1.310826        35.6694 
 310   0.0000       1.331913        36.2432 
 311   0.0000       1.334273        36.3074 
 312   0.0000       1.349331        36.7172 
 313   0.0000       1.368449        37.2374 
 314   0.0000       1.410438        38.3800 
 315   0.0000       1.490439        40.5569 
 316   0.0000       1.527111        41.5548 
 317   0.0000       1.558809        42.4174 
 318   0.0000       1.591351        43.3029 
 319   0.0000       1.675339        45.5883 
 320   0.0000       6.201987       168.7647 
 321   0.0000       6.231827       169.5766 
 322   0.0000       6.242536       169.8680 
 323   0.0000       6.268792       170.5825 
 324   0.0000       6.271250       170.6494 
 325   0.0000       6.293933       171.2666 
 326   0.0000       6.301084       171.4612 
 327   0.0000       6.308277       171.6569 
 328   0.0000       6.318313       171.9300 
 329   0.0000       6.337731       172.4584 
 330   0.0000       6.342068       172.5765 
 331   0.0000       6.350510       172.8062 
 332   0.0000       6.361976       173.1182 
 333   0.0000       6.375389       173.4832 
 334   0.0000       6.386072       173.7738 
 335   0.0000       6.397329       174.0802 
 336   0.0000       6.407360       174.3531 
 337   0.0000       6.415334       174.5701 
 338   0.0000       6.421948       174.7501 
 339   0.0000       6.424445       174.8180 
 340   0.0000       6.440533       175.2558 
 341   0.0000       6.444317       175.3588 
 342   0.0000       6.454807       175.6442 
 343   0.0000       6.461256       175.8197 
 344   0.0000       6.478830       176.2979 
 345   0.0000       6.480151       176.3339 
 346   0.0000       6.485688       176.4846 
 347   0.0000       6.491248       176.6358 
 348   0.0000       6.504196       176.9882 
 349   0.0000       6.519998       177.4182 
 350   0.0000       6.524071       177.5290 
 351   0.0000       6.527358       177.6184 
 352   0.0000       6.543424       178.0556 
 353   0.0000       6.545598       178.1148 
 354   0.0000       6.548513       178.1941 
 355   0.0000       6.557558       178.4402 
 356   0.0000       6.560962       178.5328 
 357   0.0000       6.563800       178.6101 
 358   0.0000       6.571723       178.8257 
 359   0.0000       6.578238       179.0030 
 360   0.0000       6.584797       179.1814 
 361   0.0000       6.586429       179.2258 
 362   0.0000       6.591863       179.3737 
 363   0.0000       6.595428       179.4707 
 364   0.0000       6.597572       179.5291 
 365   0.0000       6.606890       179.7826 
 366   0.0000       6.609156       179.8443 
 367   0.0000       6.611756       179.9150 
 368   0.0000       6.614177       179.9809 
 369   0.0000       6.617782       180.0790 
 370   0.0000       6.624205       180.2538 
 371   0.0000       6.629019       180.3848 
 372   0.0000       6.634173       180.5250 
 373   0.0000       6.634724       180.5400 
 374   0.0000       6.638402       180.6401 
[...]
     69 H        0.000      0.000      0.000      0.000      0.000      0.000
     70 H        0.000      0.000      0.000     -0.000      0.001      0.020
     71 H        0.000      0.000      0.000      0.000      0.001      0.016
     72 H        0.000      0.000      0.000      0.000      0.003      0.036
                 25 H       27 H       28 H       30 H       31 H       33 H  
      3 H        0.075     -0.003      0.002      0.000      0.000      0.089
      4 H        2.363     -0.106      0.061      0.000      0.000      2.630
      8 H        0.126      0.000      0.000      0.000      0.000      0.118
      9 H       -0.261      0.014      0.000      0.000      0.000     -0.310
     10 H        0.000      0.000      0.000      0.000      0.000      0.000
     11 H        0.000      0.000      0.000      0.000      0.000      0.000
     13 H       -0.038      0.000      0.000      0.000      0.000      0.000
     16 H       -0.264      0.013     -0.004     -0.030     -0.002     -0.306
     17 H       -0.240      0.012      0.000      0.000      0.000     -0.297
     19 H        0.920     -0.043      0.069      0.061      0.005      0.989
     21 H       -2.899      0.186      0.679     -0.222     -0.028     -2.462
     24 H      -13.539      4.333      2.340      0.675     -0.497     -0.172
     25 H        0.000     12.974      5.267     -0.637     -0.367     -2.269
     27 H       12.974      0.000    -13.637      3.956     13.025      0.064
     28 H        5.267    -13.637      0.000      2.667      4.100      0.285
     30 H       -0.637      3.956      2.667      0.000    -13.004      0.023
     31 H       -0.367     13.025      4.100    -13.004      0.000     -0.314
     33 H       -2.269      0.064      0.285      0.023     -0.314      0.000
     35 H       -0.028      0.001     -0.001      0.000     -0.000     -0.036
     37 H        0.273      0.006     -0.035      0.541     -0.040      6.156
     38 H        0.186      0.002     -0.028     -0.022      0.120     12.269
     40 H       -0.014      0.023      0.140     -0.001     -0.038     -0.246
     41 H        0.009      0.019     -0.029      0.012      0.091     -0.387
     42 H       -0.019      0.005     -0.007     -0.262     -0.393     -0.210
     45 H       -0.062     -0.117     -0.150     -0.149      1.794     -0.479
     46 H       -0.013     -0.203      0.021     -0.200     -0.484     -0.172
     47 H        0.014      0.036      0.059     -0.319      0.045      0.874
     48 H       -0.014      0.031      0.020      0.036      0.021      0.004
     52 H       -0.002     -0.001      0.010     -0.010      0.002      0.017
     53 H       -0.000      0.000     -0.001      0.000     -0.001     -0.003
     57 H        0.000      0.000      0.000     -0.002     -0.000     -0.000
     58 H       -0.000      0.000      0.000      0.000      0.000      0.000
     61 H        0.000      0.000      0.000      0.000      0.000      0.000
     62 H        0.000      0.000      0.000      0.000      0.000      0.000
     63 H        0.000      0.000      0.000      0.000      0.000      0.000
     64 H        0.000      0.000      0.000      0.000      0.000      0.000
     65 H        0.000      0.000      0.000      0.000      0.000      0.000
     66 H        0.000      0.000      0.000      0.000      0.000      0.000
     67 H       -0.000     -0.000     -0.000      0.000      0.000     -0.000
     68 H        0.000      0.000      0.000      0.000     -0.000     -0.000
     69 H        0.000      0.000      0.000     -0.000      0.000      0.000
     70 H        0.003     -0.003     -0.007     -0.459     -0.107      0.005
     71 H       -0.000     -0.005     -0.006      0.032     -0.003      0.002
     72 H        0.000     -0.008     -0.010      0.051     -0.062      0.008
                 35 H       37 H       38 H       40 H       41 H       42 H  
      3 H       -0.269     -0.001     -0.001      0.000      0.000      0.000
      4 H       -0.644     -0.044     -0.019      0.000      0.000      0.000
      8 H       -0.025     -0.002     -0.002      0.000     -0.000      0.000
      9 H       -0.139      0.005      0.002      0.000      0.001      0.000
     10 H       -0.391     -0.000     -0.000      0.000      0.000      0.000
     11 H       -0.143     -0.002     -0.000      0.000      0.000      0.000
     13 H       12.459      0.000      0.000      0.000      0.000      0.000
     16 H       -0.003      0.004      0.004      0.000      0.001     -0.001
     17 H       -0.001      0.005      0.004     -0.001      0.000      0.000
     19 H        0.044     -0.007      0.086      0.012     -0.007      0.004
     21 H       -0.015      0.046     -0.526     -0.009      0.061     -0.025
     24 H       -0.001     -0.050     -0.080     -0.022      0.075     -0.024
     25 H       -0.028      0.273      0.186     -0.014      0.009     -0.019
     27 H        0.001      0.006      0.002      0.023      0.019      0.005
     28 H       -0.001     -0.035     -0.028      0.140     -0.029     -0.007
     30 H        0.000      0.541     -0.022     -0.001      0.012     -0.262
     31 H       -0.000     -0.040      0.120     -0.038      0.091     -0.393
     33 H       -0.036      6.156     12.269     -0.246     -0.387     -0.210
     35 H        0.000      0.000     -0.000      0.000      0.000      0.000
     37 H        0.000      0.000    -12.071      9.405      2.190     -0.248
     38 H       -0.000    -12.071      0.000      7.275     11.192     -0.457
     40 H        0.000      9.405      7.275      0.000    -13.971      9.740
     41 H        0.000      2.190     11.192    -13.971      0.000      8.061
     42 H        0.000     -0.248     -0.457      9.740      8.061      0.000
     45 H       -0.000      0.097     -0.081     -0.110     -0.038     -0.085
     46 H        0.000      0.049      0.030     -0.072      0.016      0.989
     47 H        0.000     -0.161      0.008      0.037      0.034     -0.397
     48 H        0.000      0.141      0.003     -0.163     -0.456     10.589
     52 H        0.000     -0.007      0.002     -0.022      0.063     -0.570
     53 H        0.000      0.007      0.013     -0.228     -0.022     -0.458
     57 H        0.000     -0.004     -0.008      0.011      0.019      0.025
     58 H        0.000      0.000      0.000     -0.001     -0.000     -0.000
     61 H        0.000      0.000      0.000      0.003     -0.000     -0.005
     62 H        0.000      0.000      0.000      0.001     -0.001      0.003
     63 H        0.000     -0.000     -0.000     -0.001     -0.000      0.001
     64 H        0.000      0.000      0.000     -0.000     -0.000      0.000
     65 H        0.000      0.000      0.000      0.000     -0.000      0.000
     66 H        0.000      0.000      0.000      0.001      0.001     -0.000
     67 H        0.000     -0.000      0.000     -0.001     -0.000      0.001
     68 H        0.000      0.000      0.000     -0.000     -0.000      0.000
     69 H        0.000      0.000      0.000     -0.000      0.000      0.000
     70 H        0.000     -0.015     -0.002      0.038     -0.001     -0.157
     71 H        0.000     -0.024      0.030     -0.002     -0.070     -0.342
     72 H        0.000      0.064      0.008     -0.038     -0.011     -0.451
                 45 H       46 H       47 H       48 H       52 H       53 H  
      3 H        0.001     -0.000     -0.001      0.000      0.000      0.000
      4 H        0.026     -0.020      0.000      0.000      0.000      0.000
      8 H        0.001     -0.001      0.000      0.000      0.000      0.000
      9 H       -0.003      0.003      0.000      0.000      0.000      0.000
     10 H        0.000     -0.000      0.000      0.000      0.000      0.000
     11 H        0.000      0.000      0.000      0.000      0.000      0.000
     13 H        0.000      0.000      0.000      0.000      0.000      0.000
     16 H       -0.003      0.001      0.002     -0.002      0.000      0.000
     17 H       -0.003      0.001      0.001     -0.001      0.000      0.000
     19 H        0.010     -0.011     -0.008      0.005      0.000      0.000
     21 H       -0.020      0.044      0.012     -0.015      0.001     -0.000
     24 H       -0.022     -0.022     -0.015      0.003      0.000     -0.000
     25 H       -0.062     -0.013      0.014     -0.014     -0.002     -0.000
     27 H       -0.117     -0.203      0.036      0.031     -0.001      0.000
     28 H       -0.150      0.021      0.059      0.020      0.010     -0.001
     30 H       -0.149     -0.200     -0.319      0.036     -0.010      0.000
     31 H        1.794     -0.484      0.045      0.021      0.002     -0.001
     33 H       -0.479     -0.172      0.874      0.004      0.017     -0.003
     35 H       -0.000      0.000      0.000      0.000      0.000      0.000
     37 H        0.097      0.049     -0.161      0.141     -0.007      0.007
     38 H       -0.081      0.030      0.008      0.003      0.002      0.013
     40 H       -0.110     -0.072      0.037     -0.163     -0.022     -0.228
     41 H       -0.038      0.016      0.034     -0.456      0.063     -0.022
     42 H       -0.085      0.989     -0.397     10.589     -0.570     -0.458
     45 H        0.000    -13.600    -13.051     -0.216      0.014      0.000
     46 H      -13.600      0.000    -12.965     -0.126      0.009      0.003
     47 H      -13.051    -12.965      0.000     -0.030      0.008     -0.005
     48 H       -0.216     -0.126     -0.030      0.000      5.668     -2.034
     52 H        0.014      0.009      0.008      5.668      0.000     17.328
     53 H        0.000      0.003     -0.005     -2.034     17.328      0.000
     57 H        0.005      0.000      0.007      3.099     -2.906      4.122
     58 H       -0.000      0.000     -0.000     -0.058      0.035     -0.334
     61 H        0.000      0.000      0.000      0.040     -0.248     -0.562
     62 H        0.000      0.000      0.000      0.008     -0.224      0.737
     63 H        0.000      0.000      0.000     -0.034     -0.206     -0.501
     64 H        0.000      0.000      0.000     -0.006      0.004      0.017
     65 H        0.000      0.000      0.000     -0.000      0.043      0.073
     66 H        0.000      0.000      0.000      0.014      0.013     -0.014
     67 H       -0.000      0.000      0.000     -0.016      0.025      0.005
     68 H        0.000      0.000      0.000     -0.027      0.017     -0.021
     69 H        0.000      0.000      0.000      0.020     -0.012      0.015
     70 H       -0.029     -0.077     -0.327      5.458      0.015     -0.425
     71 H        0.017     -0.038     -0.060     12.408     -0.242      0.137
     72 H       -0.012     -0.029     -0.019      1.946     -0.220     -0.055
                 57 H       58 H       61 H       62 H       63 H       64 H  
      3 H        0.000      0.000      0.000      0.000      0.000      0.000
      4 H        0.000      0.000      0.000      0.000      0.000      0.000
      8 H        0.000      0.000      0.000      0.000      0.000      0.000
      9 H        0.000      0.000      0.000      0.000      0.000      0.000
     10 H        0.000      0.000      0.000      0.000      0.000      0.000
     11 H        0.000      0.000      0.000      0.000      0.000      0.000
     13 H        0.000      0.000      0.000      0.000      0.000      0.000
     16 H        0.000      0.000      0.000      0.000      0.000      0.000
     17 H        0.000      0.000      0.000      0.000      0.000      0.000
     19 H        0.000      0.000      0.000      0.000      0.000      0.000
     21 H        0.000      0.000      0.000      0.000      0.000      0.000
     24 H        0.000      0.000      0.000      0.000      0.000      0.000
     25 H        0.000     -0.000      0.000      0.000      0.000      0.000
     27 H        0.000      0.000      0.000      0.000      0.000      0.000
     28 H        0.000      0.000      0.000      0.000      0.000      0.000
     30 H       -0.002      0.000      0.000      0.000      0.000      0.000
     31 H       -0.000      0.000      0.000      0.000      0.000      0.000
     33 H       -0.000      0.000      0.000      0.000      0.000      0.000
     35 H        0.000      0.000      0.000      0.000      0.000      0.000
     37 H       -0.004      0.000      0.000      0.000     -0.000      0.000
     38 H       -0.008      0.000      0.000      0.000     -0.000      0.000
     40 H        0.011     -0.001      0.003      0.001     -0.001     -0.000
     41 H        0.019     -0.000     -0.000     -0.001     -0.000     -0.000
     42 H        0.025     -0.000     -0.005      0.003      0.001      0.000
     45 H        0.005     -0.000      0.000      0.000      0.000      0.000
     46 H        0.000      0.000      0.000      0.000      0.000      0.000
     47 H        0.007     -0.000      0.000      0.000      0.000      0.000
     48 H        3.099     -0.058      0.040      0.008     -0.034     -0.006
     52 H       -2.906      0.035     -0.248     -0.224     -0.206      0.004
     53 H        4.122     -0.334     -0.562      0.737     -0.501      0.017
     57 H        0.000      2.758     13.015      3.427      3.733     -0.341
     58 H        2.758      0.000     -0.511     -0.405      0.542      2.658
     61 H       13.015     -0.511      0.000    -12.648    -12.697      0.028
     62 H        3.427     -0.405    -12.648      0.000    -13.551      0.009
     63 H        3.733      0.542    -12.697    -13.551      0.000      0.036
     64 H       -0.341      2.658      0.028      0.009      0.036      0.000
     65 H       -0.291     13.023      0.034     -0.321     -0.107    -11.989
     66 H       -0.156      4.527      0.052     -0.132     -0.089    -12.707
     67 H       -0.252      2.737     -0.013      0.079      0.032      2.826
     68 H        0.582      4.345     -0.090      0.042     -0.138     -0.091
     69 H       -0.502     13.150     -0.124     -0.013     -0.062     -0.227
     70 H        0.503     -0.015     -0.007     -0.025     -0.015      0.000
     71 H       -0.156      0.003      0.000      0.001      0.001     -0.000
     72 H        0.014     -0.001      0.001     -0.004     -0.003     -0.001
                 65 H       66 H       67 H       68 H       69 H       70 H  
      3 H        0.000      0.000      0.000      0.000      0.000      0.000
      4 H        0.000      0.000      0.000      0.000      0.000      0.000
      8 H        0.000      0.000      0.000      0.000      0.000      0.000
      9 H        0.000      0.000      0.000      0.000      0.000      0.000
     10 H        0.000      0.000      0.000      0.000      0.000      0.000
     11 H        0.000      0.000      0.000      0.000      0.000      0.000
     13 H        0.000      0.000      0.000      0.000      0.000      0.000
     16 H        0.000      0.000      0.000      0.000      0.000      0.000
     17 H        0.000      0.000      0.000      0.000      0.000      0.000
     19 H        0.000      0.000      0.000      0.000      0.000     -0.000
     21 H        0.000      0.000      0.000      0.000      0.000      0.001
     24 H        0.000      0.000      0.000      0.000      0.000      0.020
     25 H        0.000      0.000     -0.000      0.000      0.000      0.003
     27 H        0.000      0.000     -0.000      0.000      0.000     -0.003
     28 H        0.000      0.000     -0.000      0.000      0.000     -0.007
     30 H        0.000      0.000      0.000      0.000     -0.000     -0.459
     31 H        0.000      0.000      0.000     -0.000      0.000     -0.107
     33 H        0.000      0.000     -0.000     -0.000      0.000      0.005
     35 H        0.000      0.000      0.000      0.000      0.000      0.000
     37 H        0.000      0.000     -0.000      0.000      0.000     -0.015
     38 H        0.000      0.000      0.000      0.000      0.000     -0.002
     40 H        0.000      0.001     -0.001     -0.000     -0.000      0.038
     41 H       -0.000      0.001     -0.000     -0.000      0.000     -0.001
     42 H        0.000     -0.000      0.001      0.000      0.000     -0.157
     45 H        0.000      0.000     -0.000      0.000      0.000     -0.029
     46 H        0.000      0.000      0.000      0.000      0.000     -0.077
     47 H        0.000      0.000      0.000      0.000      0.000     -0.327
     48 H       -0.000      0.014     -0.016     -0.027      0.020      5.458
     52 H        0.043      0.013      0.025      0.017     -0.012      0.015
     53 H        0.073     -0.014      0.005     -0.021      0.015     -0.425
     57 H       -0.291     -0.156     -0.252      0.582     -0.502      0.503
     58 H       13.023      4.527      2.737      4.345     13.150     -0.015
     61 H        0.034      0.052     -0.013     -0.090     -0.124     -0.007
     62 H       -0.321     -0.132      0.079      0.042     -0.013     -0.025
     63 H       -0.107     -0.089      0.032     -0.138     -0.062     -0.015
     64 H      -11.989    -12.707      2.826     -0.091     -0.227      0.000
     65 H        0.000    -13.126     -0.255     -0.209     -0.353      0.000
     66 H      -13.126      0.000     -0.101     -0.190     -0.208      0.000
     67 H       -0.255     -0.101      0.000    -12.732    -12.316      0.004
     68 H       -0.209     -0.190    -12.732      0.000    -12.868      0.012
     69 H       -0.353     -0.208    -12.316    -12.868      0.000      0.006
     70 H        0.000      0.000      0.004      0.012      0.006      0.000
     71 H        0.001     -0.005     -0.030     -0.004     -0.009    -11.590
     72 H       -0.001      0.005      0.000      0.003      0.001    -13.447
                 71 H       72 H  
      3 H        0.000      0.000
      4 H        0.000      0.000
      8 H        0.000      0.000
      9 H        0.000      0.000
     10 H        0.000      0.000
     11 H        0.000      0.000
     13 H        0.000      0.000
     16 H        0.000      0.000
     17 H        0.000      0.000
     19 H        0.000      0.000
     21 H        0.001      0.003
     24 H        0.016      0.036
     25 H       -0.000      0.000
     27 H       -0.005     -0.008
     28 H       -0.006     -0.010
     30 H        0.032      0.051
     31 H       -0.003     -0.062
     33 H        0.002      0.008
     35 H        0.000      0.000
     37 H       -0.024      0.064
     38 H        0.030      0.008
     40 H       -0.002     -0.038
     41 H       -0.070     -0.011
     42 H       -0.342     -0.451
     45 H        0.017     -0.012
     46 H       -0.038     -0.029
     47 H       -0.060     -0.019
     48 H       12.408      1.946
     52 H       -0.242     -0.220
     53 H        0.137     -0.055
     57 H       -0.156      0.014
     58 H        0.003     -0.001
     61 H        0.000      0.001
     62 H        0.001     -0.004
     63 H        0.001     -0.003
     64 H       -0.000     -0.001
     65 H        0.001     -0.001
     66 H       -0.005      0.005
     67 H       -0.030      0.000
     68 H       -0.004      0.003
     69 H       -0.009      0.001
     70 H      -11.590    -13.447
     71 H        0.000    -13.063
     72 H      -13.063      0.000

Maximum memory used throughout the entire EPRNMR-calculation: 990.5 MB

Timings for individual modules:

Sum of individual times         ...      388.446 sec (=   6.474 min)
GTO integral calculation        ...        0.638 sec (=   0.011 min)   0.2 %
SCF iterations                  ...      103.178 sec (=   1.720 min)  26.6 %
EPR/NMR calculation             ...      284.630 sec (=   4.744 min)  73.3 %
                             ****ORCA TERMINATED NORMALLY****
TOTAL RUN TIME: 0 days 0 hours 6 minutes 28 seconds 917 msec
