
                                 *****************
                                 * O   R   C   A *
                                 *****************

                                            #,                                       
                                            ###                                      
                                            ####                                     
                                            #####                                    
                                            ######                                   
                                           ########,                                 
                                     ,,################,,,,,                         
                               ,,#################################,,                 
                          ,,##########################################,,             
                       ,#########################################, ''#####,          
                    ,#############################################,,   '####,        
                  ,##################################################,,,,####,       
                ,###########''''           ''''###############################       
              ,#####''   ,,,,##########,,,,          '''####'''          '####       
            ,##' ,,,,###########################,,,                        '##       
           ' ,,###''''                  '''############,,,                           
         ,,##''                                '''############,,,,        ,,,,,,###''
      ,#''                                            '''#######################'''  
     '                                                          ''''####''''         
             ,#######,   #######,   ,#######,      ##                                
            ,#'     '#,  ##    ##  ,#'     '#,    #''#        ,####,   ,####,        
            ##       ##  ##   ,#'  ##            #'  '#       #'       #'  '#        
            ##       ##  #######   ##           ,######,      #####,   #    #        
            '#,     ,#'  ##    ##  '#,     ,#' ,#      #,     #,   #   #,  ,#        
             '#######'   ##     ##  '#######'  #'      '#     '####' # '####'        



                #########################################################
                #                        -***-                          #
                #          Department of theory and spectroscopy        #
                #                                                       #
                #                      Frank Neese                      #
                #                                                       #
                #     Directorship, Architecture, Infrastructure        #
                #                    SHARK, DRIVERS                     #
                #        Core code/Algorithms in most modules           #
                #                                                       #
                #        Max Planck Institute fuer Kohlenforschung      #
                #                Kaiser Wilhelm Platz 1                 #
                #                 D-45470 Muelheim/Ruhr                 #
                #                      Germany                          #
                #                                                       #
                #                  All rights reserved                  #
                #                        -***-                          #
                #########################################################


                         Program Version 6.0.0  -   RELEASE  -


 With contributions from (in alphabetic order):
   Daniel Aravena         : Magnetic Suceptibility
   Michael Atanasov       : Ab Initio Ligand Field Theory (pilot matlab implementation)
   Alexander A. Auer      : GIAO ZORA, VPT2 properties, NMR spectrum
   Ute Becker             : All parallelization in ORCA, NUMFREQ, NUMCALC
   Giovanni Bistoni       : ED, misc. LED, open-shell LED, HFLD
   Martin Brehm           : Molecular dynamics
   Dmytro Bykov           : pre 5.0 version of the SCF Hessian
   Marcos Casanova-Páez   : Triplet and SCS-CIS(D). UHF-(DLPNO)-IP/EA/STEOM-CCSD. UHF-CVS-IP/STEOM-CCSD
   Vijay G. Chilkuri      : MRCI spin determinant printing, contributions to CSF-ICE
   Pauline Colinet        : FMM embedding
   Dipayan Datta          : RHF DLPNO-CCSD density
   Achintya Kumar Dutta   : EOM-CC, STEOM-CC
   Nicolas Foglia         : Exact transition moments, OPA infrastructure, MCD improvements
   Dmitry Ganyushin       : Spin-Orbit,Spin-Spin,Magnetic field MRCI
   Miquel Garcia          : C-PCM and meta-GGA Hessian, CCSD/C-PCM, Gaussian charge scheme
   Tiago L. C. Gouveia    : GS-ROHF, GS-ROCIS
   Yang Guo               : DLPNO-NEVPT2, F12-NEVPT2, CIM, IAO-localization
   Andreas Hansen         : Spin unrestricted coupled pair/coupled cluster methods
   Ingolf Harden          : AUTO-CI MPn and infrastructure 
   Benjamin Helmich-Paris : MC-RPA, TRAH-(SCF,CASSCF), AVAS, COSX integrals, SCF dyn. polar.
   Lee Huntington         : MR-EOM, pCC
   Robert Izsak           : Overlap fitted RIJCOSX, COSX-SCS-MP3, EOM
   Riya Kayal             : Wick's Theorem for AUTO-CI, AUTO-CI UHF-CCSDT
   Emily Kempfer          : AUTO-CI, RHF CISDT and CCSDT
   Christian Kollmar      : KDIIS, OOCD, Brueckner-CCSD(T), CCSD density, CASPT2, CASPT2-K, improved NEVPT2
   Axel Koslowski         : Symmetry handling
   Simone Kossmann        : Meta GGA functionals, TD-DFT gradient, OOMP2, (MP2 Hessian; deprecated post 5.0)
   Lucas Lang             : DCDCAS
   Marvin Lechner         : AUTO-CI (C++ implementation), FIC-MRCC
   Spencer Leger          : CASSCF response
   Dagmar Lenk            : GEPOL surface, SMD, ORCA-2-JSON
   Dimitrios Liakos       : Extrapolation schemes; Compound Job, initial MDCI parallelization
   Dimitrios Manganas     : Further ROCIS development; embedding schemes. LFT, Crystal Embedding
   Dimitrios Pantazis     : SARC Basis sets
   Anastasios Papadopoulos: AUTO-CI, single reference methods and gradients
   Taras Petrenko         : pre 6.0 DFT Hessian and TD-DFT gradient, (ASA, deprecated), ECA, 1-Electron XAS/XES, NRVS
   Peter Pinski           : DLPNO-MP2, DLPNO-MP2 Gradient
   Christoph Reimann      : Effective Core Potentials
   Marius Retegan         : Local ZFS, SOC
   Christoph Riplinger    : Optimizer, TS searches, QM/MM, DLPNO-CCSD(T), (RO)-DLPNO pert. Triples
   Michael Roemelt        : Original ROCIS implementation
   Masaaki Saitow         : Open-shell DLPNO-CCSD energy and density
   Barbara Sandhoefer     : DKH picture change effects
   Kantharuban Sivalingam : CASSCF convergence/infrastructure, NEVPT2 and variants, FIC-MRCI
   Bernardo de Souza      : ESD, SOC TD-DFT
   Georgi Stoychev        : AutoAux, RI-MP2 NMR, DLPNO-MP2 response, X2C
   Van Anh Tran           : RI-MP2 g-tensors
   Willem Van den Heuvel  : Paramagnetic NMR
   Zikuan Wang            : NOTCH, Electric field optimization 
   Frank Wennmohs         : Technical directorship and infrastructure
   Hang Xu                : AUTO-CI-Response properties 


 We gratefully acknowledge several colleagues who have allowed us to
 interface, adapt or use parts of their codes:
   Stefan Grimme, W. Hujo, H. Kruse, P. Pracht,  : VdW corrections, initial TS optimization,
                  C. Bannwarth, S. Ehlert,         DFT functionals, gCP, sTDA/sTD-DF
                  L. Wittmann, M. Mueller
   Ed Valeev, F. Pavosevic, A. Kumar             : LibInt (2-el integral package), F12 methods
   Garnet Chan, S. Sharma, J. Yang, R. Olivares  : DMRG
   Ulf Ekstrom                                   : XCFun DFT Library
   Mihaly Kallay                                 : mrcc  (arbitrary order and MRCC methods)
   Frank Weinhold                                : gennbo (NPA and NBO analysis)
   Simon Mueller                                 : openCOSMO-RS
   Christopher J. Cramer and Donald G. Truhlar   : smd solvation model
   Lars Goerigk                                  : TD-DFT with DH, B97 family of functionals
   V. Asgeirsson, H. Jonsson                     : NEB implementation
   FAccTs GmbH                                   : IRC, NEB, NEB-TS, DLPNO-Multilevel, CI-OPT
                                                   MM, QMMM, 2- and 3-layer-ONIOM, Crystal-QMMM,
                                                   LR-CPCM, SF, NACMEs, symmetry and pop. for TD-DFT,
                                                   nearIR, NL-DFT gradient (VV10), updates on ESD,
                                                   ML-optimized integration grids, MBIS, APM,
                                                   GOAT, DOCKER, SOLVATOR, interface openCOSMO-RS
   S Lehtola, MJT Oliveira, MAL Marques          : LibXC Library
   Liviu Ungur et al                             : ANISO software


 Your calculation uses the libint2 library for the computation of 2-el integrals
 For citations please refer to: http://libint.valeyev.net

 Your ORCA version has been built with support for libXC version: 6.2.2
 For citations please refer to: https://libxc.gitlab.io

 This ORCA versions uses:
   CBLAS   interface :  Fast vector & matrix operations
   LAPACKE interface :  Fast linear algebra routines
   SCALAPACK package :  Parallel linear algebra routines
   Shared memory     :  Shared parallel matrices
   BLAS/LAPACK       :  OpenBLAS 0.3.27  USE64BITINT DYNAMIC_ARCH NO_AFFINITY Zen SINGLE_THREADED
        Core in use  :  Zen
   Copyright (c) 2011-2014, The OpenBLAS Project


NOTE: MaxCore=8000 MB was set to SCF,MP2,MDCI,CIPSI,MRCI and CIS
      => If you want to overwrite this, your respective input block should be placed after the MaxCore statement
Your calculation utilizes the atom-pairwise dispersion correction
based on EEQ partial charges (D4)


================================================================================

----- Orbital basis set information -----
Your calculation utilizes the basis: def2-SVP
   F. Weigend and R. Ahlrichs, Phys. Chem. Chem. Phys. 7, 3297 (2005).

----- AuxJ basis set information -----
Your calculation utilizes the auxiliary basis: def2/J
   F. Weigend, Phys. Chem. Chem. Phys. 8, 1057 (2006).

================================================================================
                                        WARNINGS
                       Please study these warnings very carefully!
================================================================================

WARNING: Old DensityContainer found on disk!
         Will remove this file - 
         If you want to keep old densities, please start your calculation with a different basename. 


================================================================================
                                       INPUT FILE
================================================================================
NAME = inpS
|  1> ! wb97x-d4
|  2> ! def2-svp
|  3> ! def2/J RIJCOSX
|  4> ! DEFGRID2
|  5> ! scfconv7
|  6> ! smallprint printgap noloewdin
|  7> ! NOSOSCF
|  8> %MaxCore 8000
|  9> %output
| 10>        print[P_BondOrder_M] 1
| 11>        print[P_Mayer] 1
| 12>        print[P_basis] 2
| 13> end
| 14> %pal
| 15>     nprocs 4
| 16> end
| 17> ! CPCM(chloroform)
| 18> *xyz 0 1
| 19> C   -5.1993097900   0.0714380500  -0.5814050300
| 20> C   -6.6241227200  -0.4153919000  -0.6991094700
| 21> C   -7.5739798200   0.5210514300   0.0589207600
| 22> H   -6.7187367200  -1.4376291900  -0.3156850600
| 23> H   -6.9303749100  -0.4196580600  -1.7557317000
| 24> C   -5.0109475200   1.4790018200  -0.9983504300
| 25> C   -5.9847704500   2.4512469200  -0.3706167400
| 26> C   -7.4333931900   1.9515943600  -0.4634836700
| 27> H   -5.8867256100   3.4384405300  -0.8345012300
| 28> H   -5.7211027300   2.5675862300   0.6916810400
| 29> H   -7.7618303600   1.9695342900  -1.5115908600
| 30> H   -8.0976071600   2.6152421900   0.1021529300
| 31> O   -7.3365439400   0.4463667200   1.4748225200
| 32> H   -8.6082426300   0.1820096200  -0.0784629000
| 33> C   -4.2265338600  -0.7176765400  -0.0665675700
| 34> C   -4.0879051700   1.8609845400  -1.8875467400
| 35> H   -3.4088470700   1.1442349100  -2.3416968200
| 36> H   -3.9976588800   2.9022417500  -2.1881408100
| 37> C   -2.8595803600  -0.3246006300   0.1884067500
| 38> H   -4.5196016900  -1.7306782400   0.2063210900
| 39> C   -1.8599654400  -1.1253359100   0.6159915900
| 40> H   -2.6323853700   0.7268077000   0.0276962200
| 41> C   -1.9683668100  -2.6068019000   0.8734337700
| 42> C   -0.8979327900  -3.3984608000   0.0974658200
| 43> H   -2.9613361700  -2.9972851200   0.6350384700
| 44> H   -1.8049852400  -2.7759798400   1.9498102000
| 45> C    0.5167030500  -2.8436181600   0.3102149000
| 46> H   -1.1455308800  -3.3825379400  -0.9714824900
| 47> H   -0.9315156200  -4.4493517300   0.4099039900
| 48> C    0.5957815700  -1.3447357600  -0.0103964600
| 49> H    1.2202430900  -3.4192693100  -0.3000155500
| 50> H    0.8090317800  -2.9897706200   1.3611208600
| 51> C   -0.4727732200  -0.6212065800   0.8685979600
| 52> H   -0.2199007300  -0.9117940000   1.9055291900
| 53> C   -0.1321847700   0.8568173800   0.7164476500
| 54> H   -6.3784727200   0.4262672000   1.6105523200
| 55> C    1.4153941000   0.8642536100   0.6782380900
| 56> H   -0.5383356400   1.4624070300   1.5335002000
| 57> H   -0.5436668400   1.2561591000  -0.2174033000
| 58> C    1.8801547800  -0.6121239300   0.4737310800
| 59> H    1.8286687900   1.2790016700   1.6015842700
| 60> H    1.7902101000   1.4940624200  -0.1373894000
| 61> H    2.1228482100  -1.0478007800   1.4557579900
| 62> C    3.1363315400  -0.7003052100  -0.4044994400
| 63> C    0.3367790900  -1.0847037300  -1.5017976800
| 64> H    0.5287665600  -0.0411011200  -1.7707256800
| 65> H   -0.7012281700  -1.3036591300  -1.7711370400
| 66> H    0.9846619000  -1.7112253200  -2.1240729600
| 67> H    2.8996074000  -0.2189348500  -1.3668138500
| 68> C    3.5927441200  -2.1384329900  -0.7122385500
| 69> C    4.3251362400   0.0393118600   0.1687880100
| 70> C    4.5346247200   0.3821935000   1.4395992500
| 71> H    5.1185550500   0.2472282100  -0.5547699700
| 72> H    3.7736132000   0.1663178600   2.1907929100
| 73> C    5.7758173400   1.0631646900   1.9474469700
| 74> C    6.3918895200   0.2393500400   3.0879460700
| 75> C    5.4886176400   2.5394186500   2.3393988800
| 76> H    6.4999655400   1.0991448400   1.1197458300
| 77> H    5.0082562500   2.9911262700   1.4581313900
| 78> C    6.7808351000   3.3134010700   2.6133916700
| 79> C    4.5232890800   2.6821205300   3.5191726700
| 80> H    5.6818365200   0.1166267200   3.9133930100
| 81> H    7.2985985400   0.7066509900   3.4851224000
| 82> H    6.6575271500  -0.7602099400   2.7284600300
| 83> H    7.4915412700   3.2111825500   1.7851557200
| 84> H    7.2702174800   2.9589258600   3.5275482300
| 85> H    6.5673917700   4.3796567100   2.7479758900
| 86> H    3.5808360400   2.1523941800   3.3457292300
| 87> H    4.2852489900   3.7384735600   3.6863697500
| 88> H    4.9671522000   2.2950857200   4.4436533700
| 89> H    2.8856668000  -2.6647917600  -1.3582651700
| 90> H    3.7074425400  -2.7089124700   0.2170386500
| 91> H    4.5634123800  -2.1286977100  -1.2206224100
| 92> *
| 93> %eprnmr
| 94>  Nuclei = all C { shift }
| 95>  origin giao
| 96>  giao_2el giao_2el_same_as_scf
| 97>  giao_1el giao_1el_analytic
| 98> end
| 99> 
|100>                          ****END OF INPUT****
================================================================================

                       ****************************
                       * Single Point Calculation *
                       ****************************

---------------------------------
CARTESIAN COORDINATES (ANGSTROEM)
---------------------------------
  C     -5.199310    0.071438   -0.581405
  C     -6.624123   -0.415392   -0.699109
  C     -7.573980    0.521051    0.058921
  H     -6.718737   -1.437629   -0.315685
  H     -6.930375   -0.419658   -1.755732
  C     -5.010948    1.479002   -0.998350
  C     -5.984770    2.451247   -0.370617
  C     -7.433393    1.951594   -0.463484
  H     -5.886726    3.438441   -0.834501
  H     -5.721103    2.567586    0.691681
  H     -7.761830    1.969534   -1.511591
  H     -8.097607    2.615242    0.102153
  O     -7.336544    0.446367    1.474823
  H     -8.608243    0.182010   -0.078463
  C     -4.226534   -0.717677   -0.066568
  C     -4.087905    1.860985   -1.887547
  H     -3.408847    1.144235   -2.341697
  H     -3.997659    2.902242   -2.188141
  C     -2.859580   -0.324601    0.188407
  H     -4.519602   -1.730678    0.206321
  C     -1.859965   -1.125336    0.615992
  H     -2.632385    0.726808    0.027696
  C     -1.968367   -2.606802    0.873434
  C     -0.897933   -3.398461    0.097466
  H     -2.961336   -2.997285    0.635038
  H     -1.804985   -2.775980    1.949810
  C      0.516703   -2.843618    0.310215
  H     -1.145531   -3.382538   -0.971482
  H     -0.931516   -4.449352    0.409904
  C      0.595782   -1.344736   -0.010396
  H      1.220243   -3.419269   -0.300016
  H      0.809032   -2.989771    1.361121
  C     -0.472773   -0.621207    0.868598
  H     -0.219901   -0.911794    1.905529
  C     -0.132185    0.856817    0.716448
  H     -6.378473    0.426267    1.610552
  C      1.415394    0.864254    0.678238
  H     -0.538336    1.462407    1.533500
  H     -0.543667    1.256159   -0.217403
  C      1.880155   -0.612124    0.473731
  H      1.828669    1.279002    1.601584
  H      1.790210    1.494062   -0.137389
  H      2.122848   -1.047801    1.455758
  C      3.136332   -0.700305   -0.404499
  C      0.336779   -1.084704   -1.501798
  H      0.528767   -0.041101   -1.770726
  H     -0.701228   -1.303659   -1.771137
  H      0.984662   -1.711225   -2.124073
  H      2.899607   -0.218935   -1.366814
  C      3.592744   -2.138433   -0.712239
  C      4.325136    0.039312    0.168788
  C      4.534625    0.382193    1.439599
  H      5.118555    0.247228   -0.554770
  H      3.773613    0.166318    2.190793
  C      5.775817    1.063165    1.947447
  C      6.391890    0.239350    3.087946
  C      5.488618    2.539419    2.339399
  H      6.499966    1.099145    1.119746
  H      5.008256    2.991126    1.458131
  C      6.780835    3.313401    2.613392
  C      4.523289    2.682121    3.519173
  H      5.681837    0.116627    3.913393
  H      7.298599    0.706651    3.485122
  H      6.657527   -0.760210    2.728460
  H      7.491541    3.211183    1.785156
  H      7.270217    2.958926    3.527548
  H      6.567392    4.379657    2.747976
  H      3.580836    2.152394    3.345729
  H      4.285249    3.738474    3.686370
  H      4.967152    2.295086    4.443653
  H      2.885667   -2.664792   -1.358265
  H      3.707443   -2.708912    0.217039
  H      4.563412   -2.128698   -1.220622

----------------------------
CARTESIAN COORDINATES (A.U.)
----------------------------
  NO LB      ZA    FRAG     MASS         X           Y           Z
   0 C     6.0000    0    12.011   -9.825272    0.134998   -1.098696
   1 C     6.0000    0    12.011  -12.517778   -0.784977   -1.321125
   2 C     6.0000    0    12.011  -14.312748    0.984645    0.111344
   3 H     1.0000    0     1.008  -12.696572   -2.716725   -0.596558
   4 H     1.0000    0     1.008  -13.096511   -0.793039   -3.317852
   5 C     6.0000    0    12.011   -9.469318    2.794908   -1.886609
   6 C     6.0000    0    12.011  -11.309577    4.632185   -0.700364
   7 C     6.0000    0    12.011  -14.047077    3.687979   -0.875857
   8 H     1.0000    0     1.008  -11.124299    6.497711   -1.576979
   9 H     1.0000    0     1.008  -10.811317    4.852035    1.307088
  10 H     1.0000    0     1.008  -14.667734    3.721880   -2.856493
  11 H     1.0000    0     1.008  -15.302260    4.942092    0.193041
  12 O     8.0000    0    15.999  -13.864059    0.843511    2.787011
  13 H     1.0000    0     1.008  -16.267221    0.343948   -0.148273
  14 C     6.0000    0    12.011   -7.986991   -1.356212   -0.125794
  15 C     6.0000    0    12.011   -7.725021    3.516751   -3.566946
  16 H     1.0000    0     1.008   -6.441787    2.162291   -4.425166
  17 H     1.0000    0     1.008   -7.554480    5.484442   -4.134987
  18 C     6.0000    0    12.011   -5.403824   -0.613406    0.356037
  19 H     1.0000    0     1.008   -8.540809   -3.270508    0.389890
  20 C     6.0000    0    12.011   -3.514825   -2.126577    1.164055
  21 H     1.0000    0     1.008   -4.974487    1.373468    0.052338
  22 C     6.0000    0    12.011   -3.719674   -4.926142    1.650551
  23 C     6.0000    0    12.011   -1.696847   -6.422160    0.184184
  24 H     1.0000    0     1.008   -5.596114   -5.664048    1.200049
  25 H     1.0000    0     1.008   -3.410928   -5.245842    3.684607
  26 C     6.0000    0    12.011    0.976427   -5.373660    0.586221
  27 H     1.0000    0     1.008   -2.164740   -6.392070   -1.835836
  28 H     1.0000    0     1.008   -1.760309   -8.408056    0.774606
  29 C     6.0000    0    12.011    1.125864   -2.541182   -0.019646
  30 H     1.0000    0     1.008    2.305925   -6.461483   -0.566947
  31 H     1.0000    0     1.008    1.528848   -5.649848    2.572146
  32 C     6.0000    0    12.011   -0.893412   -1.173910    1.641412
  33 H     1.0000    0     1.008   -0.415552   -1.723041    3.600928
  34 C     6.0000    0    12.011   -0.249793    1.619150    1.353890
  35 H     1.0000    0     1.008  -12.053567    0.805528    3.043503
  36 C     6.0000    0    12.011    2.674707    1.633203    1.281684
  37 H     1.0000    0     1.008   -1.017307    2.763549    2.897895
  38 H     1.0000    0     1.008   -1.027381    2.373797   -0.410833
  39 C     6.0000    0    12.011    3.552978   -1.156747    0.895222
  40 H     1.0000    0     1.008    3.455683    2.416963    3.026556
  41 H     1.0000    0     1.008    3.383007    2.823369   -0.259628
  42 H     1.0000    0     1.008    4.011602   -1.980057    2.750984
  43 C     6.0000    0    12.011    5.926808   -1.323385   -0.764393
  44 C     6.0000    0    12.011    0.636420   -2.049793   -2.837986
  45 H     1.0000    0     1.008    0.999224   -0.077670   -3.346187
  46 H     1.0000    0     1.008   -1.325129   -2.463559   -3.346964
  47 H     1.0000    0     1.008    1.860741   -3.233747   -4.013916
  48 H     1.0000    0     1.008    5.479464   -0.413727   -2.582904
  49 C     6.0000    0    12.011    6.789302   -4.041053   -1.345936
  50 C     6.0000    0    12.011    8.173323    0.074289    0.318963
  51 C     6.0000    0    12.011    8.569199    0.722241    2.720448
  52 H     1.0000    0     1.008    9.672667    0.467194   -1.048363
  53 H     1.0000    0     1.008    7.131095    0.314295    4.139999
  54 C     6.0000    0    12.011   10.914713    2.009090    3.680141
  55 C     6.0000    0    12.011   12.078921    0.452306    5.835372
  56 C     6.0000    0    12.011   10.371984    4.798806    4.420823
  57 H     1.0000    0     1.008   12.283155    2.077083    2.116013
  58 H     1.0000    0     1.008    9.464233    5.652409    2.755469
  59 C     6.0000    0    12.011   12.813921    6.261421    4.938595
  60 C     6.0000    0    12.011    8.547778    5.068473    6.650273
  61 H     1.0000    0     1.008   10.737115    0.220393    7.395241
  62 H     1.0000    0     1.008   13.792352    1.335377    6.585927
  63 H     1.0000    0     1.008   12.580903   -1.436589    5.156042
  64 H     1.0000    0     1.008   14.156961    6.068256    3.373455
  65 H     1.0000    0     1.008   13.738720    5.591560    6.666100
  66 H     1.0000    0     1.008   12.410572    8.276352    5.192922
  67 H     1.0000    0     1.008    6.766799    4.067436    6.322512
  68 H     1.0000    0     1.008    8.097947    7.064691    6.966229
  69 H     1.0000    0     1.008    9.386557    4.337083    8.397288
  70 H     1.0000    0     1.008    5.453120   -5.035727   -2.566749
  71 H     1.0000    0     1.008    7.006051   -5.119103    0.410144
  72 H     1.0000    0     1.008    8.623600   -4.022656   -2.306642

--------------------------------
INTERNAL COORDINATES (ANGSTROEM)
--------------------------------
 C      0   0   0     0.000000000000     0.00000000     0.00000000
 C      1   0   0     1.510281305224     0.00000000     0.00000000
 C      2   1   0     1.534198308667   110.41557437     0.00000000
 H      2   1   3     1.095871874010   110.78532272   237.80565788
 H      2   1   3     1.100117785026   109.79960936   118.64624726
 C      1   2   3     1.480053910490   113.87019511   305.99279350
 C      6   1   2     1.512495031076   114.35981325    50.06287597
 C      3   2   1     1.529419518507   110.19656020    56.76754314
 H      7   6   1     1.095149685814   110.24294683   188.51694781
 H      7   6   1     1.100696177432   108.31634569    71.77309458
 H      8   3   2     1.098508760755   108.28179426    64.42908507
 H      8   3   2     1.096153914132   109.53211819   181.42157238
 O      3   2   1     1.437613090157   110.65029571   292.72938289
 H      3   2   1     1.097052040294   109.46167676   177.18220923
 C      1   2   3     1.354271928513   121.29570264   122.59013245
 C      6   1   2     1.337381043678   123.14581741   232.12065998
 H     16   6   1     1.086785273384   121.38072507   358.93475531
 H     16   6   1     1.087528282462   120.96501943   178.36852200
 C     15   1   2     1.445019877387   126.02032652   185.08883761
 H     15   1   2     1.089279311261   116.35063409     3.03647663
 C     19  15   1     1.350272480769   126.50364577   184.79517874
 H     19  15   1     1.087614322417   115.75350058     5.65035727
 C     21  19  15     1.507570500039   125.70368353     1.94047233
 C     23  21  19     1.540999372015   111.64770589   126.04764699
 H     23  21  19     1.093296672483   112.27467580     2.33078420
 H     23  21  19     1.101771724024   107.88210733   244.63948100
 C     24  23  21     1.534375145137   112.63377286    50.99616870
 H     24  23  21     1.097364497828   109.04582461   288.91169914
 H     24  23  21     1.096866976119   109.11685782   172.92515833
 C     27  24  23     1.534826864997   111.81913180   306.00896466
 H     27  24  23     1.094862565113   108.96752118   182.49655333
 H     27  24  23     1.100554389710   109.22448038    65.97553725
 C     21  19  15     1.497417314832   122.65526119   180.74033546
 H     33  21  19     1.106169932972   106.34789345   125.57336462
 C     33  21  19     1.524370373446   121.10276027     2.97912601
 H     13   3   2     0.967846595233   107.61933578    41.97817858
 C     35  33  21     1.548068353421   103.32529557   195.08185436
 H     35  33  21     1.095112881328   112.26227359    73.33520947
 H     35  33  21     1.095841640056   110.76262786   313.59168003
 C     30  27  24     1.555864425652   115.93663991   166.54343558
 H     37  35  33     1.093334391112   111.02976272   251.69507732
 H     37  35  33     1.096537447356   111.27395875   133.47480093
 H     40  30  27     1.101404226683   105.84740394   321.88483625
 C     40  30  27     1.535267024581   118.06005869    82.74748471
 C     30  27  24     1.535896005688   111.06882410   294.73683329
 H     45  30  27     1.094663357119   111.73936930   188.05354764
 H     45  30  27     1.094506386389   111.40837245    68.09980443
 H     45  30  27     1.095220508541   110.80006721   308.00712010
 H     44  40  30     1.101728081533   107.38250298    62.87567617
 C     44  40  30     1.539878993497   114.23473852   304.03253667
 C     44  40  30     1.512927138135   113.45849348   180.44223152
 C     51  44  40     1.332821987368   127.63039172    21.77902996
 H     51  44  40     1.093745293513   114.34694790   197.53316611
 H     52  51  44     1.090886217872   119.73660563   357.13246974
 C     52  51  44     1.504057907217   124.61957054   176.98511413
 C     55  52  51     1.535888572008   109.80957822   235.31981536
 C     55  52  51     1.554167211676   111.26705339   109.00257161
 H     55  52  51     1.100351927301   107.69237299   352.90963567
 H     57  55  52     1.100644914539   105.57808506   307.15023639
 C     57  55  52     1.530995362295   111.67611442   190.36635574
 C     57  55  52     1.531041884103   113.53937582    64.87242818
 H     56  55  52     1.095718452357   111.07225774   301.06127548
 H     56  55  52     1.094641704821   111.88248955   180.11694299
 H     56  55  52     1.094949184686   110.06993610    60.11843038
 H     60  57  55     1.096141722032   111.40033383    51.91244878
 H     60  57  55     1.095823893037   111.26613889   291.21422744
 H     60  57  55     1.095706191105   110.45780788   172.00533697
 H     61  57  55     1.094947654168   112.05771359   305.25184729
 H     61  57  55     1.095673159294   110.14687609   185.41122118
 H     61  57  55     1.096118140585   111.20345683    66.41594877
 H     50  44  40     1.092868832460   112.09696439    67.89211167
 H     50  44  40     1.096429969990   110.33769585   306.78593633
 H     50  44  40     1.095785469769   110.30228004   187.82932468

---------------------------
INTERNAL COORDINATES (A.U.)
---------------------------
 C      0   0   0     0.000000000000     0.00000000     0.00000000
 C      1   0   0     2.854018052054     0.00000000     0.00000000
 C      2   1   0     2.899214638505   110.41557437     0.00000000
 H      2   1   3     2.070897719746   110.78532272   237.80565788
 H      2   1   3     2.078921328756   109.79960936   118.64624726
 C      1   2   3     2.796896554266   113.87019511   305.99279350
 C      6   1   2     2.858201387650   114.35981325    50.06287597
 C      3   2   1     2.890184033853   110.19656020    56.76754314
 H      7   6   1     2.069532981838   110.24294683   188.51694781
 H      7   6   1     2.080014332001   108.31634569    71.77309458
 H      8   3   2     2.075880713540   108.28179426    64.42908507
 H      8   3   2     2.071430698335   109.53211819   181.42157238
 O      3   2   1     2.716695026937   110.65029571   292.72938289
 H      3   2   1     2.073127910814   109.46167676   177.18220923
 C      1   2   3     2.559203055746   121.29570264   122.59013245
 C      6   1   2     2.527283909250   123.14581741   232.12065998
 H     16   6   1     2.053726533075   121.38072507   358.93475531
 H     16   6   1     2.055130616747   120.96501943   178.36852200
 C     15   1   2     2.730691826334   126.02032652   185.08883761
 H     15   1   2     2.058439581629   116.35063409     3.03647663
 C     19  15   1     2.551645194823   126.50364577   184.79517874
 H     19  15   1     2.055293208699   115.75350058     5.65035727
 C     21  19  15     2.848895372652   125.70368353     1.94047233
 C     23  21  19     2.912066785652   111.64770589   126.04764699
 H     23  21  19     2.066031294120   112.27467580     2.33078420
 H     23  21  19     2.082046820503   107.88210733   244.63948100
 C     24  23  21     2.899548811005   112.63377286    50.99616870
 H     24  23  21     2.073718369984   109.04582461   288.91169914
 H     24  23  21     2.072778190207   109.11685782   172.92515833
 C     27  24  23     2.900402437829   111.81913180   306.00896466
 H     27  24  23     2.068990402347   108.96752118   182.49655333
 H     27  24  23     2.079746392038   109.22448038    65.97553725
 C     21  19  15     2.829708633225   122.65526119   180.74033546
 H     33  21  19     2.090358230894   106.34789345   125.57336462
 C     33  21  19     2.880642532477   121.10276027     2.97912601
 H     13   3   2     1.828965004639   107.61933578    41.97817858
 C     35  33  21     2.925425224555   103.32529557   195.08185436
 H     35  33  21     2.069463431439   112.26227359    73.33520947
 H     35  33  21     2.070840585852   110.76262786   313.59168003
 C     30  27  24     2.940157665992   115.93663991   166.54343558
 H     37  35  33     2.066102572000   111.02976272   251.69507732
 H     37  35  33     2.072155471091   111.27395875   133.47480093
 H     40  30  27     2.081352351174   105.84740394   321.88483625
 C     40  30  27     2.901234218898   118.06005869    82.74748471
 C     30  27  24     2.902422820935   111.06882410   294.73683329
 H     45  30  27     2.068613953794   111.73936930   188.05354764
 H     45  30  27     2.068317322104   111.40837245    68.09980443
 H     45  30  27     2.069666817396   110.80006721   308.00712010
 H     44  40  30     2.081964348148   107.38250298    62.87567617
 C     44  40  30     2.909949577088   114.23473852   304.03253667
 C     44  40  30     2.859017951652   113.45849348   180.44223152
 C     51  44  40     2.518668541395   127.63039172    21.77902996
 H     51  44  40     2.066879065004   114.34694790   197.53316611
 H     52  51  44     2.061476195047   119.73660563   357.13246974
 C     52  51  44     2.842257534199   124.61957054   176.98511413
 C     55  52  51     2.902408773315   109.80957822   235.31981536
 C     55  52  51     2.936950396387   111.26705339   109.00257161
 H     55  52  51     2.079363793531   107.69237299   352.90963567
 H     57  55  52     2.079917459171   105.57808506   307.15023639
 C     57  55  52     2.893161947042   111.67611442   190.36635574
 C     57  55  52     2.893249860518   113.53937582    64.87242818
 H     56  55  52     2.070607794839   111.07225774   301.06127548
 H     56  55  52     2.068573036880   111.88248955   180.11694299
 H     56  55  52     2.069154089617   110.06993610    60.11843038
 H     60  57  55     2.071407658605   111.40033383    51.91244878
 H     60  57  55     2.070807048847   111.26613889   291.21422744
 H     60  57  55     2.070584624431   110.45780788   172.00533697
 H     61  57  55     2.069151197358   112.05771359   305.25184729
 H     61  57  55     2.070522203354   110.14687609   185.41122118
 H     61  57  55     2.071363096129   111.20345683    66.41594877
 H     50  44  40     2.065222793648   112.09696439    67.89211167
 H     50  44  40     2.071952368304   110.33769585   306.78593633
 H     50  44  40     2.070734439393   110.30228004   187.82932468

---------------------
BASIS SET INFORMATION
---------------------
There are 3 groups of distinct atoms

 Group   1 Type C   : 7s4p1d contracted to 3s2p1d pattern {511/31/1}
 Group   2 Type H   : 4s1p contracted to 2s1p pattern {31/1}
 Group   3 Type O   : 7s4p1d contracted to 3s2p1d pattern {511/31/1}

Atom   0C    basis set group =>   1
Atom   1C    basis set group =>   1
Atom   2C    basis set group =>   1
Atom   3H    basis set group =>   2
Atom   4H    basis set group =>   2
Atom   5C    basis set group =>   1
Atom   6C    basis set group =>   1
Atom   7C    basis set group =>   1
Atom   8H    basis set group =>   2
Atom   9H    basis set group =>   2
Atom  10H    basis set group =>   2
Atom  11H    basis set group =>   2
Atom  12O    basis set group =>   3
Atom  13H    basis set group =>   2
Atom  14C    basis set group =>   1
Atom  15C    basis set group =>   1
Atom  16H    basis set group =>   2
Atom  17H    basis set group =>   2
Atom  18C    basis set group =>   1
Atom  19H    basis set group =>   2
Atom  20C    basis set group =>   1
Atom  21H    basis set group =>   2
Atom  22C    basis set group =>   1
Atom  23C    basis set group =>   1
Atom  24H    basis set group =>   2
Atom  25H    basis set group =>   2
Atom  26C    basis set group =>   1
Atom  27H    basis set group =>   2
Atom  28H    basis set group =>   2
Atom  29C    basis set group =>   1
Atom  30H    basis set group =>   2
Atom  31H    basis set group =>   2
Atom  32C    basis set group =>   1
Atom  33H    basis set group =>   2
Atom  34C    basis set group =>   1
Atom  35H    basis set group =>   2
Atom  36C    basis set group =>   1
Atom  37H    basis set group =>   2
Atom  38H    basis set group =>   2
Atom  39C    basis set group =>   1
Atom  40H    basis set group =>   2
Atom  41H    basis set group =>   2
Atom  42H    basis set group =>   2
Atom  43C    basis set group =>   1
Atom  44C    basis set group =>   1
Atom  45H    basis set group =>   2
Atom  46H    basis set group =>   2
Atom  47H    basis set group =>   2
Atom  48H    basis set group =>   2
Atom  49C    basis set group =>   1
Atom  50C    basis set group =>   1
Atom  51C    basis set group =>   1
Atom  52H    basis set group =>   2
Atom  53H    basis set group =>   2
Atom  54C    basis set group =>   1
Atom  55C    basis set group =>   1
Atom  56C    basis set group =>   1
Atom  57H    basis set group =>   2
Atom  58H    basis set group =>   2
Atom  59C    basis set group =>   1
Atom  60C    basis set group =>   1
Atom  61H    basis set group =>   2
Atom  62H    basis set group =>   2
Atom  63H    basis set group =>   2
Atom  64H    basis set group =>   2
Atom  65H    basis set group =>   2
Atom  66H    basis set group =>   2
Atom  67H    basis set group =>   2
Atom  68H    basis set group =>   2
Atom  69H    basis set group =>   2
Atom  70H    basis set group =>   2
Atom  71H    basis set group =>   2
Atom  72H    basis set group =>   2

-------------------------
BASIS SET IN INPUT FORMAT
-------------------------

 # Basis set for element : H 
 NewGTO H 
 S 3 
   1      13.0107010000      0.0334854848
   2       1.9622572000      0.2347218709
   3       0.4445379600      0.8137702853
 S 1 
   1       0.1219496200      1.0000000000
 P 1 
   1       0.8000000000      1.0000000000
  end;

 # Basis set for element : C 
 NewGTO C 
 S 5 
   1    1238.4016938000      0.0055173650
   2     186.2900499200      0.0410888285
   3      42.2511763460      0.1822538213
   4      11.6765579320      0.4682845944
   5       3.5930506482      0.4457581734
 S 1 
   1       0.4024514736      1.0000000000
 S 1 
   1       0.1309018267      1.0000000000
 P 3 
   1       9.4680970621      0.0568883320
   2       2.0103545142      0.3129405934
   3       0.5477100471      0.7606501651
 P 1 
   1       0.1526861379      1.0000000000
 D 1 
   1       0.8000000000      1.0000000000
  end;

 # Basis set for element : O 
 NewGTO O 
 S 5 
   1    2266.1767785000     -0.0053893504
   2     340.8701019100     -0.0402347214
   3      77.3631351670     -0.1800818421
   4      21.4796449400     -0.4682885766
   5       6.6589433124     -0.4469261716
 S 1 
   1       0.8097597567      1.0000000000
 S 1 
   1       0.2553077223      1.0000000000
 P 3 
   1      17.7215043170      0.0626302488
   2       3.8635505440      0.3333113849
   3       1.0480920883      0.7414863830
 P 1 
   1       0.2764154441      1.0000000000
 D 1 
   1       1.2000000000      1.0000000000
  end;

---------------------------------
AUXILIARY/J BASIS SET INFORMATION
---------------------------------
There are 3 groups of distinct atoms

 Group   1 Type C   : 12s5p4d2f1g contracted to 6s4p3d1f1g pattern {711111/2111/211/2/1}
 Group   2 Type H   : 5s2p1d contracted to 3s1p1d pattern {311/2/1}
 Group   3 Type O   : 12s5p4d2f1g contracted to 6s4p3d1f1g pattern {711111/2111/211/2/1}

Atom   0C    basis set group =>   1
Atom   1C    basis set group =>   1
Atom   2C    basis set group =>   1
Atom   3H    basis set group =>   2
Atom   4H    basis set group =>   2
Atom   5C    basis set group =>   1
Atom   6C    basis set group =>   1
Atom   7C    basis set group =>   1
Atom   8H    basis set group =>   2
Atom   9H    basis set group =>   2
Atom  10H    basis set group =>   2
Atom  11H    basis set group =>   2
Atom  12O    basis set group =>   3
Atom  13H    basis set group =>   2
Atom  14C    basis set group =>   1
Atom  15C    basis set group =>   1
Atom  16H    basis set group =>   2
Atom  17H    basis set group =>   2
Atom  18C    basis set group =>   1
Atom  19H    basis set group =>   2
Atom  20C    basis set group =>   1
Atom  21H    basis set group =>   2
Atom  22C    basis set group =>   1
Atom  23C    basis set group =>   1
Atom  24H    basis set group =>   2
Atom  25H    basis set group =>   2
Atom  26C    basis set group =>   1
Atom  27H    basis set group =>   2
Atom  28H    basis set group =>   2
Atom  29C    basis set group =>   1
Atom  30H    basis set group =>   2
Atom  31H    basis set group =>   2
Atom  32C    basis set group =>   1
Atom  33H    basis set group =>   2
Atom  34C    basis set group =>   1
Atom  35H    basis set group =>   2
Atom  36C    basis set group =>   1
Atom  37H    basis set group =>   2
Atom  38H    basis set group =>   2
Atom  39C    basis set group =>   1
Atom  40H    basis set group =>   2
Atom  41H    basis set group =>   2
Atom  42H    basis set group =>   2
Atom  43C    basis set group =>   1
Atom  44C    basis set group =>   1
Atom  45H    basis set group =>   2
Atom  46H    basis set group =>   2
Atom  47H    basis set group =>   2
Atom  48H    basis set group =>   2
Atom  49C    basis set group =>   1
Atom  50C    basis set group =>   1
Atom  51C    basis set group =>   1
Atom  52H    basis set group =>   2
Atom  53H    basis set group =>   2
Atom  54C    basis set group =>   1
Atom  55C    basis set group =>   1
Atom  56C    basis set group =>   1
Atom  57H    basis set group =>   2
Atom  58H    basis set group =>   2
Atom  59C    basis set group =>   1
Atom  60C    basis set group =>   1
Atom  61H    basis set group =>   2
Atom  62H    basis set group =>   2
Atom  63H    basis set group =>   2
Atom  64H    basis set group =>   2
Atom  65H    basis set group =>   2
Atom  66H    basis set group =>   2
Atom  67H    basis set group =>   2
Atom  68H    basis set group =>   2
Atom  69H    basis set group =>   2
Atom  70H    basis set group =>   2
Atom  71H    basis set group =>   2
Atom  72H    basis set group =>   2

-------------------------------------
AUXILIARY/J BASIS SET IN INPUT FORMAT
-------------------------------------

 # Auxiliary/J basis set for element : H 
 NewAuxJGTO H 
 S 3 
   1      15.6752927000      0.1007184237
   2       3.6063578000      0.3404257499
   3       1.2080016000      0.6491996172
 S 1 
   1       0.4726794000      1.0000000000
 S 1 
   1       0.2018100000      1.0000000000
 P 2 
   1       2.0281365000      0.5596620919
   2       0.5358730000      0.5596620919
 D 1 
   1       2.2165124000      1.0000000000
  end;

 # Auxiliary/J basis set for element : C 
 NewAuxJGTO C 
 S 7 
   1    1861.0916331000      0.0134602335
   2     642.9939764000      0.0299160374
   3     235.1105725000      0.1008649584
   4      90.7028894000      0.2370970548
   5      36.7794552000      0.3924037254
   6      15.6046273000      0.3195862154
   7       6.8907294000      0.0530104441
 S 1 
   1       3.1478850000     -1.0000000000
 S 1 
   1       1.4777287000      1.0000000000
 S 1 
   1       0.7076466000      1.0000000000
 S 1 
   1       0.3430122000      1.0000000000
 S 1 
   1       0.1669453000      1.0000000000
 P 2 
   1      13.5472892000     -0.6769313712
   2       5.4669419000     -0.3779500978
 P 1 
   1       2.1751721000      1.0000000000
 P 1 
   1       0.8582194000      1.0000000000
 P 1 
   1       0.3376720000      1.0000000000
 D 2 
   1       5.9287253000     -0.3533329857
   2       1.9809209000     -0.7456525731
 D 1 
   1       0.8055417000     -1.0000000000
 D 1 
   1       0.3531244000     -1.0000000000
 F 2 
   1       1.6755626000      0.6311076882
   2       0.5997536000      0.4968166032
 G 1 
   1       1.0024600000     -1.0000000000
  end;

 # Auxiliary/J basis set for element : O 
 NewAuxJGTO O 
 S 7 
   1    2876.8216605000      0.0168151159
   2    1004.7443032000      0.0340137548
   3     369.7579954000      0.1194951309
   4     142.9442404000      0.2664627624
   5      57.8366425000      0.4202764046
   6      24.3864983000      0.2765077335
   7      10.6622662000      0.0057008815
 S 1 
   1       4.8070437000     -1.0000000000
 S 1 
   1       2.2210770000      1.0000000000
 S 1 
   1       1.0447795000      1.0000000000
 S 1 
   1       0.4968425000      1.0000000000
 S 1 
   1       0.2371384000      1.0000000000
 P 2 
   1      64.2613382000     -0.2731534179
   2      16.3006076000     -0.8168011598
 P 1 
   1       4.3550542000      1.0000000000
 P 1 
   1       1.2019554000      1.0000000000
 P 1 
   1       0.3354196000      1.0000000000
 D 2 
   1       9.2146611000     -0.4661230638
   2       2.8435251000     -0.6600908911
 D 1 
   1       0.9955759000     -1.0000000000
 D 1 
   1       0.3649441000     -1.0000000000
 F 2 
   1       2.6420115000      0.5931563945
   2       0.7345613000      0.5931563945
 G 1 
   1       1.3931000000     -1.0000000000
  end;


Checking for AutoStart:
The File: inpS.gbw exists
Trying to determine its content:
     ... Fine, the file contains calculation information
     ... Fine, the calculation information was read
     ... Fine, the file contains a basis set
     ... Fine, the basis set was read
     ... Fine, the file contains a geometry
     ... Fine, the geometry was read
     ... Fine, the file contains a set of orbitals
     ... Fine, the orbitals can be read
     => possible old guess file was deleted
     => GBW file was renamed to GES file
     => GES file is set as startup file
     => Guess is set to MORead
     ... now leaving AutoStart



           ************************************************************
           *        Program running with 4 parallel MPI-processes     *
           *              working on a common directory               *
           ************************************************************
------------------------------------------------------------------------------
                             ORCA STARTUP CALCULATIONS
                           -- RI-GTO INTEGRALS CHOSEN --
------------------------------------------------------------------------------
------------------------------------------------------------------------------
                   ___                                                        
                  /   \      - P O W E R E D   B Y -                         
                 /     \                                                     
                 |  |  |   _    _      __       _____    __    __             
                 |  |  |  | |  | |    /  \     |  _  \  |  |  /  |          
                  \  \/   | |  | |   /    \    | | | |  |  | /  /          
                 / \  \   | |__| |  /  /\  \   | |_| |  |  |/  /          
                |  |  |   |  __  | /  /__\  \  |    /   |      \           
                |  |  |   | |  | | |   __   |  |    \   |  |\   \          
                \     /   | |  | | |  |  |  |  | |\  \  |  | \   \       
                 \___/    |_|  |_| |__|  |__|  |_| \__\ |__|  \__/        
                                                                              
                      - O R C A' S   B I G   F R I E N D -                    
                                      &                                       
                       - I N T E G R A L  F E E D E R -                       
                                                                              
 v1 FN, 2020, v2 2021, v3 2022-2024                                           
------------------------------------------------------------------------------


----------------------
SHARK INTEGRAL PACKAGE
----------------------

Number of atoms                             ...     73
Number of basis functions                   ...    626
Number of shells                            ...    306
Maximum angular momentum                    ...      2
Integral batch strategy                     ... SHARK/LIBINT Hybrid
RI-J (if used) integral strategy            ... SPLIT-RIJ (Revised 2003 algorithm where possible)
Printlevel                                  ...      1
Contraction scheme used                     ... SEGMENTED contraction
Prescreening option                         ... SCHWARTZ
   Thresh                                   ... 3.000e-11
   Tcut                                     ... 1.000e-12
   Tpresel                                  ... 1.000e-12 
Coulomb Range Separation                    ... NOT USED
Exchange Range Separation                   ... Long Range
   Mu parameter                             ... 3.000e-01
   Scaling (regular/separated)              ... 1.670e-01 8.330e-01
Multipole approximations                    ... NOT USED
Finite Nucleus Model                        ... NOT USED
CABS basis                                  ... NOT available
Auxiliary Coulomb fitting basis             ... AVAILABLE
   # of basis functions in Aux-J            ...   1905
   # of shells in Aux-J                     ...    655
   Maximum angular momentum in Aux-J        ...      4
Auxiliary J/K fitting basis                 ... NOT available
Auxiliary Correlation fitting basis         ... NOT available
Auxiliary 'external' fitting basis          ... NOT available

Checking pre-screening integrals            ... done (  0.0 sec) Dimension = 306
Check shell pair data                       ... done (  0.0 sec)
Shell pair information
Shell pair cut-off parameter TPreSel        ...   1.0e-12
Total number of shell pairs                 ...     46971
Shell pairs after pre-screening             ...     27797
Total number of primitive shell pairs       ...    162105
Primitive shell pairs kept                  ...     61255
          la=0 lb=0:   9748 shell pairs
          la=1 lb=0:  10641 shell pairs
          la=1 lb=1:   2951 shell pairs
          la=2 lb=0:   2782 shell pairs
          la=2 lb=1:   1477 shell pairs
          la=2 lb=2:    198 shell pairs

Calculating one electron integrals          ... done (  0.1 sec)
Calculating RI/J V-Matrix + Cholesky decomp.... done (  0.2 sec)
Calculating Nuclear repulsion               ... done (  0.0 sec) ENN=   2799.653010439375 Eh

Diagonalization of the overlap matrix:
Smallest eigenvalue                        ... 4.498e-04
Time for diagonalization                   ...    0.044 sec
Threshold for overlap eigenvalues          ... 1.000e-07
Number of eigenvalues below threshold      ... 0
Time for construction of square roots      ...    0.024 sec
Total time needed                          ...    0.071 sec

-------------------
DFT GRID GENERATION
-------------------

General Integration Accuracy     IntAcc      ... 4.388
Radial Grid Type                 RadialGrid  ... OptM3 with GC (2021)
Angular Grid (max. ang.)         AngularGrid ... 4 (Lebedev-302)
Angular grid pruning method      GridPruning ... 4 (adaptive)
Weight generation scheme         WeightScheme... mBecke (2022)
Basis function cutoff            BFCut       ... 1.0000e-11
Integration weight cutoff        WCut        ... 1.0000e-14
Partially contracted basis set               ... off
Rotationally invariant grid construction     ... off
Angular grids for H and He will be reduced by one unit

Total number of grid points                  ...   309813
Total number of batches                      ...     4883
Average number of points per batch           ...       63
Average number of grid points per atom       ...     4244

--------------------
COSX GRID GENERATION
--------------------

GRIDX 1
-------
General Integration Accuracy     IntAcc      ... 3.816
Radial Grid Type                 RadialGrid  ... OptM3 with GC (2021)
Angular Grid (max. ang.)         AngularGrid ... 1 (Lebedev-50)
Angular grid pruning method      GridPruning ... 4 (adaptive)
Weight generation scheme         WeightScheme... mBecke (2022)
Basis function cutoff            BFCut       ... 1.0000e-11
Integration weight cutoff        WCut        ... 1.0000e-14
Partially contracted basis set               ... on
Rotationally invariant grid construction     ... off
Angular grids for H and He will be reduced by one unit

Total number of grid points                  ...    39380
Total number of batches                      ...      348
Average number of points per batch           ...      113
Average number of grid points per atom       ...      539
UseSFitting                                  ... on

GRIDX 2
-------
General Integration Accuracy     IntAcc      ... 4.020
Radial Grid Type                 RadialGrid  ... OptM3 with GC (2021)
Angular Grid (max. ang.)         AngularGrid ... 2 (Lebedev-110)
Angular grid pruning method      GridPruning ... 4 (adaptive)
Weight generation scheme         WeightScheme... mBecke (2022)
Basis function cutoff            BFCut       ... 1.0000e-11
Integration weight cutoff        WCut        ... 1.0000e-14
Partially contracted basis set               ... on
Rotationally invariant grid construction     ... off
Angular grids for H and He will be reduced by one unit

Total number of grid points                  ...    81353
Total number of batches                      ...      672
Average number of points per batch           ...      121
Average number of grid points per atom       ...     1114
UseSFitting                                  ... on

GRIDX 3
-------
General Integration Accuracy     IntAcc      ... 4.338
Radial Grid Type                 RadialGrid  ... OptM3 with GC (2021)
Angular Grid (max. ang.)         AngularGrid ... 3 (Lebedev-194)
Angular grid pruning method      GridPruning ... 4 (adaptive)
Weight generation scheme         WeightScheme... mBecke (2022)
Basis function cutoff            BFCut       ... 1.0000e-11
Integration weight cutoff        WCut        ... 1.0000e-14
Partially contracted basis set               ... on
Rotationally invariant grid construction     ... off
Angular grids for H and He will be reduced by one unit

Total number of grid points                  ...   176132
Total number of batches                      ...     1419
Average number of points per batch           ...      124
Average number of grid points per atom       ...     2413
UseSFitting                                  ... on
Initializing property integral containers    ... done (  0.0 sec)

SHARK setup successfully completed in   4.6 seconds

Maximum memory used throughout the entire STARTUP-calculation: 96.1 MB


           ************************************************************
           *        Program running with 4 parallel MPI-processes     *
           *              working on a common directory               *
           ************************************************************
-------------------------------------------------------------------------------
                                 ORCA GUESS
                   Start orbitals & Density for SCF / CASSCF
-------------------------------------------------------------------------------

------------
SCF SETTINGS
------------
Hamiltonian:
 Density Functional     Method          .... DFT(GTOs)
 Exchange Functional    Exchange        .... WB97X-V
 Correlation Functional Correlation     .... WB97X-V
 Gradients option       PostSCFGGA      .... off
 Hybrid DFT is turned on
   Fraction HF Exchange ScalHFX         ....  0.167000
   Scaling of DF-GGA-X  ScalDFX         ....  0.000000
   Scaling of DF-GGA-C  ScalDFC         ....  1.000000
   Scaling of DF-LDA-C  ScalLDAC        ....  1.000000
   Perturbative correction              ....  0.000000
 Long-range corrected/Screened/Range-Separated Hybrid DFT is turned on
   Amount of maximum screened exact exchange              ....  0.833000
   Range separation parameter mu (erf(mu*r12)/r12)        ....  0.300000
 RI-approximation to the Coulomb term is turned on
   Number of AuxJ basis functions       .... 1905
   RIJ-COSX (HFX calculated with COS-X)).... on


General Settings:
 Integral files         IntName         .... inpS
 Hartree-Fock type      HFTyp           .... RHF
 Total Charge           Charge          ....    0
 Multiplicity           Mult            ....    1
 Number of Electrons    NEL             ....  220
 Basis Dimension        Dim             ....  626
 Nuclear Repulsion      ENuc            ....   2799.6530104394 Eh

Convergence Acceleration:
 AO-DIIS                CNVDIIS         .... on
   Start iteration      DIISMaxIt       ....    12
   Startup error        DIISStart       ....  0.200000
   # of expansion vecs  DIISMaxEq       ....     5
   Bias factor          DIISBfac        ....   1.050
   Max. coefficient     DIISMaxC        ....  10.000
 MO-DIIS                CNVKDIIS        .... off
 Trust-Rad. Augm. Hess. CNVTRAH         .... auto
   Auto Start mean grad. ratio tolernc. ....  1.125000
   Auto Start start iteration           ....     1
   Auto Start num. interpolation iter.  ....    10
   Max. Number of Micro iterations      ....    24
   Max. Number of Macro iterations      .... Maxiter - #DIIS iter
   Number of Davidson start vectors     ....     2
   Converg. threshold    (grad. norm)   ....   1.000e-04
   Grad. Scal. Fac. for Micro threshold ....   0.100
   Minimum threshold for Micro iter.    ....   1.000e-02
   NR start threshold (gradient norm)   ....   1.000e-04
   Initial trust radius                 ....   0.400
   Minimum AH scaling param. (alpha)    ....   1.000
   Maximum AH scaling param. (alpha)    .... 1000.000
   Quad. conv. algorithm                .... NR
   White noise on init. David. guess    .... on
   Maximum white noise                  ....   0.010
   Pseudo random numbers                .... off
   Inactive MOs                         .... canonical
   Orbital update algorithm             .... Taylor
   Preconditioner                       .... Diag
   Full preconditioner red. dimension   ....   250
 SOSCF                  CNVSOSCF        .... off
 Level Shifting         CNVShift        .... on
   Level shift para.    LevelShift      ....    0.2500
   Turn off err/grad.   ShiftErr        ....    0.0010
 Zerner damping         CNVZerner       .... off
 Static damping         CNVDamp         .... on
   Fraction old density DampFac         ....    0.7000
   Max. Damping (<1)    DampMax         ....    0.9800
   Min. Damping (>=0)   DampMin         ....    0.0000
   Turn off err/grad.   DampErr         ....    0.1000

SCF Procedure:
 Maximum # iterations   MaxIter         ....   125
 SCF integral mode      SCFMode         .... Direct
   Integral package                     .... SHARK and LIBINT hybrid scheme
 Reset frequency        DirectResetFreq ....    20
 Integral Threshold     Thresh          ....  3.000e-11 Eh
 Primitive CutOff       TCut            ....  1.000e-12 Eh

Convergence Tolerance:
 Convergence Check Mode ConvCheckMode   .... Total+1el-Energy
 Convergence forced     ConvForced      .... 0
 Energy Change          TolE            ....  1.000e-07 Eh
 1-El. energy change                    ....  1.000e-04 Eh
 DIIS Error             TolErr          ....  1.000e-07

---------------------
INITIAL GUESS: MOREAD
---------------------
Guess MOs are being read from file: inpS.ges
Input Geometry matches current geometry (good)
Input basis set matches current basis set (good)
Occupation numbers will be reassigned to an Aufbau configuration
MOs were renormalized
MOs were reorthogonalized (Cholesky)
                      ------------------
                      INITIAL GUESS DONE (   0.2 sec)
                      ------------------
             **** ENERGY FILE WAS UPDATED (inpS.en.tmp) ****
Finished Guess after   0.3 sec
Maximum memory used throughout the entire GUESS-calculation: 52.7 MB


           ************************************************************
           *        Program running with 4 parallel MPI-processes     *
           *              working on a common directory               *
           ************************************************************

-------------------------------------------------------------------------------------------
                                      ORCA LEAN-SCF
                              memory conserving SCF solver
-------------------------------------------------------------------------------------------

--------------------
CPCM SOLVATION MODEL
--------------------
CPCM parameters:
  Epsilon                                         ...       4.8030
  Refrac                                          ...       1.4459
  Rsolv                                           ...       1.3000
  Surface type                                    ... GAUSSIAN VDW
  Discretization scheme                           ... Constant charge density
    Threshold for H atoms                         ...       5.0000 (charges/Ang^2)
    Threshold for non-H atoms                     ...       5.0000 (charges/Ang^2)
  Epsilon function type                           ...         CPCM
Solvent:                                          ... CHLOROFORM
Radii:
  Scheme                                          ... Element-dependent radii
  Radius for C  used is    3.8550 Bohr (=   2.0400 Ang.)
  Radius for H  used is    2.4944 Bohr (=   1.3200 Ang.)
  Radius for O  used is    3.4469 Bohr (=   1.8240 Ang.)
Calculating surface                               ...        done! (  0.0s)
Cavity surface points                             ...         5362
Cavity Volume                                     ...    3602.5199
Cavity Surface-area                               ...    1786.9323
Calculating surface distance matrix               ...        done! (  0.2s)
Performing Cholesky decomposition & store         ...        done! (  0.9s)
Overall time for CPCM initialization              ...                 1.1s

----------------------------------------D-I-I-S--------------------------------------------
Iteration    Energy (Eh)           Delta-E    RMSDP     MaxDP     DIISErr   Damp  Time(sec)
-------------------------------------------------------------------------------------------
               ***  Starting incremental Fock matrix formation  ***
    1    -1168.3606767420346841     0.00e+00  3.03e-08  1.92e-06  4.44e-06  0.700  23.5

  HOMO= 109 E= -7.965 eV LUMO=  8.075 eV gap=  16.040 eV
    2    -1168.3606767295000282     1.25e-08  2.64e-08  1.22e-06  2.25e-06  0.700   4.9
                 **** Energy Check signals convergence ****

  HOMO= 109 E= -7.965 eV LUMO=  8.075 eV gap=  16.040 eV

               *****************************************************
               *                     SUCCESS                       *
               *           SCF CONVERGED AFTER   2 CYCLES          *
               *****************************************************

Recomputing exchange energy using gridx3       ... done (   40.750 sec)
Old exchange energy                            :    -56.782769782 Eh
New exchange energy                            :    -56.782732654 Eh
Exchange energy change after final integration :      0.000037129 Eh
Total energy after final integration           :  -1168.360639601 Eh
             **** ENERGY FILE WAS UPDATED (inpS.en.tmp) ****

----------------
TOTAL SCF ENERGY
----------------

Total Energy       :      -1168.36063960077126 Eh          -31792.70931 eV

Components:
Nuclear Repulsion  :       2799.65301043937461 Eh           76182.43145 eV
Electronic Energy  :      -3968.00426700572461 Eh         -107974.88544 eV
One Electron Energy:      -7144.32560545230535 Eh         -194406.98318 eV
Two Electron Energy:       3176.32133844658074 Eh           86432.09774 eV
CPCM Dielectric    :         -0.00942016315022 Eh              -0.25634 eV

Virial components:
Potential Energy   :      -2321.65329834826071 Eh          -63175.39802 eV
Kinetic Energy     :       1153.29265874748944 Eh           31382.68871 eV
Virial Ratio       :          2.01306518405280

DFT components:
N(Alpha)           :      110.000170672609 electrons
N(Beta)            :      110.000170672609 electrons
N(Total)           :      220.000341345218 electrons
E(X)               :     -111.768362715844 Eh       
E(C)               :       -8.951993302215 Eh       
E(XC)              :     -120.720356018059 Eh       

CPCM Solvation Model Properties:
Surface-charge          :         -0.04177123878744
Corrected charge        :          0.00000000000000
Outlying charge corr.   :          0.00006140959336 Eh               0.00167 eV
Free-energy (cav+disp)  :  This term is not implemented in the current solvation scheme

---------------
SCF CONVERGENCE
---------------

  Last Energy change         ...   -1.2535e-08  Tolerance :   1.0000e-07
  Last MAX-Density change    ...    1.2152e-06  Tolerance :   1.0000e-05
  Last RMS-Density change    ...    2.6385e-08  Tolerance :   1.0000e-06
  Last DIIS Error            ...    2.2518e-06  Tolerance :   1.0000e-07


----------------
ORBITAL ENERGIES
----------------

  NO   OCC          E(Eh)            E(eV) 
   0   2.0000     -19.212354      -522.7947 
   1   2.0000     -10.330349      -281.1031 
   2   2.0000     -10.294233      -280.1203 
   3   2.0000     -10.292125      -280.0630 
   4   2.0000     -10.287512      -279.9374 
   5   2.0000     -10.286722      -279.9159 
   6   2.0000     -10.285456      -279.8815 
   7   2.0000     -10.284077      -279.8440 
   8   2.0000     -10.283455      -279.8270 
   9   2.0000     -10.283061      -279.8163 
  10   2.0000     -10.281100      -279.7630 
  11   2.0000     -10.280849      -279.7561 
  12   2.0000     -10.279306      -279.7141 
  13   2.0000     -10.278055      -279.6801 
  14   2.0000     -10.277452      -279.6637 
  15   2.0000     -10.277252      -279.6582 
  16   2.0000     -10.277031      -279.6522 
  17   2.0000     -10.276963      -279.6504 
  18   2.0000     -10.274950      -279.5956 
  19   2.0000     -10.272997      -279.5425 
  20   2.0000     -10.271938      -279.5136 
  21   2.0000     -10.271791      -279.5096 
  22   2.0000     -10.270948      -279.4867 
  23   2.0000     -10.270520      -279.4750 
  24   2.0000     -10.270086      -279.4632 
  25   2.0000     -10.269874      -279.4575 
  26   2.0000     -10.268315      -279.4150 
  27   2.0000     -10.268240      -279.4130 
  28   2.0000     -10.267127      -279.3827 
  29   2.0000      -1.130786       -30.7703 
  30   2.0000      -0.998758       -27.1776 
  31   2.0000      -0.977358       -26.5953 
  32   2.0000      -0.957047       -26.0426 
  33   2.0000      -0.942553       -25.6482 
  34   2.0000      -0.917830       -24.9754 
  35   2.0000      -0.911078       -24.7917 
  36   2.0000      -0.890127       -24.2216 
  37   2.0000      -0.888058       -24.1653 
  38   2.0000      -0.873136       -23.7592 
  39   2.0000      -0.853468       -23.2240 
  40   2.0000      -0.833804       -22.6890 
  41   2.0000      -0.829095       -22.5608 
  42   2.0000      -0.809494       -22.0274 
  43   2.0000      -0.801277       -21.8039 
  44   2.0000      -0.797477       -21.7005 
  45   2.0000      -0.791672       -21.5425 
  46   2.0000      -0.760616       -20.6974 
  47   2.0000      -0.757329       -20.6080 
  48   2.0000      -0.725243       -19.7349 
  49   2.0000      -0.713068       -19.4036 
  50   2.0000      -0.704856       -19.1801 
  51   2.0000      -0.699887       -19.0449 
  52   2.0000      -0.688983       -18.7482 
  53   2.0000      -0.670907       -18.2563 
  54   2.0000      -0.653598       -17.7853 
  55   2.0000      -0.633100       -17.2275 
  56   2.0000      -0.630627       -17.1602 
  57   2.0000      -0.619830       -16.8664 
  58   2.0000      -0.607475       -16.5302 
  59   2.0000      -0.601781       -16.3753 
  60   2.0000      -0.592391       -16.1198 
  61   2.0000      -0.585293       -15.9266 
  62   2.0000      -0.573849       -15.6152 
  63   2.0000      -0.570014       -15.5109 
  64   2.0000      -0.565941       -15.4000 
  65   2.0000      -0.559052       -15.2126 
  66   2.0000      -0.555185       -15.1073 
  67   2.0000      -0.549862       -14.9625 
  68   2.0000      -0.547701       -14.9037 
  69   2.0000      -0.541268       -14.7286 
  70   2.0000      -0.538446       -14.6519 
  71   2.0000      -0.533000       -14.5037 
  72   2.0000      -0.525998       -14.3131 
  73   2.0000      -0.519797       -14.1444 
  74   2.0000      -0.516038       -14.0421 
  75   2.0000      -0.508528       -13.8378 
  76   2.0000      -0.506027       -13.7697 
  77   2.0000      -0.502256       -13.6671 
  78   2.0000      -0.498650       -13.5690 
  79   2.0000      -0.493006       -13.4154 
  80   2.0000      -0.489556       -13.3215 
  81   2.0000      -0.488261       -13.2862 
  82   2.0000      -0.483619       -13.1599 
  83   2.0000      -0.479914       -13.0591 
  84   2.0000      -0.473628       -12.8881 
  85   2.0000      -0.467978       -12.7343 
  86   2.0000      -0.465855       -12.6766 
  87   2.0000      -0.462288       -12.5795 
  88   2.0000      -0.459424       -12.5016 
  89   2.0000      -0.451490       -12.2857 
  90   2.0000      -0.449085       -12.2202 
  91   2.0000      -0.446773       -12.1573 
  92   2.0000      -0.442690       -12.0462 
  93   2.0000      -0.434746       -11.8300 
  94   2.0000      -0.428562       -11.6618 
  95   2.0000      -0.423009       -11.5107 
  96   2.0000      -0.419696       -11.4205 
  97   2.0000      -0.417460       -11.3597 
  98   2.0000      -0.416692       -11.3388 
  99   2.0000      -0.414060       -11.2671 
 100   2.0000      -0.411534       -11.1984 
 101   2.0000      -0.406670       -11.0661 
 102   2.0000      -0.406148       -11.0518 
 103   2.0000      -0.400814       -10.9067 
 104   2.0000      -0.392167       -10.6714 
 105   2.0000      -0.380885       -10.3644 
 106   2.0000      -0.372696       -10.1416 
 107   2.0000      -0.355350        -9.6696 
 108   2.0000      -0.337427        -9.1819 
 109   2.0000      -0.292717        -7.9652 
 110   0.0000       0.046737         1.2718 
 111   0.0000       0.099421         2.7054 
 112   0.0000       0.107187         2.9167 
 113   0.0000       0.132522         3.6061 
 114   0.0000       0.141236         3.8432 
 115   0.0000       0.143610         3.9078 
 116   0.0000       0.149536         4.0691 
 117   0.0000       0.155427         4.2294 
 118   0.0000       0.162103         4.4111 
 119   0.0000       0.165731         4.5098 
 120   0.0000       0.169356         4.6084 
*Only the first 10 virtual orbitals were printed.

                    ********************************
                    * MULLIKEN POPULATION ANALYSIS *
                    ********************************

-----------------------
MULLIKEN ATOMIC CHARGES
-----------------------
   0 C :   -0.173841
   1 C :    0.142212
   2 C :    0.067971
   3 H :    0.017368
   4 H :    0.030669
   5 C :   -0.171686
   6 C :    0.097082
   7 C :    0.024337
   8 H :    0.013357
   9 H :    0.027131
  10 H :    0.019618
  11 H :    0.022613
  12 O :   -0.359381
  13 H :    0.018086
  14 C :   -0.008302
  15 C :   -0.045962
  16 H :    0.035264
  17 H :    0.029380
  18 C :   -0.063259
  19 H :   -0.002522
  20 C :   -0.114030
  21 H :    0.003691
  22 C :    0.115388
  23 C :   -0.002098
  24 H :    0.014149
  25 H :    0.017330
  26 C :    0.107143
  27 H :    0.013013
  28 H :    0.015437
  29 C :   -0.420000
  30 H :    0.008909
  31 H :   -0.002073
  32 C :   -0.038509
  33 H :    0.010130
  34 C :    0.111545
  35 H :    0.179163
  36 C :    0.065999
  37 H :    0.006604
  38 H :    0.015208
  39 C :   -0.038071
  40 H :    0.014055
  41 H :    0.000878
  42 H :   -0.001036
  43 C :   -0.011854
  44 C :    0.093040
  45 H :    0.020610
  46 H :    0.024733
  47 H :    0.016784
  48 H :    0.008772
  49 C :    0.051779
  50 C :   -0.082577
  51 C :   -0.052925
  52 H :    0.005923
  53 H :    0.020518
  54 C :   -0.062817
  55 C :    0.017873
  56 C :   -0.140098
  57 H :    0.002409
  58 H :    0.006579
  59 C :    0.034254
  60 C :    0.007417
  61 H :    0.021742
  62 H :    0.021499
  63 H :    0.020730
  64 H :    0.016993
  65 H :    0.017200
  66 H :    0.019344
  67 H :    0.023141
  68 H :    0.019709
  69 H :    0.018438
  70 H :    0.030560
  71 H :    0.013539
  72 H :    0.013727
Sum of atomic charges:   -0.0000000

--------------------------------
MULLIKEN REDUCED ORBITAL CHARGES
--------------------------------
  0 C s       :     3.102283  s :     3.102283
      pz      :     1.014976  p :     3.028516
      px      :     1.001837
      py      :     1.011703
      dz2     :     0.005662  d :     0.043042
      dxz     :     0.006762
      dyz     :     0.005715
      dx2y2   :     0.013429
      dxy     :     0.011474

  1 C s       :     2.939673  s :     2.939673
      pz      :     0.989970  p :     2.883719
      px      :     0.930121
      py      :     0.963629
      dz2     :     0.007851  d :     0.034396
      dxz     :     0.006333
      dyz     :     0.004146
      dx2y2   :     0.009500
      dxy     :     0.006566

  2 C s       :     3.085429  s :     3.085429
      pz      :     0.735189  p :     2.775978
      px      :     1.043943
      py      :     0.996846
      dz2     :     0.023187  d :     0.070622
      dxz     :     0.011345
      dyz     :     0.017648
      dx2y2   :     0.010534
      dxy     :     0.007908

  3 H s       :     0.959977  s :     0.959977
      pz      :     0.005601  p :     0.022656
      px      :     0.003584
      py      :     0.013471

  4 H s       :     0.946016  s :     0.946016
      pz      :     0.014374  p :     0.023316
      px      :     0.004632
      py      :     0.004310

  5 C s       :     3.109260  s :     3.109260
      pz      :     0.973523  p :     3.017612
      px      :     0.989982
      py      :     1.054107
      dz2     :     0.009708  d :     0.044814
      dxz     :     0.005548
      dyz     :     0.009016
      dx2y2   :     0.010756
      dxy     :     0.009786

  6 C s       :     2.954375  s :     2.954375
      pz      :     1.002091  p :     2.913088
      px      :     0.943295
      py      :     0.967702
      dz2     :     0.008455  d :     0.035455
      dxz     :     0.005899
      dyz     :     0.004919
      dx2y2   :     0.008506
      dxy     :     0.007675

  7 C s       :     3.002255  s :     3.002255
      pz      :     0.983899  p :     2.938609
      px      :     0.983074
      py      :     0.971636
      dz2     :     0.007563  d :     0.034800
      dxz     :     0.006011
      dyz     :     0.004813
      dx2y2   :     0.008076
      dxy     :     0.008336

  8 H s       :     0.963807  s :     0.963807
      pz      :     0.006352  p :     0.022836
      px      :     0.003658
      py      :     0.012826

  9 H s       :     0.949472  s :     0.949472
      pz      :     0.014344  p :     0.023397
      px      :     0.004531
      py      :     0.004522

 10 H s       :     0.957552  s :     0.957552
      pz      :     0.014136  p :     0.022830
      px      :     0.004712
      py      :     0.003982

 11 H s       :     0.954755  s :     0.954755
      pz      :     0.007385  p :     0.022631
      px      :     0.007696
      py      :     0.007550

 12 O s       :     3.713449  s :     3.713449
      pz      :     1.396619  p :     4.633805
      px      :     1.339900
      py      :     1.897286
      dz2     :     0.005476  d :     0.012127
      dxz     :     0.001387
      dyz     :     0.001546
      dx2y2   :     0.003174
      dxy     :     0.000544

 13 H s       :     0.961560  s :     0.961560
      pz      :     0.001782  p :     0.020354
      px      :     0.013829
      py      :     0.004743

 14 C s       :     3.194968  s :     3.194968
      pz      :     0.992690  p :     2.776985
      px      :     0.876812
      py      :     0.907482
      dz2     :     0.004349  d :     0.036349
      dxz     :     0.007822
      dyz     :     0.003195
      dx2y2   :     0.010956
      dxy     :     0.010027

 15 C s       :     3.123790  s :     3.123790
      pz      :     1.009236  p :     2.895904
      px      :     0.980159
      py      :     0.906509
      dz2     :     0.005532  d :     0.026267
      dxz     :     0.004106
      dyz     :     0.004755
      dx2y2   :     0.006154
      dxy     :     0.005719

 16 H s       :     0.940199  s :     0.940199
      pz      :     0.006283  p :     0.024537
      px      :     0.008899
      py      :     0.009354

 17 H s       :     0.946007  s :     0.946007
      pz      :     0.005256  p :     0.024613
      px      :     0.004290
      py      :     0.015066

 18 C s       :     3.200619  s :     3.200619
      pz      :     1.032719  p :     2.827469
      px      :     0.887482
      py      :     0.907268
      dz2     :     0.003864  d :     0.035171
      dxz     :     0.006909
      dyz     :     0.002997
      dx2y2   :     0.011950
      dxy     :     0.009450

 19 H s       :     0.978201  s :     0.978201
      pz      :     0.005081  p :     0.024320
      px      :     0.004504
      py      :     0.014735

 20 C s       :     3.099202  s :     3.099202
      pz      :     0.959006  p :     2.970718
      px      :     0.979992
      py      :     1.031719
      dz2     :     0.005097  d :     0.044111
      dxz     :     0.007204
      dyz     :     0.006532
      dx2y2   :     0.013604
      dxy     :     0.011673

 21 H s       :     0.971759  s :     0.971759
      pz      :     0.004854  p :     0.024549
      px      :     0.004082
      py      :     0.015613

 22 C s       :     2.924821  s :     2.924821
      pz      :     1.004765  p :     2.924286
      px      :     0.975663
      py      :     0.943858
      dz2     :     0.010159  d :     0.035505
      dxz     :     0.003823
      dyz     :     0.005033
      dx2y2   :     0.009347
      dxy     :     0.007144

 23 C s       :     3.001218  s :     3.001218
      pz      :     1.009309  p :     2.964421
      px      :     0.962789
      py      :     0.992323
      dz2     :     0.009985  d :     0.036459
      dxz     :     0.006792
      dyz     :     0.003295
      dx2y2   :     0.009878
      dxy     :     0.006509

 24 H s       :     0.962641  s :     0.962641
      pz      :     0.004963  p :     0.023210
      px      :     0.013047
      py      :     0.005201

 25 H s       :     0.959395  s :     0.959395
      pz      :     0.014369  p :     0.023275
      px      :     0.004664
      py      :     0.004243

 26 C s       :     2.969384  s :     2.969384
      pz      :     0.971055  p :     2.888138
      px      :     0.977282
      py      :     0.939802
      dz2     :     0.008062  d :     0.035335
      dxz     :     0.005989
      dyz     :     0.004947
      dx2y2   :     0.008101
      dxy     :     0.008236

 27 H s       :     0.964133  s :     0.964133
      pz      :     0.014216  p :     0.022854
      px      :     0.004132
      py      :     0.004506

 28 H s       :     0.961920  s :     0.961920
      pz      :     0.005264  p :     0.022644
      px      :     0.003716
      py      :     0.013664

 29 C s       :     3.259754  s :     3.259754
      pz      :     1.055435  p :     3.109263
      px      :     1.000972
      py      :     1.052857
      dz2     :     0.012261  d :     0.050983
      dxz     :     0.010033
      dyz     :     0.009112
      dx2y2   :     0.010135
      dxy     :     0.009441

 30 H s       :     0.968044  s :     0.968044
      pz      :     0.007851  p :     0.023047
      px      :     0.008520
      py      :     0.006676

 31 H s       :     0.979546  s :     0.979546
      pz      :     0.013847  p :     0.022527
      px      :     0.004722
      py      :     0.003958

 32 C s       :     3.032047  s :     3.032047
      pz      :     0.994552  p :     2.962621
      px      :     0.942539
      py      :     1.025530
      dz2     :     0.009830  d :     0.043841
      dxz     :     0.006719
      dyz     :     0.006651
      dx2y2   :     0.011021
      dxy     :     0.009620

 33 H s       :     0.968589  s :     0.968589
      pz      :     0.013393  p :     0.021281
      px      :     0.004084
      py      :     0.003804

 34 C s       :     2.904900  s :     2.904900
      pz      :     0.989117  p :     2.948569
      px      :     0.986545
      py      :     0.972907
      dz2     :     0.005756  d :     0.034986
      dxz     :     0.006239
      dyz     :     0.007575
      dx2y2   :     0.009286
      dxy     :     0.006130

 35 H s       :     0.752057  s :     0.752057
[...]
 Total          138.675          176.507          190.064  iso=     168.415

 Orientation: 
  X           0.2228145   -0.5465147    0.8072641
  Y           0.0302187   -0.8238114   -0.5660579
  Z           0.9743924    0.1505204   -0.1670422

 --------------
 Nucleus  39C :
 --------------

Diamagnetic contribution to the shielding tensor (ppm) : 
           266.589          3.011        -6.446
             0.610        271.415         4.715
            -5.841          3.856       253.880

Paramagnetic contribution to the shielding tensor (ppm): 
          -102.971         -3.031        10.183
            10.499       -123.355         3.868
            16.421         -0.032      -124.992

Total shielding tensor (ppm): 
           163.618         -0.020         3.737
            11.109        148.060         8.583
            10.581          3.825       128.888


 Diagonalized sT*s matrix:
 
 sDSO           254.984          271.250          265.650  iso=     263.961
 sPSO          -128.726         -124.328          -98.264  iso=    -117.106
        ---------------  ---------------  ---------------
 Total          126.259          146.922          167.386  iso=     146.855

 Orientation: 
  X          -0.1427744   -0.3557298   -0.9236188
  Y          -0.2424344    0.9173211   -0.3158284
  Z           0.9596046    0.1788248   -0.2172112

 --------------
 Nucleus  43C :
 --------------

Diamagnetic contribution to the shielding tensor (ppm) : 
           260.881         -0.324        -5.290
            -5.313        257.301         5.781
            -0.831          7.250       237.183

Paramagnetic contribution to the shielding tensor (ppm): 
           -90.772         -7.515        -1.204
             2.109        -96.795        -3.699
            -1.062         -9.299       -87.911

Total shielding tensor (ppm): 
           170.108         -7.839        -6.494
            -3.205        160.506         2.082
            -1.893         -2.049       149.272


 Diagonalized sT*s matrix:
 
 sDSO           238.140          253.756          263.469  iso=     251.788
 sPSO           -89.776          -95.470          -90.233  iso=     -91.826
        ---------------  ---------------  ---------------
 Total          148.364          158.286          173.236  iso=     159.962

 Orientation: 
  X           0.2183704   -0.3736651    0.9014925
  Y           0.0855832   -0.9128948   -0.3991223
  Z           0.9721059    0.1643091   -0.1673697

 --------------
 Nucleus  44C :
 --------------

Diamagnetic contribution to the shielding tensor (ppm) : 
           250.499          0.147         0.539
            -1.104        257.327        -0.276
             0.509          4.439       269.263

Paramagnetic contribution to the shielding tensor (ppm): 
           -71.522         -3.972        -0.960
            -1.926        -78.797        -1.112
            -0.173         -5.925       -75.089

Total shielding tensor (ppm): 
           178.977         -3.825        -0.420
            -3.030        178.530        -1.388
             0.336         -1.485       194.174


 Diagonalized sT*s matrix:
 
 sDSO           253.967          254.344          268.778  iso=     259.030
 sPSO           -78.710          -72.229          -74.468  iso=     -75.136
        ---------------  ---------------  ---------------
 Total          175.257          182.114          194.310  iso=     183.894

 Orientation: 
  X           0.6777013    0.7350836    0.0193147
  Y           0.7331537   -0.6734329   -0.0947304
  Z           0.0566276   -0.0783596    0.9953156

 --------------
 Nucleus  49C :
 --------------

Diamagnetic contribution to the shielding tensor (ppm) : 
           245.287         -6.822        -3.015
           -19.782        258.608         0.958
            -3.492          5.076       240.239

Paramagnetic contribution to the shielding tensor (ppm): 
           -75.676          0.937         1.026
            18.080        -72.261         7.338
             4.465          0.479       -70.172

Total shielding tensor (ppm): 
           169.611         -5.885        -1.990
            -1.702        186.347         8.296
             0.974          5.555       170.068


 Diagonalized sT*s matrix:
 
 sDSO           239.902          241.500          262.733  iso=     248.045
 sPSO           -72.761          -72.208          -73.140  iso=     -72.703
        ---------------  ---------------  ---------------
 Total          167.141          169.292          189.593  iso=     175.342

 Orientation: 
  X           0.4131578    0.8932248   -0.1773416
  Y           0.3809360    0.0073648    0.9245721
  Z          -0.8271568    0.4495499    0.3372187

 --------------
 Nucleus  50C :
 --------------

Diamagnetic contribution to the shielding tensor (ppm) : 
           267.546         10.853         1.720
            17.078        234.029         3.737
            -0.321         10.004       266.040

Paramagnetic contribution to the shielding tensor (ppm): 
          -264.070        -69.699        46.502
           -79.996       -112.198        -1.122
            38.886          0.561      -201.980

Total shielding tensor (ppm): 
             3.476        -58.846        48.222
           -62.918        121.831         2.615
            38.565         10.565        64.060


 Diagonalized sT*s matrix:
 
 sDSO           269.994          269.194          228.427  iso=     255.872
 sPSO          -309.132         -189.765          -79.351  iso=    -192.749
        ---------------  ---------------  ---------------
 Total          -39.138           79.429          149.076  iso=      63.122

 Orientation: 
  X          -0.8807019    0.2185349    0.4202460
  Y          -0.3558103    0.2804282   -0.8914926
  Z           0.3126711    0.9346671    0.1692167

 --------------
 Nucleus  51C :
 --------------

Diamagnetic contribution to the shielding tensor (ppm) : 
           270.153         13.309        -0.032
             2.337        258.741         2.417
             4.643         -2.814       277.859

Paramagnetic contribution to the shielding tensor (ppm): 
          -265.912        -82.892        55.508
           -78.292       -134.604       -11.641
            38.382         -4.574      -218.305

Total shielding tensor (ppm): 
             4.241        -69.584        55.477
           -75.955        124.136        -9.224
            43.025         -7.389        59.553


 Diagonalized sT*s matrix:
 
 sDSO           273.637          275.622          257.494  iso=     268.917
 sPSO          -313.400         -214.619          -90.803  iso=    -206.274
        ---------------  ---------------  ---------------
 Total          -39.763           61.003          166.691  iso=      62.644

 Orientation: 
  X           0.8846854   -0.0071382    0.4661338
  Y           0.4425582    0.3271585   -0.8349309
  Z          -0.1465398    0.9449425    0.2925914

 --------------
 Nucleus  54C :
 --------------

Diamagnetic contribution to the shielding tensor (ppm) : 
           250.991          0.832         5.791
             3.218        243.744        -0.153
             1.604          2.004       249.186

Paramagnetic contribution to the shielding tensor (ppm): 
           -90.348          5.272        -5.885
             6.440        -88.058        14.824
            -2.311          4.890      -100.763

Total shielding tensor (ppm): 
           160.643          6.104        -0.094
             9.657        155.686        14.670
            -0.707          6.895       148.423


 Diagonalized sT*s matrix:
 
 sDSO           246.998          245.506          251.418  iso=     247.974
 sPSO          -107.551          -88.907          -82.711  iso=     -93.056
        ---------------  ---------------  ---------------
 Total          139.447          156.599          168.706  iso=     154.917

 Orientation: 
  X           0.2386643   -0.7229705   -0.6483464
  Y          -0.6263618    0.3955932   -0.6716971
  Z           0.7420985    0.5664095   -0.3584271

 --------------
 Nucleus  55C :
 --------------

Diamagnetic contribution to the shielding tensor (ppm) : 
           248.451         -1.466         4.262
           -16.903        228.273        -7.326
             8.051         -3.897       252.017

Paramagnetic contribution to the shielding tensor (ppm): 
           -64.694          1.833         4.546
            12.700        -48.879         1.500
             1.981          0.567       -63.850

Total shielding tensor (ppm): 
           183.757          0.367         8.808
            -4.203        179.393        -5.826
            10.032         -3.330       188.167


 Diagonalized sT*s matrix:
 
 sDSO           242.920          226.060          259.762  iso=     242.914
 sPSO           -67.312          -47.293          -62.818  iso=     -59.141
        ---------------  ---------------  ---------------
 Total          175.607          178.767          196.943  iso=     183.772

 Orientation: 
  X          -0.6301746    0.5061367    0.5888171
  Y           0.4470177    0.8565526   -0.2578619
  Z           0.6348663   -0.1007136    0.7660298

 --------------
 Nucleus  56C :
 --------------

Diamagnetic contribution to the shielding tensor (ppm) : 
           246.944          4.182        -4.118
            10.376        242.336        12.833
            -6.200          8.065       241.700

Paramagnetic contribution to the shielding tensor (ppm): 
           -86.941         -5.923         7.439
            -8.861        -66.576       -13.439
            11.387         -2.886       -85.385

Total shielding tensor (ppm): 
           160.003         -1.741         3.322
             1.515        175.760        -0.605
             5.187          5.178       156.315


 Diagonalized sT*s matrix:
 
 sDSO           247.089          238.827          245.064  iso=     243.660
 sPSO           -93.740          -76.131          -69.032  iso=     -79.634
        ---------------  ---------------  ---------------
 Total          153.350          162.696          176.032  iso=     164.026

 Orientation: 
  X          -0.5355617    0.8439390    0.0306684
  Y          -0.0782272   -0.0857368    0.9932420
  Z           0.8408651    0.5295433    0.1119363

 --------------
 Nucleus  59C :
 --------------

Diamagnetic contribution to the shielding tensor (ppm) : 
           244.604         13.611         7.659
            19.647        228.941         7.215
             6.861         -1.473       228.487

Paramagnetic contribution to the shielding tensor (ppm): 
           -54.965          0.943       -15.527
            -4.797        -56.931        -3.541
           -10.261          9.574       -63.689

Total shielding tensor (ppm): 
           189.638         14.554        -7.868
            14.849        172.010         3.674
            -3.400          8.102       164.798


 Diagonalized sT*s matrix:
 
 sDSO           224.606          223.670          253.755  iso=     234.010
 sPSO           -68.328          -51.592          -55.665  iso=     -58.528
        ---------------  ---------------  ---------------
 Total          156.278          172.078          198.091  iso=     175.482

 Orientation: 
  X           0.3922330   -0.2836724   -0.8750333
  Y          -0.6144478    0.6271158   -0.4787271
  Z           0.6845489    0.7254349    0.0716736

 --------------
 Nucleus  60C :
 --------------

Diamagnetic contribution to the shielding tensor (ppm) : 
           240.029         -5.841       -11.784
            10.831        246.134        10.596
             3.501         11.835       260.543

Paramagnetic contribution to the shielding tensor (ppm): 
           -50.925          9.370         3.918
            -9.647        -72.380        -7.672
           -15.425        -12.665       -77.638

Total shielding tensor (ppm): 
           189.104          3.529        -7.866
             1.184        173.754         2.924
           -11.923         -0.830       182.905


 Diagonalized sT*s matrix:
 
 sDSO           237.309          259.060          250.337  iso=     248.902
 sPSO           -65.090          -81.961          -53.892  iso=     -66.981
        ---------------  ---------------  ---------------
 Total          172.219          177.099          196.445  iso=     181.921

 Orientation: 
  X          -0.3607993   -0.4604417   -0.8110594
  Y           0.8360985   -0.5450030   -0.0625376
  Z          -0.4132349   -0.7006891    0.5816113



--------------------------------
CHEMICAL SHIELDING SUMMARY (ppm)
--------------------------------


  Nucleus  Element    Isotropic     Anisotropy
  -------  -------  ------------   ------------
      0       C           61.308        151.971 
      1       C          154.528         12.027 
      2       C          132.295         50.865 
      5       C           50.726        177.740 
      6       C          167.949         31.907 
      7       C          164.857         17.244 
     14       C           71.899        133.283 
     15       C           83.845        119.583 
     18       C           79.842        133.579 
     20       C           52.037        175.734 
     22       C          169.308          6.950 
     23       C          174.321         12.742 
     26       C          158.750         24.119 
     29       C          154.467         16.574 
     32       C          143.125         27.299 
     34       C          174.131         23.516 
     36       C          168.415         32.473 
     39       C          146.855         30.796 
     43       C          159.962         19.911 
     44       C          183.894         15.624 
     49       C          175.342         21.376 
     50       C           63.122        128.931 
     51       C           62.644        156.072 
     54       C          154.917         20.683 
     55       C          183.772         19.757 
     56       C          164.026         18.009 
     59       C          175.482         33.912 
     60       C          181.921         21.786 


NMR shielding tensor and spin rotation calculation done in   1.0 sec 

Maximum memory used throughout the entire PROP-calculation: 52.2 MB

--------------------------------
SUGGESTED CITATIONS FOR THIS RUN
--------------------------------

Below you find a list of papers that are relevant to this ORCA run
We neither can nor want to force you to cite these papers, but we appreciate if you do
You receive ORCA, which is the product of decades of hard work by many enthusiastic individuals, for free
The only thing we kindly ask in return is that you cite our papers,
We deeply appreciate it, if you show your appreciation for ORCA by not just citing the generic ORCA reference.

Please note that relegating all ORCA citations to the supporting information does *not* help us.
SI sections are not indexed - citations you put there will not count into any citation statistics
But we need these citations in order to attract the funding resources that allow us to do what we are doing

Therefore, if you are a happy ORCA user, please consider citing a few of the papers listed below in the main body of your paper

In addition to the list printed below, the program has created the file inpS.bibtex that contains the list in bibtex format
You can import this file easily into all common literature databanks and citation aid programs


List of essential papers. We consider these as the minimum necessary citations

  1. Neese,F.
     Software update: the ORCA program system, version 5.0
     WIRES Comput. Molec. Sci., 2022 12(1)e1606
     doi.org/10.1002/wcms.1606

List of papers to cite with high priority. The work reported in these papers was absolutely
necessary for this run to complete.
Our perspective: the developers of density functionals and basis sets usually get cited in chemistry papers
Good! But without the algorithms to do something with them, the functionals or basis sets would not do anything.
Hence, in our opinion, the algorithm design and method developments papers are equally worthy of getting cited

  1. Neese,F.
     An improvement of the resolution of the identity approximation for the formation of the Coulomb matrix
     J. Comp. Chem., 2003 24(14)1740-1747
     doi.org/10.1002/jcc.10318
  2. Neese,F.; Wennmohs,F.; Hansen,A.; Becker,U.
     Efficient, approximate and parallel Hartree-Fock and hybrid DFT calculations. A 'chain-of-spheres' algorithm for the Hartree-Fock exchange
     Chem. Phys., 2009 356(1-3)98-109
     doi.org/10.1016/j.chemphys.2008.10.036
  3. Stoychev,G.L.; Auer,A.A.; Izsak,R.; Neese,F.
     Self-Consistent Field Calculation of Nuclear Magnetic Resonance Chemical Shielding Constants Using Gauge-Including Atomic Orbitals and Approximate Two-Electron Integrals
     J. Chem. Theory Comput., 2018 14(2)619-637
     doi.org/10.1021/acs.jctc.7b01006
  4. Garcia-Rates,M.; Neese,F.
     Effect of the Solute Cavity on the Solvation Energy and its Derivatives within the Framework of the Gaussian Charge Scheme
     J. Comput. Chem., 2020 41 922-939
     doi.org/10.1002/jcc.26139
  5. Helmich-Paris,B.; de Souza,B.; Neese,F.; Izsák,R.
     An improved chain of spheres for exchange algorithm
     J. Chem. Phys., 2021 155 104109
     doi.org/doi: 10.1063/5.0058766.
  6. Neese,F.
     The SHARK Integral Generation and Digestion System
     J. Comp. Chem., 2022  1-16
     doi.org/10.1002/jcc.26942
  7. Caldeweyher,E.; Bannwarth,C.; Grimme,S.
     Extension of the D3 dispersion coefficient model
     J. Chem. Phys., 2017 147 034112-XXXX
     doi.org/10.1063/1.4993215
  8. Caldeweyher,E.; Ehlert,S.; Hansen,A.; Neugebauer,H.; Spicher,S.; Bannwarth,C.; Grimme,S.
     A generally applicable atomic-charge dependent London dispersion correction
     J. Chem. Phys., 2019 150 154122-XXXX
     doi.org/10.1063/1.5090222
  9. Caldeweyher,E.; Mewes,J.; Ehlert,S.; Grimme,S.
     Extension and evaluation of the D4 London-dispersion model for periodic systems
     Phys. Chem. Chem. Phys., 2020 22(16)8499-8512
     doi.org/10.1039/D0CP00502A

List of suggested additional citations. These are papers that are important in the 'surrounding' of 
of this run, or papers that preceded the highly important papers. If you like your results we are grateful for a citation.

  1. Izsak,R.; Neese,F.
     An overlap fitted chain of spheres exchange method
     J. Chem. Phys., 2011 135 144105
     doi.org/10.1063/1.3646921
  2. Izsak,R.; Hansen,A.; Neese,F.
     The resolution of identity and chain of spheres approximations for the LPNO-CCSD singles Fock term
     Molec. Phys., 2012 110 2413-2417
     doi.org/10.1080/00268976.2012.687466
  3. Neese,F.
     The ORCA program system
     WIRES Comput. Molec. Sci., 2012 2(1)73-78
     doi.org/10.1002/wcms.81
  4. Izsak,R.; Neese,F.; Klopper,W.
     Robust fitting techniques in the chain of spheres approximation to the Fock exchange: The role of the complementary space
     J. Chem. Phys., 2013 139 
     doi.org/10.1063/1.4819264
  5. Neese,F.
     Software update: the ORCA program system, version 4.0
     WIRES Comput. Molec. Sci., 2018 8(1)1-6
     doi.org/10.1002/wcms.1327
  6. Neese,F.; Wennmohs,F.; Becker,U.; Riplinger,C.
     The ORCA quantum chemistry program package
     J. Chem. Phys., 2020 152 Art. No. L224108
     doi.org/10.1063/5.0004608

Timings for individual modules:

Sum of individual times          ...      178.422 sec (=   2.974 min)
Startup calculation              ...        4.814 sec (=   0.080 min)   2.7 %
SCF iterations                   ...       71.694 sec (=   1.195 min)  40.2 %
Property integrals               ...       61.367 sec (=   1.023 min)  34.4 %
SCF Response                     ...       39.206 sec (=   0.653 min)  22.0 %
Property calculations            ...        1.340 sec (=   0.022 min)   0.8 %
                             ****ORCA TERMINATED NORMALLY****
TOTAL RUN TIME: 0 days 0 hours 2 minutes 58 seconds 715 msec
