
                                 *****************
                                 * O   R   C   A *
                                 *****************

                                            #,                                       
                                            ###                                      
                                            ####                                     
                                            #####                                    
                                            ######                                   
                                           ########,                                 
                                     ,,################,,,,,                         
                               ,,#################################,,                 
                          ,,##########################################,,             
                       ,#########################################, ''#####,          
                    ,#############################################,,   '####,        
                  ,##################################################,,,,####,       
                ,###########''''           ''''###############################       
              ,#####''   ,,,,##########,,,,          '''####'''          '####       
            ,##' ,,,,###########################,,,                        '##       
           ' ,,###''''                  '''############,,,                           
         ,,##''                                '''############,,,,        ,,,,,,###''
      ,#''                                            '''#######################'''  
     '                                                          ''''####''''         
             ,#######,   #######,   ,#######,      ##                                
            ,#'     '#,  ##    ##  ,#'     '#,    #''#        ,####,   ,####,        
            ##       ##  ##   ,#'  ##            #'  '#       #'       #'  '#        
            ##       ##  #######   ##           ,######,      #####,   #    #        
            '#,     ,#'  ##    ##  '#,     ,#' ,#      #,     #,   #   #,  ,#        
             '#######'   ##     ##  '#######'  #'      '#     '####' # '####'        



                #########################################################
                #                        -***-                          #
                #          Department of theory and spectroscopy        #
                #                                                       #
                #                      Frank Neese                      #
                #                                                       #
                #     Directorship, Architecture, Infrastructure        #
                #                    SHARK, DRIVERS                     #
                #        Core code/Algorithms in most modules           #
                #                                                       #
                #        Max Planck Institute fuer Kohlenforschung      #
                #                Kaiser Wilhelm Platz 1                 #
                #                 D-45470 Muelheim/Ruhr                 #
                #                      Germany                          #
                #                                                       #
                #                  All rights reserved                  #
                #                        -***-                          #
                #########################################################


                         Program Version 6.0.0  -   RELEASE  -


 With contributions from (in alphabetic order):
   Daniel Aravena         : Magnetic Suceptibility
   Michael Atanasov       : Ab Initio Ligand Field Theory (pilot matlab implementation)
   Alexander A. Auer      : GIAO ZORA, VPT2 properties, NMR spectrum
   Ute Becker             : All parallelization in ORCA, NUMFREQ, NUMCALC
   Giovanni Bistoni       : ED, misc. LED, open-shell LED, HFLD
   Martin Brehm           : Molecular dynamics
   Dmytro Bykov           : pre 5.0 version of the SCF Hessian
   Marcos Casanova-Páez   : Triplet and SCS-CIS(D). UHF-(DLPNO)-IP/EA/STEOM-CCSD. UHF-CVS-IP/STEOM-CCSD
   Vijay G. Chilkuri      : MRCI spin determinant printing, contributions to CSF-ICE
   Pauline Colinet        : FMM embedding
   Dipayan Datta          : RHF DLPNO-CCSD density
   Achintya Kumar Dutta   : EOM-CC, STEOM-CC
   Nicolas Foglia         : Exact transition moments, OPA infrastructure, MCD improvements
   Dmitry Ganyushin       : Spin-Orbit,Spin-Spin,Magnetic field MRCI
   Miquel Garcia          : C-PCM and meta-GGA Hessian, CCSD/C-PCM, Gaussian charge scheme
   Tiago L. C. Gouveia    : GS-ROHF, GS-ROCIS
   Yang Guo               : DLPNO-NEVPT2, F12-NEVPT2, CIM, IAO-localization
   Andreas Hansen         : Spin unrestricted coupled pair/coupled cluster methods
   Ingolf Harden          : AUTO-CI MPn and infrastructure 
   Benjamin Helmich-Paris : MC-RPA, TRAH-(SCF,CASSCF), AVAS, COSX integrals, SCF dyn. polar.
   Lee Huntington         : MR-EOM, pCC
   Robert Izsak           : Overlap fitted RIJCOSX, COSX-SCS-MP3, EOM
   Riya Kayal             : Wick's Theorem for AUTO-CI, AUTO-CI UHF-CCSDT
   Emily Kempfer          : AUTO-CI, RHF CISDT and CCSDT
   Christian Kollmar      : KDIIS, OOCD, Brueckner-CCSD(T), CCSD density, CASPT2, CASPT2-K, improved NEVPT2
   Axel Koslowski         : Symmetry handling
   Simone Kossmann        : Meta GGA functionals, TD-DFT gradient, OOMP2, (MP2 Hessian; deprecated post 5.0)
   Lucas Lang             : DCDCAS
   Marvin Lechner         : AUTO-CI (C++ implementation), FIC-MRCC
   Spencer Leger          : CASSCF response
   Dagmar Lenk            : GEPOL surface, SMD, ORCA-2-JSON
   Dimitrios Liakos       : Extrapolation schemes; Compound Job, initial MDCI parallelization
   Dimitrios Manganas     : Further ROCIS development; embedding schemes. LFT, Crystal Embedding
   Dimitrios Pantazis     : SARC Basis sets
   Anastasios Papadopoulos: AUTO-CI, single reference methods and gradients
   Taras Petrenko         : pre 6.0 DFT Hessian and TD-DFT gradient, (ASA, deprecated), ECA, 1-Electron XAS/XES, NRVS
   Peter Pinski           : DLPNO-MP2, DLPNO-MP2 Gradient
   Christoph Reimann      : Effective Core Potentials
   Marius Retegan         : Local ZFS, SOC
   Christoph Riplinger    : Optimizer, TS searches, QM/MM, DLPNO-CCSD(T), (RO)-DLPNO pert. Triples
   Michael Roemelt        : Original ROCIS implementation
   Masaaki Saitow         : Open-shell DLPNO-CCSD energy and density
   Barbara Sandhoefer     : DKH picture change effects
   Kantharuban Sivalingam : CASSCF convergence/infrastructure, NEVPT2 and variants, FIC-MRCI
   Bernardo de Souza      : ESD, SOC TD-DFT
   Georgi Stoychev        : AutoAux, RI-MP2 NMR, DLPNO-MP2 response, X2C
   Van Anh Tran           : RI-MP2 g-tensors
   Willem Van den Heuvel  : Paramagnetic NMR
   Zikuan Wang            : NOTCH, Electric field optimization 
   Frank Wennmohs         : Technical directorship and infrastructure
   Hang Xu                : AUTO-CI-Response properties 


 We gratefully acknowledge several colleagues who have allowed us to
 interface, adapt or use parts of their codes:
   Stefan Grimme, W. Hujo, H. Kruse, P. Pracht,  : VdW corrections, initial TS optimization,
                  C. Bannwarth, S. Ehlert,         DFT functionals, gCP, sTDA/sTD-DF
                  L. Wittmann, M. Mueller
   Ed Valeev, F. Pavosevic, A. Kumar             : LibInt (2-el integral package), F12 methods
   Garnet Chan, S. Sharma, J. Yang, R. Olivares  : DMRG
   Ulf Ekstrom                                   : XCFun DFT Library
   Mihaly Kallay                                 : mrcc  (arbitrary order and MRCC methods)
   Frank Weinhold                                : gennbo (NPA and NBO analysis)
   Simon Mueller                                 : openCOSMO-RS
   Christopher J. Cramer and Donald G. Truhlar   : smd solvation model
   Lars Goerigk                                  : TD-DFT with DH, B97 family of functionals
   V. Asgeirsson, H. Jonsson                     : NEB implementation
   FAccTs GmbH                                   : IRC, NEB, NEB-TS, DLPNO-Multilevel, CI-OPT
                                                   MM, QMMM, 2- and 3-layer-ONIOM, Crystal-QMMM,
                                                   LR-CPCM, SF, NACMEs, symmetry and pop. for TD-DFT,
                                                   nearIR, NL-DFT gradient (VV10), updates on ESD,
                                                   ML-optimized integration grids, MBIS, APM,
                                                   GOAT, DOCKER, SOLVATOR, interface openCOSMO-RS
   S Lehtola, MJT Oliveira, MAL Marques          : LibXC Library
   Liviu Ungur et al                             : ANISO software


 Your calculation uses the libint2 library for the computation of 2-el integrals
 For citations please refer to: http://libint.valeyev.net

 Your ORCA version has been built with support for libXC version: 6.2.2
 For citations please refer to: https://libxc.gitlab.io

 This ORCA versions uses:
   CBLAS   interface :  Fast vector & matrix operations
   LAPACKE interface :  Fast linear algebra routines
   SCALAPACK package :  Parallel linear algebra routines
   Shared memory     :  Shared parallel matrices
   BLAS/LAPACK       :  OpenBLAS 0.3.27  USE64BITINT DYNAMIC_ARCH NO_AFFINITY Zen SINGLE_THREADED
        Core in use  :  Zen
   Copyright (c) 2011-2014, The OpenBLAS Project


NOTE: MaxCore=8000 MB was set to SCF,MP2,MDCI,CIPSI,MRCI and CIS
      => If you want to overwrite this, your respective input block should be placed after the MaxCore statement
Your calculation utilizes the atom-pairwise dispersion correction
based on EEQ partial charges (D4)


================================================================================

----- Orbital basis set information -----
Your calculation utilizes the basis: pcJ-0
   F. Jensen, Theor. Chem. Acc. 126, 371 (2010).

----- AuxJ basis set information -----
Your calculation utilizes the auxiliary basis: def2/J
   F. Weigend, Phys. Chem. Chem. Phys. 8, 1057 (2006).

================================================================================
                                        WARNINGS
                       Please study these warnings very carefully!
================================================================================

WARNING: Old DensityContainer found on disk!
         Will remove this file - 
         If you want to keep old densities, please start your calculation with a different basename. 


================================================================================
                                       INPUT FILE
================================================================================
NAME = inpJ
|  1> ! pbe0
|  2> ! D4
|  3> ! pcJ-0
|  4> ! def2/J RIJCOSX
|  5> ! DEFGRID2
|  6> ! scfconv7
|  7> ! smallprint printgap noloewdin
|  8> ! NOSOSCF
|  9> %MaxCore 8000
| 10> %output
| 11>        print[P_BondOrder_M] 1
| 12>        print[P_Mayer] 1
| 13>        print[P_basis] 2
| 14> end
| 15> %pal
| 16>     nprocs 4
| 17> end
| 18> ! CPCM(chloroform)
| 19> *xyz 0 1
| 20> C   -5.1993097900   0.0714380500  -0.5814050300
| 21> C   -6.6241227200  -0.4153919000  -0.6991094700
| 22> C   -7.5739798200   0.5210514300   0.0589207600
| 23> H   -6.7187367200  -1.4376291900  -0.3156850600
| 24> H   -6.9303749100  -0.4196580600  -1.7557317000
| 25> C   -5.0109475200   1.4790018200  -0.9983504300
| 26> C   -5.9847704500   2.4512469200  -0.3706167400
| 27> C   -7.4333931900   1.9515943600  -0.4634836700
| 28> H   -5.8867256100   3.4384405300  -0.8345012300
| 29> H   -5.7211027300   2.5675862300   0.6916810400
| 30> H   -7.7618303600   1.9695342900  -1.5115908600
| 31> H   -8.0976071600   2.6152421900   0.1021529300
| 32> O   -7.3365439400   0.4463667200   1.4748225200
| 33> H   -8.6082426300   0.1820096200  -0.0784629000
| 34> C   -4.2265338600  -0.7176765400  -0.0665675700
| 35> C   -4.0879051700   1.8609845400  -1.8875467400
| 36> H   -3.4088470700   1.1442349100  -2.3416968200
| 37> H   -3.9976588800   2.9022417500  -2.1881408100
| 38> C   -2.8595803600  -0.3246006300   0.1884067500
| 39> H   -4.5196016900  -1.7306782400   0.2063210900
| 40> C   -1.8599654400  -1.1253359100   0.6159915900
| 41> H   -2.6323853700   0.7268077000   0.0276962200
| 42> C   -1.9683668100  -2.6068019000   0.8734337700
| 43> C   -0.8979327900  -3.3984608000   0.0974658200
| 44> H   -2.9613361700  -2.9972851200   0.6350384700
| 45> H   -1.8049852400  -2.7759798400   1.9498102000
| 46> C    0.5167030500  -2.8436181600   0.3102149000
| 47> H   -1.1455308800  -3.3825379400  -0.9714824900
| 48> H   -0.9315156200  -4.4493517300   0.4099039900
| 49> C    0.5957815700  -1.3447357600  -0.0103964600
| 50> H    1.2202430900  -3.4192693100  -0.3000155500
| 51> H    0.8090317800  -2.9897706200   1.3611208600
| 52> C   -0.4727732200  -0.6212065800   0.8685979600
| 53> H   -0.2199007300  -0.9117940000   1.9055291900
| 54> C   -0.1321847700   0.8568173800   0.7164476500
| 55> H   -6.3784727200   0.4262672000   1.6105523200
| 56> C    1.4153941000   0.8642536100   0.6782380900
| 57> H   -0.5383356400   1.4624070300   1.5335002000
| 58> H   -0.5436668400   1.2561591000  -0.2174033000
| 59> C    1.8801547800  -0.6121239300   0.4737310800
| 60> H    1.8286687900   1.2790016700   1.6015842700
| 61> H    1.7902101000   1.4940624200  -0.1373894000
| 62> H    2.1228482100  -1.0478007800   1.4557579900
| 63> C    3.1363315400  -0.7003052100  -0.4044994400
| 64> C    0.3367790900  -1.0847037300  -1.5017976800
| 65> H    0.5287665600  -0.0411011200  -1.7707256800
| 66> H   -0.7012281700  -1.3036591300  -1.7711370400
| 67> H    0.9846619000  -1.7112253200  -2.1240729600
| 68> H    2.8996074000  -0.2189348500  -1.3668138500
| 69> C    3.5927441200  -2.1384329900  -0.7122385500
| 70> C    4.3251362400   0.0393118600   0.1687880100
| 71> C    4.5346247200   0.3821935000   1.4395992500
| 72> H    5.1185550500   0.2472282100  -0.5547699700
| 73> H    3.7736132000   0.1663178600   2.1907929100
| 74> C    5.7758173400   1.0631646900   1.9474469700
| 75> C    6.3918895200   0.2393500400   3.0879460700
| 76> C    5.4886176400   2.5394186500   2.3393988800
| 77> H    6.4999655400   1.0991448400   1.1197458300
| 78> H    5.0082562500   2.9911262700   1.4581313900
| 79> C    6.7808351000   3.3134010700   2.6133916700
| 80> C    4.5232890800   2.6821205300   3.5191726700
| 81> H    5.6818365200   0.1166267200   3.9133930100
| 82> H    7.2985985400   0.7066509900   3.4851224000
| 83> H    6.6575271500  -0.7602099400   2.7284600300
| 84> H    7.4915412700   3.2111825500   1.7851557200
| 85> H    7.2702174800   2.9589258600   3.5275482300
| 86> H    6.5673917700   4.3796567100   2.7479758900
| 87> H    3.5808360400   2.1523941800   3.3457292300
| 88> H    4.2852489900   3.7384735600   3.6863697500
| 89> H    4.9671522000   2.2950857200   4.4436533700
| 90> H    2.8856668000  -2.6647917600  -1.3582651700
| 91> H    3.7074425400  -2.7089124700   0.2170386500
| 92> H    4.5634123800  -2.1286977100  -1.2206224100
| 93> *
| 94> %eprnmr
| 95>  Nuclei = all C { ssfc }
| 96>  SpinSpinRThresh 8.0
| 97> end
| 98> 
| 99>                          ****END OF INPUT****
================================================================================

                       ****************************
                       * Single Point Calculation *
                       ****************************

---------------------------------
CARTESIAN COORDINATES (ANGSTROEM)
---------------------------------
  C     -5.199310    0.071438   -0.581405
  C     -6.624123   -0.415392   -0.699109
  C     -7.573980    0.521051    0.058921
  H     -6.718737   -1.437629   -0.315685
  H     -6.930375   -0.419658   -1.755732
  C     -5.010948    1.479002   -0.998350
  C     -5.984770    2.451247   -0.370617
  C     -7.433393    1.951594   -0.463484
  H     -5.886726    3.438441   -0.834501
  H     -5.721103    2.567586    0.691681
  H     -7.761830    1.969534   -1.511591
  H     -8.097607    2.615242    0.102153
  O     -7.336544    0.446367    1.474823
  H     -8.608243    0.182010   -0.078463
  C     -4.226534   -0.717677   -0.066568
  C     -4.087905    1.860985   -1.887547
  H     -3.408847    1.144235   -2.341697
  H     -3.997659    2.902242   -2.188141
  C     -2.859580   -0.324601    0.188407
  H     -4.519602   -1.730678    0.206321
  C     -1.859965   -1.125336    0.615992
  H     -2.632385    0.726808    0.027696
  C     -1.968367   -2.606802    0.873434
  C     -0.897933   -3.398461    0.097466
  H     -2.961336   -2.997285    0.635038
  H     -1.804985   -2.775980    1.949810
  C      0.516703   -2.843618    0.310215
  H     -1.145531   -3.382538   -0.971482
  H     -0.931516   -4.449352    0.409904
  C      0.595782   -1.344736   -0.010396
  H      1.220243   -3.419269   -0.300016
  H      0.809032   -2.989771    1.361121
  C     -0.472773   -0.621207    0.868598
  H     -0.219901   -0.911794    1.905529
  C     -0.132185    0.856817    0.716448
  H     -6.378473    0.426267    1.610552
  C      1.415394    0.864254    0.678238
  H     -0.538336    1.462407    1.533500
  H     -0.543667    1.256159   -0.217403
  C      1.880155   -0.612124    0.473731
  H      1.828669    1.279002    1.601584
  H      1.790210    1.494062   -0.137389
  H      2.122848   -1.047801    1.455758
  C      3.136332   -0.700305   -0.404499
  C      0.336779   -1.084704   -1.501798
  H      0.528767   -0.041101   -1.770726
  H     -0.701228   -1.303659   -1.771137
  H      0.984662   -1.711225   -2.124073
  H      2.899607   -0.218935   -1.366814
  C      3.592744   -2.138433   -0.712239
  C      4.325136    0.039312    0.168788
  C      4.534625    0.382193    1.439599
  H      5.118555    0.247228   -0.554770
  H      3.773613    0.166318    2.190793
  C      5.775817    1.063165    1.947447
  C      6.391890    0.239350    3.087946
  C      5.488618    2.539419    2.339399
  H      6.499966    1.099145    1.119746
  H      5.008256    2.991126    1.458131
  C      6.780835    3.313401    2.613392
  C      4.523289    2.682121    3.519173
  H      5.681837    0.116627    3.913393
  H      7.298599    0.706651    3.485122
  H      6.657527   -0.760210    2.728460
  H      7.491541    3.211183    1.785156
  H      7.270217    2.958926    3.527548
  H      6.567392    4.379657    2.747976
  H      3.580836    2.152394    3.345729
  H      4.285249    3.738474    3.686370
  H      4.967152    2.295086    4.443653
  H      2.885667   -2.664792   -1.358265
  H      3.707443   -2.708912    0.217039
  H      4.563412   -2.128698   -1.220622

----------------------------
CARTESIAN COORDINATES (A.U.)
----------------------------
  NO LB      ZA    FRAG     MASS         X           Y           Z
   0 C     6.0000    0    12.011   -9.825272    0.134998   -1.098696
   1 C     6.0000    0    12.011  -12.517778   -0.784977   -1.321125
   2 C     6.0000    0    12.011  -14.312748    0.984645    0.111344
   3 H     1.0000    0     1.008  -12.696572   -2.716725   -0.596558
   4 H     1.0000    0     1.008  -13.096511   -0.793039   -3.317852
   5 C     6.0000    0    12.011   -9.469318    2.794908   -1.886609
   6 C     6.0000    0    12.011  -11.309577    4.632185   -0.700364
   7 C     6.0000    0    12.011  -14.047077    3.687979   -0.875857
   8 H     1.0000    0     1.008  -11.124299    6.497711   -1.576979
   9 H     1.0000    0     1.008  -10.811317    4.852035    1.307088
  10 H     1.0000    0     1.008  -14.667734    3.721880   -2.856493
  11 H     1.0000    0     1.008  -15.302260    4.942092    0.193041
  12 O     8.0000    0    15.999  -13.864059    0.843511    2.787011
  13 H     1.0000    0     1.008  -16.267221    0.343948   -0.148273
  14 C     6.0000    0    12.011   -7.986991   -1.356212   -0.125794
  15 C     6.0000    0    12.011   -7.725021    3.516751   -3.566946
  16 H     1.0000    0     1.008   -6.441787    2.162291   -4.425166
  17 H     1.0000    0     1.008   -7.554480    5.484442   -4.134987
  18 C     6.0000    0    12.011   -5.403824   -0.613406    0.356037
  19 H     1.0000    0     1.008   -8.540809   -3.270508    0.389890
  20 C     6.0000    0    12.011   -3.514825   -2.126577    1.164055
  21 H     1.0000    0     1.008   -4.974487    1.373468    0.052338
  22 C     6.0000    0    12.011   -3.719674   -4.926142    1.650551
  23 C     6.0000    0    12.011   -1.696847   -6.422160    0.184184
  24 H     1.0000    0     1.008   -5.596114   -5.664048    1.200049
  25 H     1.0000    0     1.008   -3.410928   -5.245842    3.684607
  26 C     6.0000    0    12.011    0.976427   -5.373660    0.586221
  27 H     1.0000    0     1.008   -2.164740   -6.392070   -1.835836
  28 H     1.0000    0     1.008   -1.760309   -8.408056    0.774606
  29 C     6.0000    0    12.011    1.125864   -2.541182   -0.019646
  30 H     1.0000    0     1.008    2.305925   -6.461483   -0.566947
  31 H     1.0000    0     1.008    1.528848   -5.649848    2.572146
  32 C     6.0000    0    12.011   -0.893412   -1.173910    1.641412
  33 H     1.0000    0     1.008   -0.415552   -1.723041    3.600928
  34 C     6.0000    0    12.011   -0.249793    1.619150    1.353890
  35 H     1.0000    0     1.008  -12.053567    0.805528    3.043503
  36 C     6.0000    0    12.011    2.674707    1.633203    1.281684
  37 H     1.0000    0     1.008   -1.017307    2.763549    2.897895
  38 H     1.0000    0     1.008   -1.027381    2.373797   -0.410833
  39 C     6.0000    0    12.011    3.552978   -1.156747    0.895222
  40 H     1.0000    0     1.008    3.455683    2.416963    3.026556
  41 H     1.0000    0     1.008    3.383007    2.823369   -0.259628
  42 H     1.0000    0     1.008    4.011602   -1.980057    2.750984
  43 C     6.0000    0    12.011    5.926808   -1.323385   -0.764393
  44 C     6.0000    0    12.011    0.636420   -2.049793   -2.837986
  45 H     1.0000    0     1.008    0.999224   -0.077670   -3.346187
  46 H     1.0000    0     1.008   -1.325129   -2.463559   -3.346964
  47 H     1.0000    0     1.008    1.860741   -3.233747   -4.013916
  48 H     1.0000    0     1.008    5.479464   -0.413727   -2.582904
  49 C     6.0000    0    12.011    6.789302   -4.041053   -1.345936
  50 C     6.0000    0    12.011    8.173323    0.074289    0.318963
  51 C     6.0000    0    12.011    8.569199    0.722241    2.720448
  52 H     1.0000    0     1.008    9.672667    0.467194   -1.048363
  53 H     1.0000    0     1.008    7.131095    0.314295    4.139999
  54 C     6.0000    0    12.011   10.914713    2.009090    3.680141
  55 C     6.0000    0    12.011   12.078921    0.452306    5.835372
  56 C     6.0000    0    12.011   10.371984    4.798806    4.420823
  57 H     1.0000    0     1.008   12.283155    2.077083    2.116013
  58 H     1.0000    0     1.008    9.464233    5.652409    2.755469
  59 C     6.0000    0    12.011   12.813921    6.261421    4.938595
  60 C     6.0000    0    12.011    8.547778    5.068473    6.650273
  61 H     1.0000    0     1.008   10.737115    0.220393    7.395241
  62 H     1.0000    0     1.008   13.792352    1.335377    6.585927
  63 H     1.0000    0     1.008   12.580903   -1.436589    5.156042
  64 H     1.0000    0     1.008   14.156961    6.068256    3.373455
  65 H     1.0000    0     1.008   13.738720    5.591560    6.666100
  66 H     1.0000    0     1.008   12.410572    8.276352    5.192922
  67 H     1.0000    0     1.008    6.766799    4.067436    6.322512
  68 H     1.0000    0     1.008    8.097947    7.064691    6.966229
  69 H     1.0000    0     1.008    9.386557    4.337083    8.397288
  70 H     1.0000    0     1.008    5.453120   -5.035727   -2.566749
  71 H     1.0000    0     1.008    7.006051   -5.119103    0.410144
  72 H     1.0000    0     1.008    8.623600   -4.022656   -2.306642

--------------------------------
INTERNAL COORDINATES (ANGSTROEM)
--------------------------------
 C      0   0   0     0.000000000000     0.00000000     0.00000000
 C      1   0   0     1.510281305224     0.00000000     0.00000000
 C      2   1   0     1.534198308667   110.41557437     0.00000000
 H      2   1   3     1.095871874010   110.78532272   237.80565788
 H      2   1   3     1.100117785026   109.79960936   118.64624726
 C      1   2   3     1.480053910490   113.87019511   305.99279350
 C      6   1   2     1.512495031076   114.35981325    50.06287597
 C      3   2   1     1.529419518507   110.19656020    56.76754314
 H      7   6   1     1.095149685814   110.24294683   188.51694781
 H      7   6   1     1.100696177432   108.31634569    71.77309458
 H      8   3   2     1.098508760755   108.28179426    64.42908507
 H      8   3   2     1.096153914132   109.53211819   181.42157238
 O      3   2   1     1.437613090157   110.65029571   292.72938289
 H      3   2   1     1.097052040294   109.46167676   177.18220923
 C      1   2   3     1.354271928513   121.29570264   122.59013245
 C      6   1   2     1.337381043678   123.14581741   232.12065998
 H     16   6   1     1.086785273384   121.38072507   358.93475531
 H     16   6   1     1.087528282462   120.96501943   178.36852200
 C     15   1   2     1.445019877387   126.02032652   185.08883761
 H     15   1   2     1.089279311261   116.35063409     3.03647663
 C     19  15   1     1.350272480769   126.50364577   184.79517874
 H     19  15   1     1.087614322417   115.75350058     5.65035727
 C     21  19  15     1.507570500039   125.70368353     1.94047233
 C     23  21  19     1.540999372015   111.64770589   126.04764699
 H     23  21  19     1.093296672483   112.27467580     2.33078420
 H     23  21  19     1.101771724024   107.88210733   244.63948100
 C     24  23  21     1.534375145137   112.63377286    50.99616870
 H     24  23  21     1.097364497828   109.04582461   288.91169914
 H     24  23  21     1.096866976119   109.11685782   172.92515833
 C     27  24  23     1.534826864997   111.81913180   306.00896466
 H     27  24  23     1.094862565113   108.96752118   182.49655333
 H     27  24  23     1.100554389710   109.22448038    65.97553725
 C     21  19  15     1.497417314832   122.65526119   180.74033546
 H     33  21  19     1.106169932972   106.34789345   125.57336462
 C     33  21  19     1.524370373446   121.10276027     2.97912601
 H     13   3   2     0.967846595233   107.61933578    41.97817858
 C     35  33  21     1.548068353421   103.32529557   195.08185436
 H     35  33  21     1.095112881328   112.26227359    73.33520947
 H     35  33  21     1.095841640056   110.76262786   313.59168003
 C     30  27  24     1.555864425652   115.93663991   166.54343558
 H     37  35  33     1.093334391112   111.02976272   251.69507732
 H     37  35  33     1.096537447356   111.27395875   133.47480093
 H     40  30  27     1.101404226683   105.84740394   321.88483625
 C     40  30  27     1.535267024581   118.06005869    82.74748471
 C     30  27  24     1.535896005688   111.06882410   294.73683329
 H     45  30  27     1.094663357119   111.73936930   188.05354764
 H     45  30  27     1.094506386389   111.40837245    68.09980443
 H     45  30  27     1.095220508541   110.80006721   308.00712010
 H     44  40  30     1.101728081533   107.38250298    62.87567617
 C     44  40  30     1.539878993497   114.23473852   304.03253667
 C     44  40  30     1.512927138135   113.45849348   180.44223152
 C     51  44  40     1.332821987368   127.63039172    21.77902996
 H     51  44  40     1.093745293513   114.34694790   197.53316611
 H     52  51  44     1.090886217872   119.73660563   357.13246974
 C     52  51  44     1.504057907217   124.61957054   176.98511413
 C     55  52  51     1.535888572008   109.80957822   235.31981536
 C     55  52  51     1.554167211676   111.26705339   109.00257161
 H     55  52  51     1.100351927301   107.69237299   352.90963567
 H     57  55  52     1.100644914539   105.57808506   307.15023639
 C     57  55  52     1.530995362295   111.67611442   190.36635574
 C     57  55  52     1.531041884103   113.53937582    64.87242818
 H     56  55  52     1.095718452357   111.07225774   301.06127548
 H     56  55  52     1.094641704821   111.88248955   180.11694299
 H     56  55  52     1.094949184686   110.06993610    60.11843038
 H     60  57  55     1.096141722032   111.40033383    51.91244878
 H     60  57  55     1.095823893037   111.26613889   291.21422744
 H     60  57  55     1.095706191105   110.45780788   172.00533697
 H     61  57  55     1.094947654168   112.05771359   305.25184729
 H     61  57  55     1.095673159294   110.14687609   185.41122118
 H     61  57  55     1.096118140585   111.20345683    66.41594877
 H     50  44  40     1.092868832460   112.09696439    67.89211167
 H     50  44  40     1.096429969990   110.33769585   306.78593633
 H     50  44  40     1.095785469769   110.30228004   187.82932468

---------------------------
INTERNAL COORDINATES (A.U.)
---------------------------
 C      0   0   0     0.000000000000     0.00000000     0.00000000
 C      1   0   0     2.854018052054     0.00000000     0.00000000
 C      2   1   0     2.899214638505   110.41557437     0.00000000
 H      2   1   3     2.070897719746   110.78532272   237.80565788
 H      2   1   3     2.078921328756   109.79960936   118.64624726
 C      1   2   3     2.796896554266   113.87019511   305.99279350
 C      6   1   2     2.858201387650   114.35981325    50.06287597
 C      3   2   1     2.890184033853   110.19656020    56.76754314
 H      7   6   1     2.069532981838   110.24294683   188.51694781
 H      7   6   1     2.080014332001   108.31634569    71.77309458
 H      8   3   2     2.075880713540   108.28179426    64.42908507
 H      8   3   2     2.071430698335   109.53211819   181.42157238
 O      3   2   1     2.716695026937   110.65029571   292.72938289
 H      3   2   1     2.073127910814   109.46167676   177.18220923
 C      1   2   3     2.559203055746   121.29570264   122.59013245
 C      6   1   2     2.527283909250   123.14581741   232.12065998
 H     16   6   1     2.053726533075   121.38072507   358.93475531
 H     16   6   1     2.055130616747   120.96501943   178.36852200
 C     15   1   2     2.730691826334   126.02032652   185.08883761
 H     15   1   2     2.058439581629   116.35063409     3.03647663
 C     19  15   1     2.551645194823   126.50364577   184.79517874
 H     19  15   1     2.055293208699   115.75350058     5.65035727
 C     21  19  15     2.848895372652   125.70368353     1.94047233
 C     23  21  19     2.912066785652   111.64770589   126.04764699
 H     23  21  19     2.066031294120   112.27467580     2.33078420
 H     23  21  19     2.082046820503   107.88210733   244.63948100
 C     24  23  21     2.899548811005   112.63377286    50.99616870
 H     24  23  21     2.073718369984   109.04582461   288.91169914
 H     24  23  21     2.072778190207   109.11685782   172.92515833
 C     27  24  23     2.900402437829   111.81913180   306.00896466
 H     27  24  23     2.068990402347   108.96752118   182.49655333
 H     27  24  23     2.079746392038   109.22448038    65.97553725
 C     21  19  15     2.829708633225   122.65526119   180.74033546
 H     33  21  19     2.090358230894   106.34789345   125.57336462
 C     33  21  19     2.880642532477   121.10276027     2.97912601
 H     13   3   2     1.828965004639   107.61933578    41.97817858
 C     35  33  21     2.925425224555   103.32529557   195.08185436
 H     35  33  21     2.069463431439   112.26227359    73.33520947
 H     35  33  21     2.070840585852   110.76262786   313.59168003
 C     30  27  24     2.940157665992   115.93663991   166.54343558
 H     37  35  33     2.066102572000   111.02976272   251.69507732
 H     37  35  33     2.072155471091   111.27395875   133.47480093
 H     40  30  27     2.081352351174   105.84740394   321.88483625
 C     40  30  27     2.901234218898   118.06005869    82.74748471
 C     30  27  24     2.902422820935   111.06882410   294.73683329
 H     45  30  27     2.068613953794   111.73936930   188.05354764
 H     45  30  27     2.068317322104   111.40837245    68.09980443
 H     45  30  27     2.069666817396   110.80006721   308.00712010
 H     44  40  30     2.081964348148   107.38250298    62.87567617
 C     44  40  30     2.909949577088   114.23473852   304.03253667
 C     44  40  30     2.859017951652   113.45849348   180.44223152
 C     51  44  40     2.518668541395   127.63039172    21.77902996
 H     51  44  40     2.066879065004   114.34694790   197.53316611
 H     52  51  44     2.061476195047   119.73660563   357.13246974
 C     52  51  44     2.842257534199   124.61957054   176.98511413
 C     55  52  51     2.902408773315   109.80957822   235.31981536
 C     55  52  51     2.936950396387   111.26705339   109.00257161
 H     55  52  51     2.079363793531   107.69237299   352.90963567
 H     57  55  52     2.079917459171   105.57808506   307.15023639
 C     57  55  52     2.893161947042   111.67611442   190.36635574
 C     57  55  52     2.893249860518   113.53937582    64.87242818
 H     56  55  52     2.070607794839   111.07225774   301.06127548
 H     56  55  52     2.068573036880   111.88248955   180.11694299
 H     56  55  52     2.069154089617   110.06993610    60.11843038
 H     60  57  55     2.071407658605   111.40033383    51.91244878
 H     60  57  55     2.070807048847   111.26613889   291.21422744
 H     60  57  55     2.070584624431   110.45780788   172.00533697
 H     61  57  55     2.069151197358   112.05771359   305.25184729
 H     61  57  55     2.070522203354   110.14687609   185.41122118
 H     61  57  55     2.071363096129   111.20345683    66.41594877
 H     50  44  40     2.065222793648   112.09696439    67.89211167
 H     50  44  40     2.071952368304   110.33769585   306.78593633
 H     50  44  40     2.070734439393   110.30228004   187.82932468

---------------------
BASIS SET INFORMATION
---------------------
There are 3 groups of distinct atoms

 Group   1 Type C   : 7s4p contracted to 4s3p pattern {4111/211}
 Group   2 Type H   : 5s contracted to 3s pattern {311}
 Group   3 Type O   : 7s4p contracted to 4s3p pattern {4111/211}

Atom   0C    basis set group =>   1
Atom   1C    basis set group =>   1
Atom   2C    basis set group =>   1
Atom   3H    basis set group =>   2
Atom   4H    basis set group =>   2
Atom   5C    basis set group =>   1
Atom   6C    basis set group =>   1
Atom   7C    basis set group =>   1
Atom   8H    basis set group =>   2
Atom   9H    basis set group =>   2
Atom  10H    basis set group =>   2
Atom  11H    basis set group =>   2
Atom  12O    basis set group =>   3
Atom  13H    basis set group =>   2
Atom  14C    basis set group =>   1
Atom  15C    basis set group =>   1
Atom  16H    basis set group =>   2
Atom  17H    basis set group =>   2
Atom  18C    basis set group =>   1
Atom  19H    basis set group =>   2
Atom  20C    basis set group =>   1
Atom  21H    basis set group =>   2
Atom  22C    basis set group =>   1
Atom  23C    basis set group =>   1
Atom  24H    basis set group =>   2
Atom  25H    basis set group =>   2
Atom  26C    basis set group =>   1
Atom  27H    basis set group =>   2
Atom  28H    basis set group =>   2
Atom  29C    basis set group =>   1
Atom  30H    basis set group =>   2
Atom  31H    basis set group =>   2
Atom  32C    basis set group =>   1
Atom  33H    basis set group =>   2
Atom  34C    basis set group =>   1
Atom  35H    basis set group =>   2
Atom  36C    basis set group =>   1
Atom  37H    basis set group =>   2
Atom  38H    basis set group =>   2
Atom  39C    basis set group =>   1
Atom  40H    basis set group =>   2
Atom  41H    basis set group =>   2
Atom  42H    basis set group =>   2
Atom  43C    basis set group =>   1
Atom  44C    basis set group =>   1
Atom  45H    basis set group =>   2
Atom  46H    basis set group =>   2
Atom  47H    basis set group =>   2
Atom  48H    basis set group =>   2
Atom  49C    basis set group =>   1
Atom  50C    basis set group =>   1
Atom  51C    basis set group =>   1
Atom  52H    basis set group =>   2
Atom  53H    basis set group =>   2
Atom  54C    basis set group =>   1
Atom  55C    basis set group =>   1
Atom  56C    basis set group =>   1
Atom  57H    basis set group =>   2
Atom  58H    basis set group =>   2
Atom  59C    basis set group =>   1
Atom  60C    basis set group =>   1
Atom  61H    basis set group =>   2
Atom  62H    basis set group =>   2
Atom  63H    basis set group =>   2
Atom  64H    basis set group =>   2
Atom  65H    basis set group =>   2
Atom  66H    basis set group =>   2
Atom  67H    basis set group =>   2
Atom  68H    basis set group =>   2
Atom  69H    basis set group =>   2
Atom  70H    basis set group =>   2
Atom  71H    basis set group =>   2
Atom  72H    basis set group =>   2

-------------------------
BASIS SET IN INPUT FORMAT
-------------------------

 # Basis set for element : H 
 NewGTO H 
 S 3 
   1    1357.7500000000      0.0012928364
   2      54.3100000000      0.0588280685
   3       4.3448000000      0.9761499708
 S 1 
   1       0.6604910000      1.0000000000
 S 1 
   1       0.1366870000      1.0000000000
  end;

 # Basis set for element : C 
 NewGTO C 
 S 4 
   1  139534.0000000000      0.0001655246
   2    5581.3600000000      0.0074486101
   3     446.5090000000      0.1285821065
   4      67.4620000000      0.9218029311
 S 1 
   1      15.0674000000      1.0000000000
 S 1 
   1       3.9387600000      1.0000000000
 S 1 
   1       0.2999150000      1.0000000000
 P 2 
   1      28.3900000000      0.0816325586
   2       4.3676900000      0.9660360576
 P 1 
   1       0.8698170000      1.0000000000
 P 1 
   1       0.1889340000      1.0000000000
  end;

 # Basis set for element : O 
 NewGTO O 
 S 4 
   1  253789.0000000000      0.0001641076
   2   10151.6000000000      0.0074010921
   3     812.1250000000      0.1277711901
   4     122.6930000000      0.9223372164
 S 1 
   1      27.5608000000      1.0000000000
 S 1 
   1       7.3172600000      1.0000000000
 S 1 
   1       0.5792400000      1.0000000000
 P 2 
   1      53.4157000000      0.0793786106
   2       8.2177900000      0.9670506337
 P 1 
   1       1.6754400000      1.0000000000
 P 1 
   1       0.3506720000      1.0000000000
  end;

---------------------------------
AUXILIARY/J BASIS SET INFORMATION
---------------------------------
There are 3 groups of distinct atoms

 Group   1 Type C   : 12s5p4d2f1g contracted to 6s4p3d1f1g pattern {711111/2111/211/2/1}
 Group   2 Type H   : 5s2p1d contracted to 3s1p1d pattern {311/2/1}
 Group   3 Type O   : 12s5p4d2f1g contracted to 6s4p3d1f1g pattern {711111/2111/211/2/1}

Atom   0C    basis set group =>   1
Atom   1C    basis set group =>   1
Atom   2C    basis set group =>   1
Atom   3H    basis set group =>   2
Atom   4H    basis set group =>   2
Atom   5C    basis set group =>   1
Atom   6C    basis set group =>   1
Atom   7C    basis set group =>   1
Atom   8H    basis set group =>   2
Atom   9H    basis set group =>   2
Atom  10H    basis set group =>   2
Atom  11H    basis set group =>   2
Atom  12O    basis set group =>   3
Atom  13H    basis set group =>   2
Atom  14C    basis set group =>   1
Atom  15C    basis set group =>   1
Atom  16H    basis set group =>   2
Atom  17H    basis set group =>   2
Atom  18C    basis set group =>   1
Atom  19H    basis set group =>   2
Atom  20C    basis set group =>   1
Atom  21H    basis set group =>   2
Atom  22C    basis set group =>   1
Atom  23C    basis set group =>   1
Atom  24H    basis set group =>   2
Atom  25H    basis set group =>   2
Atom  26C    basis set group =>   1
Atom  27H    basis set group =>   2
Atom  28H    basis set group =>   2
Atom  29C    basis set group =>   1
Atom  30H    basis set group =>   2
Atom  31H    basis set group =>   2
Atom  32C    basis set group =>   1
Atom  33H    basis set group =>   2
Atom  34C    basis set group =>   1
Atom  35H    basis set group =>   2
Atom  36C    basis set group =>   1
Atom  37H    basis set group =>   2
Atom  38H    basis set group =>   2
Atom  39C    basis set group =>   1
Atom  40H    basis set group =>   2
Atom  41H    basis set group =>   2
Atom  42H    basis set group =>   2
Atom  43C    basis set group =>   1
Atom  44C    basis set group =>   1
Atom  45H    basis set group =>   2
Atom  46H    basis set group =>   2
Atom  47H    basis set group =>   2
Atom  48H    basis set group =>   2
Atom  49C    basis set group =>   1
Atom  50C    basis set group =>   1
Atom  51C    basis set group =>   1
Atom  52H    basis set group =>   2
Atom  53H    basis set group =>   2
Atom  54C    basis set group =>   1
Atom  55C    basis set group =>   1
Atom  56C    basis set group =>   1
Atom  57H    basis set group =>   2
Atom  58H    basis set group =>   2
Atom  59C    basis set group =>   1
Atom  60C    basis set group =>   1
Atom  61H    basis set group =>   2
Atom  62H    basis set group =>   2
Atom  63H    basis set group =>   2
Atom  64H    basis set group =>   2
Atom  65H    basis set group =>   2
Atom  66H    basis set group =>   2
Atom  67H    basis set group =>   2
Atom  68H    basis set group =>   2
Atom  69H    basis set group =>   2
Atom  70H    basis set group =>   2
Atom  71H    basis set group =>   2
Atom  72H    basis set group =>   2

-------------------------------------
AUXILIARY/J BASIS SET IN INPUT FORMAT
-------------------------------------

 # Auxiliary/J basis set for element : H 
 NewAuxJGTO H 
 S 3 
   1      15.6752927000      0.1007184237
   2       3.6063578000      0.3404257499
   3       1.2080016000      0.6491996172
 S 1 
   1       0.4726794000      1.0000000000
 S 1 
   1       0.2018100000      1.0000000000
 P 2 
   1       2.0281365000      0.5596620919
   2       0.5358730000      0.5596620919
 D 1 
   1       2.2165124000      1.0000000000
  end;

 # Auxiliary/J basis set for element : C 
 NewAuxJGTO C 
 S 7 
   1    1861.0916331000      0.0134602335
   2     642.9939764000      0.0299160374
   3     235.1105725000      0.1008649584
   4      90.7028894000      0.2370970548
   5      36.7794552000      0.3924037254
   6      15.6046273000      0.3195862154
   7       6.8907294000      0.0530104441
 S 1 
   1       3.1478850000     -1.0000000000
 S 1 
   1       1.4777287000      1.0000000000
 S 1 
   1       0.7076466000      1.0000000000
 S 1 
   1       0.3430122000      1.0000000000
 S 1 
   1       0.1669453000      1.0000000000
 P 2 
   1      13.5472892000     -0.6769313712
   2       5.4669419000     -0.3779500978
 P 1 
   1       2.1751721000      1.0000000000
 P 1 
   1       0.8582194000      1.0000000000
 P 1 
   1       0.3376720000      1.0000000000
 D 2 
   1       5.9287253000     -0.3533329857
   2       1.9809209000     -0.7456525731
 D 1 
   1       0.8055417000     -1.0000000000
 D 1 
   1       0.3531244000     -1.0000000000
 F 2 
   1       1.6755626000      0.6311076882
   2       0.5997536000      0.4968166032
 G 1 
   1       1.0024600000     -1.0000000000
  end;

 # Auxiliary/J basis set for element : O 
 NewAuxJGTO O 
 S 7 
   1    2876.8216605000      0.0168151159
   2    1004.7443032000      0.0340137548
   3     369.7579954000      0.1194951309
   4     142.9442404000      0.2664627624
   5      57.8366425000      0.4202764046
   6      24.3864983000      0.2765077335
   7      10.6622662000      0.0057008815
 S 1 
   1       4.8070437000     -1.0000000000
 S 1 
   1       2.2210770000      1.0000000000
 S 1 
   1       1.0447795000      1.0000000000
 S 1 
   1       0.4968425000      1.0000000000
 S 1 
   1       0.2371384000      1.0000000000
 P 2 
   1      64.2613382000     -0.2731534179
   2      16.3006076000     -0.8168011598
 P 1 
   1       4.3550542000      1.0000000000
 P 1 
   1       1.2019554000      1.0000000000
 P 1 
   1       0.3354196000      1.0000000000
 D 2 
   1       9.2146611000     -0.4661230638
   2       2.8435251000     -0.6600908911
 D 1 
   1       0.9955759000     -1.0000000000
 D 1 
   1       0.3649441000     -1.0000000000
 F 2 
   1       2.6420115000      0.5931563945
   2       0.7345613000      0.5931563945
 G 1 
   1       1.3931000000     -1.0000000000
  end;


Checking for AutoStart:
The File: inpJ.gbw exists
Trying to determine its content:
     ... Fine, the file contains calculation information
     ... Fine, the calculation information was read
     ... Fine, the file contains a basis set
     ... Fine, the basis set was read
     ... Fine, the file contains a geometry
     ... Fine, the geometry was read
     ... Fine, the file contains a set of orbitals
     ... Fine, the orbitals can be read
     => possible old guess file was deleted
     => GBW file was renamed to GES file
     => GES file is set as startup file
     => Guess is set to MORead
     ... now leaving AutoStart



           ************************************************************
           *        Program running with 4 parallel MPI-processes     *
           *              working on a common directory               *
           ************************************************************
------------------------------------------------------------------------------
                             ORCA STARTUP CALCULATIONS
                           -- RI-GTO INTEGRALS CHOSEN --
------------------------------------------------------------------------------
------------------------------------------------------------------------------
                   ___                                                        
                  /   \      - P O W E R E D   B Y -                         
                 /     \                                                     
                 |  |  |   _    _      __       _____    __    __             
                 |  |  |  | |  | |    /  \     |  _  \  |  |  /  |          
                  \  \/   | |  | |   /    \    | | | |  |  | /  /          
                 / \  \   | |__| |  /  /\  \   | |_| |  |  |/  /          
                |  |  |   |  __  | /  /__\  \  |    /   |      \           
                |  |  |   | |  | | |   __   |  |    \   |  |\   \          
                \     /   | |  | | |  |  |  |  | |\  \  |  | \   \       
                 \___/    |_|  |_| |__|  |__|  |_| \__\ |__|  \__/        
                                                                              
                      - O R C A' S   B I G   F R I E N D -                    
                                      &                                       
                       - I N T E G R A L  F E E D E R -                       
                                                                              
 v1 FN, 2020, v2 2021, v3 2022-2024                                           
------------------------------------------------------------------------------


----------------------
SHARK INTEGRAL PACKAGE
----------------------

Number of atoms                             ...     73
Number of basis functions                   ...    509
Number of shells                            ...    335
Maximum angular momentum                    ...      1
Integral batch strategy                     ... SHARK/LIBINT Hybrid
RI-J (if used) integral strategy            ... SPLIT-RIJ (Revised 2003 algorithm where possible)
Printlevel                                  ...      1
Contraction scheme used                     ... SEGMENTED contraction
Prescreening option                         ... SCHWARTZ
   Thresh                                   ... 3.000e-11
   Tcut                                     ... 1.000e-12
   Tpresel                                  ... 1.000e-12 
Coulomb Range Separation                    ... NOT USED
Exchange Range Separation                   ... NOT USED
Multipole approximations                    ... NOT USED
Finite Nucleus Model                        ... NOT USED
CABS basis                                  ... NOT available
Auxiliary Coulomb fitting basis             ... AVAILABLE
   # of basis functions in Aux-J            ...   1905
   # of shells in Aux-J                     ...    655
   Maximum angular momentum in Aux-J        ...      4
Auxiliary J/K fitting basis                 ... NOT available
Auxiliary Correlation fitting basis         ... NOT available
Auxiliary 'external' fitting basis          ... NOT available

Checking pre-screening integrals            ... done (  0.0 sec) Dimension = 335
Check shell pair data                       ... done (  0.0 sec)
Shell pair information
Shell pair cut-off parameter TPreSel        ...   1.0e-12
Total number of shell pairs                 ...     56280
Shell pairs after pre-screening             ...     22032
Total number of primitive shell pairs       ...    145865
Primitive shell pairs kept                  ...     37840
          la=0 lb=0:  11081 shell pairs
          la=1 lb=0:   9064 shell pairs
          la=1 lb=1:   1887 shell pairs

Calculating one electron integrals          ... done (  0.0 sec)
Calculating RI/J V-Matrix + Cholesky decomp.... done (  0.2 sec)
Calculating Nuclear repulsion               ... done (  0.0 sec) ENN=   2799.653010439375 Eh

Diagonalization of the overlap matrix:
Smallest eigenvalue                        ... 7.566e-03
Time for diagonalization                   ...    0.027 sec
Threshold for overlap eigenvalues          ... 1.000e-07
Number of eigenvalues below threshold      ... 0
Time for construction of square roots      ...    0.014 sec
Total time needed                          ...    0.043 sec

-------------------
DFT GRID GENERATION
-------------------

General Integration Accuracy     IntAcc      ... 4.388
Radial Grid Type                 RadialGrid  ... OptM3 with GC (2021)
Angular Grid (max. ang.)         AngularGrid ... 4 (Lebedev-302)
Angular grid pruning method      GridPruning ... 4 (adaptive)
Weight generation scheme         WeightScheme... mBecke (2022)
Basis function cutoff            BFCut       ... 1.0000e-11
Integration weight cutoff        WCut        ... 1.0000e-14
Partially contracted basis set               ... off
Rotationally invariant grid construction     ... off
Angular grids for H and He will be reduced by one unit

Total number of grid points                  ...   309813
Total number of batches                      ...     4883
Average number of points per batch           ...       63
Average number of grid points per atom       ...     4244

--------------------
COSX GRID GENERATION
--------------------

GRIDX 1
-------
General Integration Accuracy     IntAcc      ... 3.816
Radial Grid Type                 RadialGrid  ... OptM3 with GC (2021)
Angular Grid (max. ang.)         AngularGrid ... 1 (Lebedev-50)
Angular grid pruning method      GridPruning ... 4 (adaptive)
Weight generation scheme         WeightScheme... mBecke (2022)
Basis function cutoff            BFCut       ... 1.0000e-11
Integration weight cutoff        WCut        ... 1.0000e-14
Partially contracted basis set               ... on
Rotationally invariant grid construction     ... off
Angular grids for H and He will be reduced by one unit

Total number of grid points                  ...    39380
Total number of batches                      ...      348
Average number of points per batch           ...      113
Average number of grid points per atom       ...      539
UseSFitting                                  ... on

GRIDX 2
-------
General Integration Accuracy     IntAcc      ... 4.020
Radial Grid Type                 RadialGrid  ... OptM3 with GC (2021)
Angular Grid (max. ang.)         AngularGrid ... 2 (Lebedev-110)
Angular grid pruning method      GridPruning ... 4 (adaptive)
Weight generation scheme         WeightScheme... mBecke (2022)
Basis function cutoff            BFCut       ... 1.0000e-11
Integration weight cutoff        WCut        ... 1.0000e-14
Partially contracted basis set               ... on
Rotationally invariant grid construction     ... off
Angular grids for H and He will be reduced by one unit

Total number of grid points                  ...    81353
Total number of batches                      ...      672
Average number of points per batch           ...      121
Average number of grid points per atom       ...     1114
UseSFitting                                  ... on

GRIDX 3
-------
General Integration Accuracy     IntAcc      ... 4.338
Radial Grid Type                 RadialGrid  ... OptM3 with GC (2021)
Angular Grid (max. ang.)         AngularGrid ... 3 (Lebedev-194)
Angular grid pruning method      GridPruning ... 4 (adaptive)
Weight generation scheme         WeightScheme... mBecke (2022)
Basis function cutoff            BFCut       ... 1.0000e-11
Integration weight cutoff        WCut        ... 1.0000e-14
Partially contracted basis set               ... on
Rotationally invariant grid construction     ... off
Angular grids for H and He will be reduced by one unit

Total number of grid points                  ...   176132
Total number of batches                      ...     1419
Average number of points per batch           ...      124
Average number of grid points per atom       ...     2413
UseSFitting                                  ... on
Initializing property integral containers    ... done (  0.0 sec)

SHARK setup successfully completed in   3.6 seconds

Maximum memory used throughout the entire STARTUP-calculation: 85.8 MB


           ************************************************************
           *        Program running with 4 parallel MPI-processes     *
           *              working on a common directory               *
           ************************************************************
-------------------------------------------------------------------------------
                                 ORCA GUESS
                   Start orbitals & Density for SCF / CASSCF
-------------------------------------------------------------------------------

------------
SCF SETTINGS
------------
Hamiltonian:
 Density Functional     Method          .... DFT(GTOs)
 Exchange Functional    Exchange        .... PBE
   PBE kappa parameter   XKappa         ....  0.804000
   PBE mue parameter    XMuePBE         ....  0.219520
 Correlation Functional Correlation     .... PBE
   PBE beta parameter  CBetaPBE         ....  0.066725
 LDA part of GGA corr.  LDAOpt          .... PW91-LDA
 Gradients option       PostSCFGGA      .... off
 Hybrid DFT is turned on
   Fraction HF Exchange ScalHFX         ....  0.250000
   Scaling of DF-GGA-X  ScalDFX         ....  0.750000
   Scaling of DF-GGA-C  ScalDFC         ....  1.000000
   Scaling of DF-LDA-C  ScalLDAC        ....  1.000000
   Perturbative correction              ....  0.000000
   NL short-range parameter             ....  6.900000
 RI-approximation to the Coulomb term is turned on
   Number of AuxJ basis functions       .... 1905
   RIJ-COSX (HFX calculated with COS-X)).... on


General Settings:
 Integral files         IntName         .... inpJ
 Hartree-Fock type      HFTyp           .... RHF
 Total Charge           Charge          ....    0
 Multiplicity           Mult            ....    1
 Number of Electrons    NEL             ....  220
 Basis Dimension        Dim             ....  509
 Nuclear Repulsion      ENuc            ....   2799.6530104394 Eh

Convergence Acceleration:
 AO-DIIS                CNVDIIS         .... on
   Start iteration      DIISMaxIt       ....    12
   Startup error        DIISStart       ....  0.200000
   # of expansion vecs  DIISMaxEq       ....     5
   Bias factor          DIISBfac        ....   1.050
   Max. coefficient     DIISMaxC        ....  10.000
 MO-DIIS                CNVKDIIS        .... off
 Trust-Rad. Augm. Hess. CNVTRAH         .... auto
   Auto Start mean grad. ratio tolernc. ....  1.125000
   Auto Start start iteration           ....     1
   Auto Start num. interpolation iter.  ....    10
   Max. Number of Micro iterations      ....    24
   Max. Number of Macro iterations      .... Maxiter - #DIIS iter
   Number of Davidson start vectors     ....     2
   Converg. threshold    (grad. norm)   ....   1.000e-04
   Grad. Scal. Fac. for Micro threshold ....   0.100
   Minimum threshold for Micro iter.    ....   1.000e-02
   NR start threshold (gradient norm)   ....   1.000e-04
   Initial trust radius                 ....   0.400
   Minimum AH scaling param. (alpha)    ....   1.000
   Maximum AH scaling param. (alpha)    .... 1000.000
   Quad. conv. algorithm                .... NR
   White noise on init. David. guess    .... on
   Maximum white noise                  ....   0.010
   Pseudo random numbers                .... off
   Inactive MOs                         .... canonical
   Orbital update algorithm             .... Taylor
   Preconditioner                       .... Diag
   Full preconditioner red. dimension   ....   250
 SOSCF                  CNVSOSCF        .... off
 Level Shifting         CNVShift        .... on
   Level shift para.    LevelShift      ....    0.2500
   Turn off err/grad.   ShiftErr        ....    0.0010
 Zerner damping         CNVZerner       .... off
 Static damping         CNVDamp         .... on
   Fraction old density DampFac         ....    0.7000
   Max. Damping (<1)    DampMax         ....    0.9800
   Min. Damping (>=0)   DampMin         ....    0.0000
   Turn off err/grad.   DampErr         ....    0.1000

SCF Procedure:
 Maximum # iterations   MaxIter         ....   125
 SCF integral mode      SCFMode         .... Direct
   Integral package                     .... SHARK and LIBINT hybrid scheme
 Reset frequency        DirectResetFreq ....    20
 Integral Threshold     Thresh          ....  3.000e-11 Eh
 Primitive CutOff       TCut            ....  1.000e-12 Eh

Convergence Tolerance:
 Convergence Check Mode ConvCheckMode   .... Total+1el-Energy
 Convergence forced     ConvForced      .... 0
 Energy Change          TolE            ....  1.000e-07 Eh
 1-El. energy change                    ....  1.000e-04 Eh
 DIIS Error             TolErr          ....  1.000e-07

---------------------
INITIAL GUESS: MOREAD
---------------------
Guess MOs are being read from file: inpJ.ges
Input Geometry matches current geometry (good)
Input basis set matches current basis set (good)
Occupation numbers will be reassigned to an Aufbau configuration
MOs were renormalized
MOs were reorthogonalized (Cholesky)
                      ------------------
                      INITIAL GUESS DONE (   0.1 sec)
                      ------------------
             **** ENERGY FILE WAS UPDATED (inpJ.en.tmp) ****
Finished Guess after   0.2 sec
Maximum memory used throughout the entire GUESS-calculation: 36.9 MB


           ************************************************************
           *        Program running with 4 parallel MPI-processes     *
           *              working on a common directory               *
           ************************************************************

-------------------------------------------------------------------------------------------
                                      ORCA LEAN-SCF
                              memory conserving SCF solver
-------------------------------------------------------------------------------------------

--------------------
CPCM SOLVATION MODEL
--------------------
CPCM parameters:
  Epsilon                                         ...       4.8030
  Refrac                                          ...       1.4459
  Rsolv                                           ...       1.3000
  Surface type                                    ... GAUSSIAN VDW
  Discretization scheme                           ... Constant charge density
    Threshold for H atoms                         ...       5.0000 (charges/Ang^2)
    Threshold for non-H atoms                     ...       5.0000 (charges/Ang^2)
  Epsilon function type                           ...         CPCM
Solvent:                                          ... CHLOROFORM
Radii:
  Scheme                                          ... Element-dependent radii
  Radius for C  used is    3.8550 Bohr (=   2.0400 Ang.)
  Radius for H  used is    2.4944 Bohr (=   1.3200 Ang.)
  Radius for O  used is    3.4469 Bohr (=   1.8240 Ang.)
Calculating surface                               ...        done! (  0.0s)
Cavity surface points                             ...         5362
Cavity Volume                                     ...    3602.5199
Cavity Surface-area                               ...    1786.9323
Calculating surface distance matrix               ...        done! (  0.2s)
Performing Cholesky decomposition & store         ...        done! (  0.9s)
Overall time for CPCM initialization              ...                 1.1s

----------------------------------------D-I-I-S--------------------------------------------
Iteration    Energy (Eh)           Delta-E    RMSDP     MaxDP     DIISErr   Damp  Time(sec)
-------------------------------------------------------------------------------------------
               ***  Starting incremental Fock matrix formation  ***
    1    -1165.5100106643390063     0.00e+00  4.44e-08  5.31e-06  6.08e-06  0.700   6.1

  HOMO= 109 E= -6.018 eV LUMO=  5.940 eV gap=  11.958 eV
    2    -1165.5100106863878864    -2.20e-08  2.97e-08  3.18e-06  3.06e-06  0.700   2.0
                 **** Energy Check signals convergence ****

  HOMO= 109 E= -6.018 eV LUMO=  5.940 eV gap=  11.958 eV

               *****************************************************
               *                     SUCCESS                       *
               *           SCF CONVERGED AFTER   2 CYCLES          *
               *****************************************************

Recomputing exchange energy using gridx3       ... done (    8.343 sec)
Old exchange energy                            :    -42.067487439 Eh
New exchange energy                            :    -42.067540992 Eh
Exchange energy change after final integration :     -0.000053553 Eh
Total energy after final integration           :  -1165.510064240 Eh
             **** ENERGY FILE WAS UPDATED (inpJ.en.tmp) ****

----------------
TOTAL SCF ENERGY
----------------

Total Energy       :      -1165.51006423954527 Eh          -31715.14121 eV

Components:
Nuclear Repulsion  :       2799.65301043937461 Eh           76182.43145 eV
Electronic Energy  :      -3965.14915970714719 Eh         -107897.19402 eV
One Electron Energy:      -7141.05593884267000 Eh         -194318.01103 eV
Two Electron Energy:       3175.90677913552281 Eh           86420.81701 eV
CPCM Dielectric    :         -0.01386141861546 Eh              -0.37719 eV

Virial components:
Potential Energy   :      -2322.40540225658924 Eh          -63195.86381 eV
Kinetic Energy     :       1156.89533801704397 Eh           31480.72260 eV
Virial Ratio       :          2.00744641795970

DFT components:
N(Alpha)           :      110.000237451623 electrons
N(Beta)            :      110.000237451623 electrons
N(Total)           :      220.000474903247 electrons
E(X)               :     -125.745315760391 Eh       
E(C)               :       -7.328005602324 Eh       
E(XC)              :     -133.073321362714 Eh       

CPCM Solvation Model Properties:
Surface-charge          :         -0.03323257939225
Corrected charge        :          0.00000000000000
Outlying charge corr.   :          0.00003886955900 Eh               0.00106 eV
Free-energy (cav+disp)  :  This term is not implemented in the current solvation scheme

---------------
SCF CONVERGENCE
---------------

  Last Energy change         ...    2.2049e-08  Tolerance :   1.0000e-07
  Last MAX-Density change    ...    3.1753e-06  Tolerance :   1.0000e-05
  Last RMS-Density change    ...    2.9734e-08  Tolerance :   1.0000e-06
  Last DIIS Error            ...    3.0563e-06  Tolerance :   1.0000e-07


----------------
ORBITAL ENERGIES
----------------

  NO   OCC          E(Eh)            E(eV) 
   0   2.0000     -19.212457      -522.7975 
   1   2.0000     -10.300573      -280.2928 
   2   2.0000     -10.270556      -279.4760 
   3   2.0000     -10.268514      -279.4205 
   4   2.0000     -10.263896      -279.2948 
   5   2.0000     -10.257640      -279.1246 
   6   2.0000     -10.257250      -279.1140 
   7   2.0000     -10.252268      -278.9784 
   8   2.0000     -10.249526      -278.9038 
   9   2.0000     -10.248528      -278.8766 
  10   2.0000     -10.248180      -278.8672 
  11   2.0000     -10.247810      -278.8571 
  12   2.0000     -10.246189      -278.8130 
  13   2.0000     -10.245679      -278.7991 
  14   2.0000     -10.244872      -278.7771 
  15   2.0000     -10.244702      -278.7725 
  16   2.0000     -10.243085      -278.7285 
  17   2.0000     -10.242130      -278.7025 
  18   2.0000     -10.241835      -278.6945 
  19   2.0000     -10.241557      -278.6869 
  20   2.0000     -10.240158      -278.6489 
  21   2.0000     -10.234316      -278.4899 
  22   2.0000     -10.234109      -278.4843 
  23   2.0000     -10.233113      -278.4572 
  24   2.0000     -10.227328      -278.2998 
  25   2.0000     -10.225690      -278.2552 
  26   2.0000     -10.224812      -278.2313 
  27   2.0000     -10.224139      -278.2130 
  28   2.0000     -10.220889      -278.1245 
  29   2.0000      -1.043146       -28.3855 
  30   2.0000      -0.901786       -24.5388 
  31   2.0000      -0.882392       -24.0111 
  32   2.0000      -0.859802       -23.3964 
  33   2.0000      -0.845841       -23.0165 
  34   2.0000      -0.822753       -22.3882 
  35   2.0000      -0.814621       -22.1670 
  36   2.0000      -0.796093       -21.6628 
  37   2.0000      -0.795201       -21.6385 
  38   2.0000      -0.777478       -21.1563 
  39   2.0000      -0.758357       -20.6359 
  40   2.0000      -0.740606       -20.1529 
  41   2.0000      -0.734298       -19.9813 
  42   2.0000      -0.715459       -19.4686 
  43   2.0000      -0.703451       -19.1419 
  44   2.0000      -0.703052       -19.1310 
  45   2.0000      -0.696262       -18.9462 
  46   2.0000      -0.670739       -18.2517 
  47   2.0000      -0.662655       -18.0317 
  48   2.0000      -0.632567       -17.2130 
  49   2.0000      -0.622417       -16.9368 
  50   2.0000      -0.612891       -16.6776 
  51   2.0000      -0.607804       -16.5392 
  52   2.0000      -0.596816       -16.2402 
  53   2.0000      -0.580024       -15.7832 
  54   2.0000      -0.562235       -15.2992 
  55   2.0000      -0.543069       -14.7776 
  56   2.0000      -0.539755       -14.6875 
  57   2.0000      -0.529551       -14.4098 
  58   2.0000      -0.515433       -14.0257 
  59   2.0000      -0.509593       -13.8667 
  60   2.0000      -0.502252       -13.6670 
  61   2.0000      -0.492398       -13.3988 
  62   2.0000      -0.482289       -13.1238 
  63   2.0000      -0.480671       -13.0797 
  64   2.0000      -0.478009       -13.0073 
  65   2.0000      -0.469549       -12.7771 
  66   2.0000      -0.464971       -12.6525 
  67   2.0000      -0.459264       -12.4972 
  68   2.0000      -0.456297       -12.4165 
  69   2.0000      -0.453229       -12.3330 
  70   2.0000      -0.450658       -12.2630 
  71   2.0000      -0.443226       -12.0608 
  72   2.0000      -0.436427       -11.8758 
  73   2.0000      -0.432960       -11.7814 
  74   2.0000      -0.427401       -11.6302 
  75   2.0000      -0.421860       -11.4794 
  76   2.0000      -0.415784       -11.3141 
  77   2.0000      -0.413933       -11.2637 
  78   2.0000      -0.410283       -11.1644 
  79   2.0000      -0.403819       -10.9885 
  80   2.0000      -0.402667       -10.9571 
  81   2.0000      -0.398206       -10.8357 
  82   2.0000      -0.396202       -10.7812 
  83   2.0000      -0.391358       -10.6494 
  84   2.0000      -0.385395       -10.4871 
  85   2.0000      -0.382346       -10.4042 
  86   2.0000      -0.377524       -10.2730 
  87   2.0000      -0.375253       -10.2111 
  88   2.0000      -0.373207       -10.1555 
  89   2.0000      -0.363538        -9.8924 
  90   2.0000      -0.361068        -9.8252 
  91   2.0000      -0.359260        -9.7760 
  92   2.0000      -0.355733        -9.6800 
  93   2.0000      -0.345751        -9.4084 
  94   2.0000      -0.340969        -9.2782 
  95   2.0000      -0.339140        -9.2285 
  96   2.0000      -0.333740        -9.0815 
  97   2.0000      -0.331832        -9.0296 
  98   2.0000      -0.331500        -9.0206 
  99   2.0000      -0.328950        -8.9512 
 100   2.0000      -0.327391        -8.9088 
 101   2.0000      -0.324615        -8.8332 
 102   2.0000      -0.319352        -8.6900 
 103   2.0000      -0.316249        -8.6056 
 104   2.0000      -0.310659        -8.4535 
 105   2.0000      -0.300946        -8.1891 
 106   2.0000      -0.276574        -7.5260 
 107   2.0000      -0.275115        -7.4863 
 108   2.0000      -0.256997        -6.9932 
 109   2.0000      -0.221174        -6.0184 
 110   0.0000      -0.031716        -0.8630 
 111   0.0000       0.019204         0.5226 
 112   0.0000       0.026056         0.7090 
 113   0.0000       0.079073         2.1517 
 114   0.0000       0.087660         2.3854 
 115   0.0000       0.101096         2.7510 
 116   0.0000       0.103415         2.8141 
 117   0.0000       0.107658         2.9295 
 118   0.0000       0.110999         3.0204 
 119   0.0000       0.112212         3.0534 
 120   0.0000       0.118112         3.2140 
*Only the first 10 virtual orbitals were printed.

                    ********************************
                    * MULLIKEN POPULATION ANALYSIS *
                    ********************************

-----------------------
MULLIKEN ATOMIC CHARGES
-----------------------
   0 C :    0.077998
   1 C :   -0.500925
   2 C :   -0.073970
   3 H :    0.223074
   4 H :    0.220001
   5 C :    0.138471
   6 C :   -0.479502
   7 C :   -0.439872
   8 H :    0.225269
   9 H :    0.207425
  10 H :    0.208758
  11 H :    0.227933
  12 O :   -0.488251
  13 H :    0.247190
  14 C :   -0.280199
  15 C :   -0.513778
  16 H :    0.201092
  17 H :    0.196918
  18 C :   -0.259145
  19 H :    0.219971
  20 C :    0.152716
  21 H :    0.220461
  22 C :   -0.479812
  23 C :   -0.427948
  24 H :    0.211700
  25 H :    0.207066
  26 C :   -0.396931
  27 H :    0.208728
  28 H :    0.217529
  29 C :    0.003846
  30 H :    0.223119
  31 H :    0.194557
  32 C :   -0.229798
  33 H :    0.227781
  34 C :   -0.432814
  35 H :    0.341103
  36 C :   -0.423957
  37 H :    0.207843
  38 H :    0.198171
  39 C :   -0.198415
  40 H :    0.213709
  41 H :    0.205487
  42 H :    0.209984
  43 C :   -0.241439
  44 C :   -0.630199
  45 H :    0.205402
  46 H :    0.209473
  47 H :    0.202193
  48 H :    0.220223
  49 C :   -0.620414
  50 C :   -0.178474
  51 C :   -0.180544
  52 H :    0.210236
  53 H :    0.216394
  54 C :   -0.241252
  55 C :   -0.627277
  56 C :   -0.197056
  57 H :    0.222472
  58 H :    0.220542
  59 C :   -0.612363
  60 C :   -0.623016
  61 H :    0.198011
  62 H :    0.208487
  63 H :    0.203131
  64 H :    0.200691
  65 H :    0.198004
  66 H :    0.204331
  67 H :    0.209541
  68 H :    0.203459
  69 H :    0.197603
  70 H :    0.208662
  71 H :    0.195924
  72 H :    0.204671
Sum of atomic charges:    0.0000000

--------------------------------
MULLIKEN REDUCED ORBITAL CHARGES
--------------------------------
  0 C s       :     3.354309  s :     3.354309
      pz      :     0.985728  p :     2.567693
      px      :     0.807335
      py      :     0.774630

  1 C s       :     3.378014  s :     3.378014
      pz      :     1.151858  p :     3.122912
      px      :     0.872266
      py      :     1.098788

  2 C s       :     3.312651  s :     3.312651
      pz      :     0.702864  p :     2.761319
      px      :     1.135169
      py      :     0.923286

  3 H s       :     0.776926  s :     0.776926

  4 H s       :     0.779999  s :     0.779999

  5 C s       :     3.341271  s :     3.341271
      pz      :     0.878611  p :     2.520258
      px      :     0.867429
      py      :     0.774217

  6 C s       :     3.367260  s :     3.367260
      pz      :     1.150410  p :     3.112242
      px      :     0.884470
      py      :     1.077362

  7 C s       :     3.338572  s :     3.338572
      pz      :     1.167063  p :     3.101301
      px      :     0.974210
      py      :     0.960028

  8 H s       :     0.774731  s :     0.774731

  9 H s       :     0.792575  s :     0.792575

 10 H s       :     0.791242  s :     0.791242

 11 H s       :     0.772067  s :     0.772067

 12 O s       :     3.685057  s :     3.685057
      pz      :     1.430602  p :     4.803194
      px      :     1.456578
      py      :     1.916014

 13 H s       :     0.752810  s :     0.752810

 14 C s       :     3.394143  s :     3.394143
      pz      :     0.979981  p :     2.886056
      px      :     0.817791
      py      :     1.088284

 15 C s       :     3.385000  s :     3.385000
      pz      :     0.983455  p :     3.128778
      px      :     0.998440
      py      :     1.146883

 16 H s       :     0.798908  s :     0.798908

 17 H s       :     0.803082  s :     0.803082

 18 C s       :     3.396630  s :     3.396630
      pz      :     1.011846  p :     2.862515
      px      :     0.757659
      py      :     1.093010

 19 H s       :     0.780029  s :     0.780029

 20 C s       :     3.351689  s :     3.351689
      pz      :     0.934540  p :     2.495595
      px      :     0.758337
      py      :     0.802718

 21 H s       :     0.779539  s :     0.779539

 22 C s       :     3.372896  s :     3.372896
      pz      :     1.120946  p :     3.106916
      px      :     1.100684
      py      :     0.885286

 23 C s       :     3.327577  s :     3.327577
      pz      :     1.118091  p :     3.100371
      px      :     0.886011
      py      :     1.096270

 24 H s       :     0.788300  s :     0.788300

 25 H s       :     0.792934  s :     0.792934

 26 C s       :     3.349667  s :     3.349667
      pz      :     1.163682  p :     3.047264
      px      :     0.974440
      py      :     0.909142

 27 H s       :     0.791272  s :     0.791272

 28 H s       :     0.782471  s :     0.782471

 29 C s       :     3.317630  s :     3.317630
      pz      :     0.873572  p :     2.678524
      px      :     0.904681
      py      :     0.900271

 30 H s       :     0.776881  s :     0.776881

 31 H s       :     0.805443  s :     0.805443

 32 C s       :     3.362387  s :     3.362387
      pz      :     1.099409  p :     2.867411
      px      :     0.865070
      py      :     0.902932

 33 H s       :     0.772219  s :     0.772219

 34 C s       :     3.344005  s :     3.344005
      pz      :     1.186679  p :     3.088809
      px      :     0.940993
      py      :     0.961136

 35 H s       :     0.658897  s :     0.658897

 36 C s       :     3.338456  s :     3.338456
      pz      :     1.183792  p :     3.085501
      px      :     0.924441
      py      :     0.977267

 37 H s       :     0.792157  s :     0.792157

 38 H s       :     0.801829  s :     0.801829

 39 C s       :     3.342305  s :     3.342305
      pz      :     1.086368  p :     2.856110
      px      :     0.861596
      py      :     0.908145

 40 H s       :     0.786291  s :     0.786291

 41 H s       :     0.794513  s :     0.794513

 42 H s       :     0.790016  s :     0.790016

 43 C s       :     3.348183  s :     3.348183
      pz      :     1.071404  p :     2.893256
      px      :     0.882826
      py      :     0.939026

 44 C s       :     3.366196  s :     3.366196
      pz      :     0.945193  p :     3.264003
      px      :     1.163786
      py      :     1.155024

 45 H s       :     0.794598  s :     0.794598

 46 H s       :     0.790527  s :     0.790527

 47 H s       :     0.797807  s :     0.797807

 48 H s       :     0.779777  s :     0.779777

 49 C s       :     3.348396  s :     3.348396
      pz      :     1.159087  p :     3.272018
      px      :     1.148415
      py      :     0.964515

 50 C s       :     3.341553  s :     3.341553
      pz      :     0.888208  p :     2.836920
      px      :     0.982891
      py      :     0.965822

 51 C s       :     3.342773  s :     3.342773
      pz      :     0.891544  p :     2.837771
      px      :     0.971095
      py      :     0.975132

 52 H s       :     0.789764  s :     0.789764

 53 H s       :     0.783606  s :     0.783606

 54 C s       :     3.338388  s :     3.338388
      pz      :     1.028258  p :     2.902864
      px      :     0.992512
      py      :     0.882094

 55 C s       :     3.346462  s :     3.346462
      pz      :     1.045044  p :     3.280815
      px      :     1.130360
      py      :     1.105411

 56 C s       :     3.311733  s :     3.311733
      pz      :     1.037921  p :     2.885323
      px      :     0.926954
      py      :     0.920447

 57 H s       :     0.777528  s :     0.777528

 58 H s       :     0.779458  s :     0.779458

 59 C s       :     3.341508  s :     3.341508
      pz      :     1.155345  p :     3.270855
      px      :     1.005218
      py      :     1.110292

 60 C s       :     3.344618  s :     3.344618
      pz      :     1.032752  p :     3.278398
      px      :     1.082790
      py      :     1.162856

 61 H s       :     0.801989  s :     0.801989

 62 H s       :     0.791513  s :     0.791513

 63 H s       :     0.796869  s :     0.796869

 64 H s       :     0.799309  s :     0.799309

 65 H s       :     0.801996  s :     0.801996

 66 H s       :     0.795669  s :     0.795669

 67 H s       :     0.790459  s :     0.790459

 68 H s       :     0.796541  s :     0.796541

 69 H s       :     0.802397  s :     0.802397

 70 H s       :     0.791338  s :     0.791338

 71 H s       :     0.804076  s :     0.804076

 72 H s       :     0.795329  s :     0.795329


------------------------
MULLIKEN OVERLAP CHARGES
------------------------
B(  0-C ,  1-C ) :   0.5245 B(  0-C ,  2-C ) :  -0.1804 B(  0-C ,  3-H ) :  -0.0794 
B(  0-C ,  4-H ) :  -0.0863 B(  0-C ,  5-C ) :   0.4158 B(  0-C ,  6-C ) :  -0.1419 
B(  0-C , 14-C ) :   0.9502 B(  0-C , 15-C ) :  -0.2022 B(  0-C , 18-C ) :  -0.1865 
B(  0-C , 19-H ) :  -0.0750 B(  1-C ,  2-C ) :   0.5267 B(  1-C ,  3-H ) :   0.8092 
B(  1-C ,  4-H ) :   0.7735 B(  1-C ,  5-C ) :  -0.1411 B(  1-C ,  7-C ) :  -0.1577 
B(  1-C , 12-O ) :  -0.1098 B(  1-C , 13-H ) :  -0.0572 B(  1-C , 14-C ) :  -0.1137 
B(  2-C ,  3-H ) :  -0.0589 B(  2-C ,  4-H ) :  -0.0537 B(  2-C ,  6-C ) :  -0.1582 
B(  2-C ,  7-C ) :   0.5150 B(  2-C , 10-H ) :  -0.0626 B(  2-C , 11-H ) :  -0.0697 
B(  2-C , 12-O ) :   0.6963 B(  2-C , 13-H ) :   0.8216 B(  2-C , 35-H ) :  -0.1152 
B(  5-C ,  6-C ) :   0.5305 B(  5-C ,  7-C ) :  -0.1579 B(  5-C ,  8-H ) :  -0.0730 
B(  5-C ,  9-H ) :  -0.0938 B(  5-C , 14-C ) :  -0.1989 B(  5-C , 15-C ) :   1.0624 
B(  5-C , 16-H ) :  -0.0995 B(  5-C , 17-H ) :  -0.0951 B(  6-C ,  7-C ) :   0.5526 
B(  6-C ,  8-H ) :   0.8229 B(  6-C ,  9-H ) :   0.7935 B(  6-C , 10-H ) :  -0.0741 
B(  6-C , 11-H ) :  -0.0560 B(  6-C , 15-C ) :  -0.1299 B(  7-C ,  9-H ) :  -0.0780 
B(  7-C , 10-H ) :   0.7762 B(  7-C , 11-H ) :   0.8045 B(  7-C , 12-O ) :  -0.1078 
B(  7-C , 13-H ) :  -0.0829 B( 12-O , 35-H ) :   0.6664 B( 14-C , 18-C ) :   0.6117 
B( 14-C , 19-H ) :   0.8213 B( 14-C , 20-C ) :  -0.1940 B( 14-C , 21-H ) :  -0.0742 
B( 15-C , 16-H ) :   0.8136 B( 15-C , 17-H ) :   0.8065 B( 18-C , 19-H ) :  -0.0600 
B( 18-C , 20-C ) :   0.9200 B( 18-C , 21-H ) :   0.8330 B( 18-C , 22-C ) :  -0.1506 
B( 18-C , 32-C ) :  -0.1497 B( 20-C , 21-H ) :  -0.0831 B( 20-C , 22-C ) :   0.5328 
B( 20-C , 23-C ) :  -0.1715 B( 20-C , 24-H ) :  -0.0675 B( 20-C , 25-H ) :  -0.0922 
B( 20-C , 29-C ) :  -0.1242 B( 20-C , 32-C ) :   0.5177 B( 20-C , 33-H ) :  -0.0921 
[...]
        0.0000         1.5764        0.0000
        0.0000         0.0000        1.5764

 Diagonalized JT*J matrix:
 
 J[55,60](FC)             1.576            1.576            1.576  iso=      1.576
                ---------------  ---------------  ---------------  ---------------
 J[55,60](Total)          1.576            1.576            1.576  iso=      1.576



-----------------------------------------------------------
 NUCLEUS A = C   56 NUCLEUS B = C   59 
 ( 13C  gnA =  1.405  13C  gnB =  1.405) r(AB) =     1.5310
-----------------------------------------------------------

Fermi-contact contribution to J (Hz):
       26.1894         0.0000        0.0000
        0.0000        26.1894        0.0000
        0.0000         0.0000       26.1894

Total spin-spin coupling tensor J (Hz):
       26.1894         0.0000        0.0000
        0.0000        26.1894        0.0000
        0.0000         0.0000       26.1894

 Diagonalized JT*J matrix:
 
 J[56,59](FC)            26.189           26.189           26.189  iso=     26.189
                ---------------  ---------------  ---------------  ---------------
 J[56,59](Total)         26.189           26.189           26.189  iso=     26.189



-----------------------------------------------------------
 NUCLEUS A = C   56 NUCLEUS B = C   60 
 ( 13C  gnA =  1.405  13C  gnB =  1.405) r(AB) =     1.5310
-----------------------------------------------------------

Fermi-contact contribution to J (Hz):
       26.1589         0.0000        0.0000
        0.0000        26.1589        0.0000
        0.0000         0.0000       26.1589

Total spin-spin coupling tensor J (Hz):
       26.1589         0.0000        0.0000
        0.0000        26.1589        0.0000
        0.0000         0.0000       26.1589

 Diagonalized JT*J matrix:
 
 J[56,60](FC)            26.159           26.159           26.159  iso=     26.159
                ---------------  ---------------  ---------------  ---------------
 J[56,60](Total)         26.159           26.159           26.159  iso=     26.159



-----------------------------------------------------------
 NUCLEUS A = C   59 NUCLEUS B = C   60 
 ( 13C  gnA =  1.405  13C  gnB =  1.405) r(AB) =     2.5131
-----------------------------------------------------------

Fermi-contact contribution to J (Hz):
       -0.8203         0.0000        0.0000
        0.0000        -0.8203        0.0000
        0.0000         0.0000       -0.8203

Total spin-spin coupling tensor J (Hz):
       -0.8203         0.0000        0.0000
        0.0000        -0.8203        0.0000
        0.0000         0.0000       -0.8203

 Diagonalized JT*J matrix:
 
 J[59,60](FC)            -0.820           -0.820           -0.820  iso=     -0.820
                ---------------  ---------------  ---------------  ---------------
 J[59,60](Total)         -0.820           -0.820           -0.820  iso=     -0.820



-----------------------------------------------------------------------------
                SUMMARY OF ISOTROPIC COUPLING CONSTANTS J (Hz)                
-----------------------------------------------------------------------------
                  0 C        1 C        2 C        5 C        6 C        7 C  
      0 C        0.000     33.176     -3.790     41.290     -0.913      2.279
      1 C       33.176      0.000     23.412     -1.232      1.444     -0.692
      2 C       -3.790     23.412      0.000      2.288     -2.801     26.024
      5 C       41.290     -1.232      2.288      0.000     30.451     -2.802
      6 C       -0.913      1.444     -2.801     30.451      0.000     24.858
      7 C        2.279     -0.692     26.024     -2.802     24.858      0.000
     14 C       69.348     -0.401      2.835     -3.005      2.171     -0.623
     15 C       -3.414      2.414     -0.869     64.634     -1.096      2.599
     18 C       -2.382      4.168     -1.109      3.204     -0.819      0.193
     20 C        6.822     -1.103      1.097     -1.376      0.608     -0.103
     22 C       -0.924      0.327     -0.332      0.422     -0.181      0.038
     23 C        0.809     -0.282      0.278     -0.334      0.150      0.000
     26 C       -0.089      0.038      0.000      0.047      0.000      0.000
     29 C        1.140     -0.357      0.000     -0.436      0.202      0.000
     32 C       -1.127      0.547     -0.379      0.472     -0.215      0.045
     34 C        0.020     -0.014      0.013     -0.014      0.005     -0.001
     36 C       -0.015      0.000      0.000      0.016     -0.008      0.000
     39 C       -0.071      0.000      0.000      0.031      0.000      0.000
     43 C        0.000      0.000      0.000      0.000      0.000      0.000
     44 C        0.012     -0.004      0.000     -0.004     -0.002      0.000
     49 C        0.000      0.000      0.000      0.000      0.000      0.000
     50 C        0.000      0.000      0.000      0.000      0.000      0.000
     51 C        0.000      0.000      0.000      0.000      0.000      0.000
     54 C        0.000      0.000      0.000      0.000      0.000      0.000
     55 C        0.000      0.000      0.000      0.000      0.000      0.000
     56 C        0.000      0.000      0.000      0.000      0.000      0.000
     59 C        0.000      0.000      0.000      0.000      0.000      0.000
     60 C        0.000      0.000      0.000      0.000      0.000      0.000
                 14 C       15 C       18 C       20 C       22 C       23 C  
      0 C       69.348     -3.414     -2.382      6.822     -0.924      0.809
      1 C       -0.401      2.414      4.168     -1.103      0.327     -0.282
      2 C        2.835     -0.869     -1.109      1.097     -0.332      0.278
      5 C       -3.005     64.634      3.204     -1.376      0.422     -0.334
      6 C        2.171     -1.096     -0.819      0.608     -0.181      0.150
      7 C       -0.623      2.599      0.193     -0.103      0.038      0.000
     14 C        0.000      3.108     54.048     -2.650      3.779     -0.900
     15 C        3.108      0.000     -1.136      1.010     -0.271      0.248
     18 C       54.048     -1.136      0.000     69.926     -2.163      2.360
     20 C       -2.650      1.010     69.926      0.000     32.128     -2.931
     22 C        3.779     -0.271     -2.163     32.128      0.000     24.366
     23 C       -0.900      0.248      2.360     -2.931     24.366      0.000
     26 C        0.132     -0.032     -0.351      1.042     -1.942     25.468
     29 C       -1.096      0.318      2.278     -2.398      1.072     -2.215
     32 C        4.386     -0.316     -1.287     36.975     -0.270      1.539
     34 C        0.077      0.003      2.475     -1.334      1.586     -0.264
     36 C        0.016     -0.014     -0.148      3.551      0.058      0.166
     39 C        0.260     -0.023     -0.037      2.942     -0.336      2.555
     43 C        0.008      0.017      0.283      0.179      0.002     -0.112
     44 C        0.003      0.027     -0.049      0.691     -0.139      0.611
     49 C       -0.001      0.000     -0.010     -0.034      0.140      0.038
     50 C        0.000      0.000      0.029      0.146     -0.009      0.137
     51 C        0.000      0.000     -0.006      0.041     -0.002     -0.007
     54 C        0.000      0.000      0.000      0.000      0.000      0.000
     55 C        0.000      0.000      0.000      0.000      0.000      0.000
     56 C        0.000      0.000      0.000      0.000      0.000      0.000
     59 C        0.000      0.000      0.000      0.000      0.000      0.000
     60 C        0.000      0.000      0.000      0.001      0.000      0.000
                 26 C       29 C       32 C       34 C       36 C       39 C  
      0 C       -0.089      1.140     -1.127      0.020     -0.015     -0.071
      1 C        0.038     -0.357      0.547     -0.014      0.000      0.000
      2 C        0.000      0.000     -0.379      0.013      0.000      0.000
      5 C        0.047     -0.436      0.472     -0.014      0.016      0.031
      6 C        0.000      0.202     -0.215      0.005     -0.008      0.000
      7 C        0.000      0.000      0.045     -0.001      0.000      0.000
     14 C        0.132     -1.096      4.386      0.077      0.016      0.260
     15 C       -0.032      0.318     -0.316      0.003     -0.014     -0.023
     18 C       -0.351      2.278     -1.287      2.475     -0.148     -0.037
     20 C        1.042     -2.398     36.975     -1.334      3.551      2.942
     22 C       -1.942      1.072     -0.270      1.586      0.058     -0.336
     23 C       25.468     -2.215      1.539     -0.264      0.166      2.555
     26 C        0.000     27.904     -0.941      2.304      3.031     -0.593
     29 C       27.904      0.000     23.246      0.993      0.525     29.001
     32 C       -0.941     23.246      0.000     27.919      1.345      3.529
     34 C        2.304      0.993     27.919      0.000     25.785      0.039
     36 C        3.031      0.525      1.345     25.785      0.000     26.347
     39 C       -0.593     29.001      3.529      0.039     26.347      0.000
     43 C       -0.011     -0.696      2.736      1.625      0.212     30.479
     44 C       -0.557     27.226     -0.930      0.860      0.254     -1.237
     49 C        0.366      0.226      0.001     -0.006      3.161     -1.043
     50 C       -0.091      3.331      0.015     -0.057      0.559     -1.640
     51 C        0.017     -0.100      0.039      0.004      0.079      2.077
     54 C        0.003      0.024     -0.002     -0.001      0.038     -0.172
     55 C        0.001     -0.022      0.003      0.001     -0.039      0.040
     56 C        0.000     -0.010     -0.000     -0.003     -0.050      0.075
     59 C        0.000      0.000      0.000     -0.001     -0.003      0.003
     60 C       -0.000      0.001      0.004     -0.001      0.019     -0.004
                 43 C       44 C       49 C       50 C       51 C       54 C  
      0 C        0.000      0.012      0.000      0.000      0.000      0.000
      1 C        0.000     -0.004      0.000      0.000      0.000      0.000
      2 C        0.000      0.000      0.000      0.000      0.000      0.000
      5 C        0.000     -0.004      0.000      0.000      0.000      0.000
      6 C        0.000     -0.002      0.000      0.000      0.000      0.000
      7 C        0.000      0.000      0.000      0.000      0.000      0.000
     14 C        0.008      0.003     -0.001      0.000      0.000      0.000
     15 C        0.017      0.027      0.000      0.000      0.000      0.000
     18 C        0.283     -0.049     -0.010      0.029     -0.006      0.000
     20 C        0.179      0.691     -0.034      0.146      0.041      0.000
     22 C        0.002     -0.139      0.140     -0.009     -0.002      0.000
     23 C       -0.112      0.611      0.038      0.137     -0.007      0.000
     26 C       -0.011     -0.557      0.366     -0.091      0.017      0.003
     29 C       -0.696     27.226      0.226      3.331     -0.100      0.024
     32 C        2.736     -0.930      0.001      0.015      0.039     -0.002
     34 C        1.625      0.860     -0.006     -0.057      0.004     -0.001
     36 C        0.212      0.254      3.161      0.559      0.079      0.038
     39 C       30.479     -1.237     -1.043     -1.640      2.077     -0.172
     43 C        0.000      1.494     24.969     35.361     -1.702      3.820
     44 C        1.494      0.000     -0.079     -0.154      0.131      0.021
     49 C       24.969     -0.079      0.000     -3.407      3.457     -1.019
     50 C       35.361     -0.154     -3.407      0.000     68.393     -0.303
     51 C       -1.702      0.131      3.457     68.393      0.000     36.686
     54 C        3.820      0.021     -1.019     -0.303     36.686      0.000
     55 C       -0.499      0.015      1.178      3.705     -1.993     26.158
     56 C       -0.723      0.026      1.439      3.078     -2.371     25.568
     59 C        0.056      0.000      0.079     -0.018      3.041     -0.450
     60 C        0.019     -0.002     -0.037     -0.103      0.993     -1.602
                 55 C       56 C       59 C       60 C  
      0 C        0.000      0.000      0.000      0.000
      1 C        0.000      0.000      0.000      0.000
      2 C        0.000      0.000      0.000      0.000
      5 C        0.000      0.000      0.000      0.000
      6 C        0.000      0.000      0.000      0.000
      7 C        0.000      0.000      0.000      0.000
     14 C        0.000      0.000      0.000      0.000
     15 C        0.000      0.000      0.000      0.000
     18 C        0.000      0.000      0.000      0.000
     20 C        0.000      0.000      0.000      0.001
     22 C        0.000      0.000      0.000      0.000
     23 C        0.000      0.000      0.000      0.000
     26 C        0.001      0.000      0.000     -0.000
     29 C       -0.022     -0.010      0.000      0.001
     32 C        0.003     -0.000      0.000      0.004
     34 C        0.001     -0.003     -0.001     -0.001
     36 C       -0.039     -0.050     -0.003      0.019
     39 C        0.040      0.075      0.003     -0.004
     43 C       -0.499     -0.723      0.056      0.019
     44 C        0.015      0.026      0.000     -0.002
     49 C        1.178      1.439      0.079     -0.037
     50 C        3.705      3.078     -0.018     -0.103
     51 C       -1.993     -2.371      3.041      0.993
     54 C       26.158     25.568     -0.450     -1.602
     55 C        0.000     -1.910      0.773      1.576
     56 C       -1.910      0.000     26.189     26.159
     59 C        0.773     26.189      0.000     -0.820
     60 C        1.576     26.159     -0.820      0.000

NMR spin-spin coupling calculation done in   0.3 sec 

Maximum memory used throughout the entire PROP-calculation: 34.4 MB

--------------------------------
SUGGESTED CITATIONS FOR THIS RUN
--------------------------------

Below you find a list of papers that are relevant to this ORCA run
We neither can nor want to force you to cite these papers, but we appreciate if you do
You receive ORCA, which is the product of decades of hard work by many enthusiastic individuals, for free
The only thing we kindly ask in return is that you cite our papers,
We deeply appreciate it, if you show your appreciation for ORCA by not just citing the generic ORCA reference.

Please note that relegating all ORCA citations to the supporting information does *not* help us.
SI sections are not indexed - citations you put there will not count into any citation statistics
But we need these citations in order to attract the funding resources that allow us to do what we are doing

Therefore, if you are a happy ORCA user, please consider citing a few of the papers listed below in the main body of your paper

In addition to the list printed below, the program has created the file inpJ.bibtex that contains the list in bibtex format
You can import this file easily into all common literature databanks and citation aid programs


List of essential papers. We consider these as the minimum necessary citations

  1. Neese,F.
     Software update: the ORCA program system, version 5.0
     WIRES Comput. Molec. Sci., 2022 12(1)e1606
     doi.org/10.1002/wcms.1606

List of papers to cite with high priority. The work reported in these papers was absolutely
necessary for this run to complete.
Our perspective: the developers of density functionals and basis sets usually get cited in chemistry papers
Good! But without the algorithms to do something with them, the functionals or basis sets would not do anything.
Hence, in our opinion, the algorithm design and method developments papers are equally worthy of getting cited

  1. Neese,F.
     An improvement of the resolution of the identity approximation for the formation of the Coulomb matrix
     J. Comp. Chem., 2003 24(14)1740-1747
     doi.org/10.1002/jcc.10318
  2. Neese,F.; Wennmohs,F.; Hansen,A.; Becker,U.
     Efficient, approximate and parallel Hartree-Fock and hybrid DFT calculations. A 'chain-of-spheres' algorithm for the Hartree-Fock exchange
     Chem. Phys., 2009 356(1-3)98-109
     doi.org/10.1016/j.chemphys.2008.10.036
  3. Stoychev,G.L.; Auer,A.A.; Izsak,R.; Neese,F.
     Self-Consistent Field Calculation of Nuclear Magnetic Resonance Chemical Shielding Constants Using Gauge-Including Atomic Orbitals and Approximate Two-Electron Integrals
     J. Chem. Theory Comput., 2018 14(2)619-637
     doi.org/10.1021/acs.jctc.7b01006
  4. Garcia-Rates,M.; Neese,F.
     Effect of the Solute Cavity on the Solvation Energy and its Derivatives within the Framework of the Gaussian Charge Scheme
     J. Comput. Chem., 2020 41 922-939
     doi.org/10.1002/jcc.26139
  5. Helmich-Paris,B.; de Souza,B.; Neese,F.; Izsák,R.
     An improved chain of spheres for exchange algorithm
     J. Chem. Phys., 2021 155 104109
     doi.org/doi: 10.1063/5.0058766.
  6. Neese,F.
     The SHARK Integral Generation and Digestion System
     J. Comp. Chem., 2022  1-16
     doi.org/10.1002/jcc.26942
  7. Grimme,S.; Bannwarth,C.; Dohm,S.; Hansen,A.; Pisarek,J.; Pracht,P.; Seibert,J.; Neese,F.
     Fully Automated Quantum-Chemistry-Based Computation of Spin-Spin-Coupled Nuclear Magnetic Resonance Spectra
     Angew. Chem., Int. Ed., 2017 56 14763-14769
     doi.org/10.1002/anie.201708266
  8. Caldeweyher,E.; Bannwarth,C.; Grimme,S.
     Extension of the D3 dispersion coefficient model
     J. Chem. Phys., 2017 147 034112-XXXX
     doi.org/10.1063/1.4993215
  9. Caldeweyher,E.; Ehlert,S.; Hansen,A.; Neugebauer,H.; Spicher,S.; Bannwarth,C.; Grimme,S.
     A generally applicable atomic-charge dependent London dispersion correction
     J. Chem. Phys., 2019 150 154122-XXXX
     doi.org/10.1063/1.5090222
 10. Caldeweyher,E.; Mewes,J.; Ehlert,S.; Grimme,S.
     Extension and evaluation of the D4 London-dispersion model for periodic systems
     Phys. Chem. Chem. Phys., 2020 22(16)8499-8512
     doi.org/10.1039/D0CP00502A

List of suggested additional citations. These are papers that are important in the 'surrounding' of 
of this run, or papers that preceded the highly important papers. If you like your results we are grateful for a citation.

  1. Izsak,R.; Neese,F.
     An overlap fitted chain of spheres exchange method
     J. Chem. Phys., 2011 135 144105
     doi.org/10.1063/1.3646921
  2. Izsak,R.; Hansen,A.; Neese,F.
     The resolution of identity and chain of spheres approximations for the LPNO-CCSD singles Fock term
     Molec. Phys., 2012 110 2413-2417
     doi.org/10.1080/00268976.2012.687466
  3. Neese,F.
     The ORCA program system
     WIRES Comput. Molec. Sci., 2012 2(1)73-78
     doi.org/10.1002/wcms.81
  4. Izsak,R.; Neese,F.; Klopper,W.
     Robust fitting techniques in the chain of spheres approximation to the Fock exchange: The role of the complementary space
     J. Chem. Phys., 2013 139 
     doi.org/10.1063/1.4819264
  5. Neese,F.
     Software update: the ORCA program system, version 4.0
     WIRES Comput. Molec. Sci., 2018 8(1)1-6
     doi.org/10.1002/wcms.1327
  6. Neese,F.; Wennmohs,F.; Becker,U.; Riplinger,C.
     The ORCA quantum chemistry program package
     J. Chem. Phys., 2020 152 Art. No. L224108
     doi.org/10.1063/5.0004608

Timings for individual modules:

Sum of individual times          ...      133.851 sec (=   2.231 min)
Startup calculation              ...        3.772 sec (=   0.063 min)   2.8 %
SCF iterations                   ...       18.827 sec (=   0.314 min)  14.1 %
Property integrals               ...        0.804 sec (=   0.013 min)   0.6 %
SCF Response                     ...      109.935 sec (=   1.832 min)  82.1 %
Property calculations            ...        0.513 sec (=   0.009 min)   0.4 %
                             ****ORCA TERMINATED NORMALLY****
TOTAL RUN TIME: 0 days 0 hours 2 minutes 14 seconds 169 msec
