
                                 *****************
                                 * O   R   C   A *
                                 *****************

                                            #,                                       
                                            ###                                      
                                            ####                                     
                                            #####                                    
                                            ######                                   
                                           ########,                                 
                                     ,,################,,,,,                         
                               ,,#################################,,                 
                          ,,##########################################,,             
                       ,#########################################, ''#####,          
                    ,#############################################,,   '####,        
                  ,##################################################,,,,####,       
                ,###########''''           ''''###############################       
              ,#####''   ,,,,##########,,,,          '''####'''          '####       
            ,##' ,,,,###########################,,,                        '##       
           ' ,,###''''                  '''############,,,                           
         ,,##''                                '''############,,,,        ,,,,,,###''
      ,#''                                            '''#######################'''  
     '                                                          ''''####''''         
             ,#######,   #######,   ,#######,      ##                                
            ,#'     '#,  ##    ##  ,#'     '#,    #''#        ,####,   ,####,        
            ##       ##  ##   ,#'  ##            #'  '#       #'       #'  '#        
            ##       ##  #######   ##           ,######,      #####,   #    #        
            '#,     ,#'  ##    ##  '#,     ,#' ,#      #,     #,   #   #,  ,#        
             '#######'   ##     ##  '#######'  #'      '#     '####' # '####'        



                #########################################################
                #                        -***-                          #
                #          Department of theory and spectroscopy        #
                #                                                       #
                #                      Frank Neese                      #
                #                                                       #
                #     Directorship, Architecture, Infrastructure        #
                #                    SHARK, DRIVERS                     #
                #        Core code/Algorithms in most modules           #
                #                                                       #
                #        Max Planck Institute fuer Kohlenforschung      #
                #                Kaiser Wilhelm Platz 1                 #
                #                 D-45470 Muelheim/Ruhr                 #
                #                      Germany                          #
                #                                                       #
                #                  All rights reserved                  #
                #                        -***-                          #
                #########################################################


                         Program Version 6.0.0  -   RELEASE  -


 With contributions from (in alphabetic order):
   Daniel Aravena         : Magnetic Suceptibility
   Michael Atanasov       : Ab Initio Ligand Field Theory (pilot matlab implementation)
   Alexander A. Auer      : GIAO ZORA, VPT2 properties, NMR spectrum
   Ute Becker             : All parallelization in ORCA, NUMFREQ, NUMCALC
   Giovanni Bistoni       : ED, misc. LED, open-shell LED, HFLD
   Martin Brehm           : Molecular dynamics
   Dmytro Bykov           : pre 5.0 version of the SCF Hessian
   Marcos Casanova-Páez   : Triplet and SCS-CIS(D). UHF-(DLPNO)-IP/EA/STEOM-CCSD. UHF-CVS-IP/STEOM-CCSD
   Vijay G. Chilkuri      : MRCI spin determinant printing, contributions to CSF-ICE
   Pauline Colinet        : FMM embedding
   Dipayan Datta          : RHF DLPNO-CCSD density
   Achintya Kumar Dutta   : EOM-CC, STEOM-CC
   Nicolas Foglia         : Exact transition moments, OPA infrastructure, MCD improvements
   Dmitry Ganyushin       : Spin-Orbit,Spin-Spin,Magnetic field MRCI
   Miquel Garcia          : C-PCM and meta-GGA Hessian, CCSD/C-PCM, Gaussian charge scheme
   Tiago L. C. Gouveia    : GS-ROHF, GS-ROCIS
   Yang Guo               : DLPNO-NEVPT2, F12-NEVPT2, CIM, IAO-localization
   Andreas Hansen         : Spin unrestricted coupled pair/coupled cluster methods
   Ingolf Harden          : AUTO-CI MPn and infrastructure 
   Benjamin Helmich-Paris : MC-RPA, TRAH-(SCF,CASSCF), AVAS, COSX integrals, SCF dyn. polar.
   Lee Huntington         : MR-EOM, pCC
   Robert Izsak           : Overlap fitted RIJCOSX, COSX-SCS-MP3, EOM
   Riya Kayal             : Wick's Theorem for AUTO-CI, AUTO-CI UHF-CCSDT
   Emily Kempfer          : AUTO-CI, RHF CISDT and CCSDT
   Christian Kollmar      : KDIIS, OOCD, Brueckner-CCSD(T), CCSD density, CASPT2, CASPT2-K, improved NEVPT2
   Axel Koslowski         : Symmetry handling
   Simone Kossmann        : Meta GGA functionals, TD-DFT gradient, OOMP2, (MP2 Hessian; deprecated post 5.0)
   Lucas Lang             : DCDCAS
   Marvin Lechner         : AUTO-CI (C++ implementation), FIC-MRCC
   Spencer Leger          : CASSCF response
   Dagmar Lenk            : GEPOL surface, SMD, ORCA-2-JSON
   Dimitrios Liakos       : Extrapolation schemes; Compound Job, initial MDCI parallelization
   Dimitrios Manganas     : Further ROCIS development; embedding schemes. LFT, Crystal Embedding
   Dimitrios Pantazis     : SARC Basis sets
   Anastasios Papadopoulos: AUTO-CI, single reference methods and gradients
   Taras Petrenko         : pre 6.0 DFT Hessian and TD-DFT gradient, (ASA, deprecated), ECA, 1-Electron XAS/XES, NRVS
   Peter Pinski           : DLPNO-MP2, DLPNO-MP2 Gradient
   Christoph Reimann      : Effective Core Potentials
   Marius Retegan         : Local ZFS, SOC
   Christoph Riplinger    : Optimizer, TS searches, QM/MM, DLPNO-CCSD(T), (RO)-DLPNO pert. Triples
   Michael Roemelt        : Original ROCIS implementation
   Masaaki Saitow         : Open-shell DLPNO-CCSD energy and density
   Barbara Sandhoefer     : DKH picture change effects
   Kantharuban Sivalingam : CASSCF convergence/infrastructure, NEVPT2 and variants, FIC-MRCI
   Bernardo de Souza      : ESD, SOC TD-DFT
   Georgi Stoychev        : AutoAux, RI-MP2 NMR, DLPNO-MP2 response, X2C
   Van Anh Tran           : RI-MP2 g-tensors
   Willem Van den Heuvel  : Paramagnetic NMR
   Zikuan Wang            : NOTCH, Electric field optimization 
   Frank Wennmohs         : Technical directorship and infrastructure
   Hang Xu                : AUTO-CI-Response properties 


 We gratefully acknowledge several colleagues who have allowed us to
 interface, adapt or use parts of their codes:
   Stefan Grimme, W. Hujo, H. Kruse, P. Pracht,  : VdW corrections, initial TS optimization,
                  C. Bannwarth, S. Ehlert,         DFT functionals, gCP, sTDA/sTD-DF
                  L. Wittmann, M. Mueller
   Ed Valeev, F. Pavosevic, A. Kumar             : LibInt (2-el integral package), F12 methods
   Garnet Chan, S. Sharma, J. Yang, R. Olivares  : DMRG
   Ulf Ekstrom                                   : XCFun DFT Library
   Mihaly Kallay                                 : mrcc  (arbitrary order and MRCC methods)
   Frank Weinhold                                : gennbo (NPA and NBO analysis)
   Simon Mueller                                 : openCOSMO-RS
   Christopher J. Cramer and Donald G. Truhlar   : smd solvation model
   Lars Goerigk                                  : TD-DFT with DH, B97 family of functionals
   V. Asgeirsson, H. Jonsson                     : NEB implementation
   FAccTs GmbH                                   : IRC, NEB, NEB-TS, DLPNO-Multilevel, CI-OPT
                                                   MM, QMMM, 2- and 3-layer-ONIOM, Crystal-QMMM,
                                                   LR-CPCM, SF, NACMEs, symmetry and pop. for TD-DFT,
                                                   nearIR, NL-DFT gradient (VV10), updates on ESD,
                                                   ML-optimized integration grids, MBIS, APM,
                                                   GOAT, DOCKER, SOLVATOR, interface openCOSMO-RS
   S Lehtola, MJT Oliveira, MAL Marques          : LibXC Library
   Liviu Ungur et al                             : ANISO software


 Your calculation uses the libint2 library for the computation of 2-el integrals
 For citations please refer to: http://libint.valeyev.net

 Your ORCA version has been built with support for libXC version: 6.2.2
 For citations please refer to: https://libxc.gitlab.io

 This ORCA versions uses:
   CBLAS   interface :  Fast vector & matrix operations
   LAPACKE interface :  Fast linear algebra routines
   SCALAPACK package :  Parallel linear algebra routines
   Shared memory     :  Shared parallel matrices
   BLAS/LAPACK       :  OpenBLAS 0.3.27  USE64BITINT DYNAMIC_ARCH NO_AFFINITY Zen SINGLE_THREADED
        Core in use  :  Zen
   Copyright (c) 2011-2014, The OpenBLAS Project


NOTE: MaxCore=8000 MB was set to SCF,MP2,MDCI,CIPSI,MRCI and CIS
      => If you want to overwrite this, your respective input block should be placed after the MaxCore statement
Your calculation utilizes the atom-pairwise dispersion correction
based on EEQ partial charges (D4)


================================================================================

----- Orbital basis set information -----
Your calculation utilizes the basis: def2-SVP
   F. Weigend and R. Ahlrichs, Phys. Chem. Chem. Phys. 7, 3297 (2005).

----- AuxJ basis set information -----
Your calculation utilizes the auxiliary basis: def2/J
   F. Weigend, Phys. Chem. Chem. Phys. 8, 1057 (2006).

================================================================================
                                        WARNINGS
                       Please study these warnings very carefully!
================================================================================

WARNING: Old DensityContainer found on disk!
         Will remove this file - 
         If you want to keep old densities, please start your calculation with a different basename. 


================================================================================
                                       INPUT FILE
================================================================================
NAME = inpS
|  1> ! wb97x-d4
|  2> ! def2-svp
|  3> ! def2/J RIJCOSX
|  4> ! DEFGRID2
|  5> ! scfconv7
|  6> ! smallprint printgap noloewdin
|  7> ! NOSOSCF
|  8> %MaxCore 8000
|  9> %output
| 10>        print[P_BondOrder_M] 1
| 11>        print[P_Mayer] 1
| 12>        print[P_basis] 2
| 13> end
| 14> %pal
| 15>     nprocs 4
| 16> end
| 17> ! CPCM(chloroform)
| 18> *xyz 0 1
| 19> C   -5.0207103100   0.3046406100   0.3236680900
| 20> C   -6.4269711900  -0.1326767100  -0.0126531700
| 21> C   -6.9809103000   0.6197688000  -1.2286278200
| 22> H   -7.0925836500   0.0886533000   0.8389792000
| 23> H   -6.4636488800  -1.2126048900  -0.1933154700
| 24> C   -4.8502562000   1.7693149100   0.4295897600
| 25> C   -5.4493190900   2.5535336700  -0.7160046400
| 26> C   -6.8946984500   2.1251919700  -1.0039005900
| 27> H   -4.8459679100   2.3670002900  -1.6174300600
| 28> H   -5.3994948200   3.6272111200  -0.5062850600
| 29> H   -7.2787039100   2.6529852000  -1.8848114900
| 30> H   -7.5357458700   2.3910182000  -0.1498069500
| 31> O   -8.3182050900   0.2015715300  -1.5321683400
| 32> H   -6.3922335000   0.3490338100  -2.1163258700
| 33> C   -4.0252771400  -0.6029624300   0.4616803500
| 34> C   -4.2577914400   2.3679662700   1.4692100100
| 35> H   -3.8557481900   1.7935483000   2.2990732000
| 36> H   -4.1725525900   3.4510216600   1.5164662600
| 37> C   -2.6274838700  -0.3171397200   0.6871449900
| 38> H   -4.3101325900  -1.6482703700   0.3501422600
| 39> C   -1.6485310600  -1.2225970200   0.9003643400
| 40> H   -2.3476412200   0.7337347800   0.6704684900
| 41> C   -1.8371166700  -2.7149949500   1.0042625300
| 42> C   -0.8926951400  -3.4797030100   0.0576963200
| 43> H   -2.8719961700  -3.0167735300   0.8209262700
| 44> H   -1.5996842300  -3.0120378800   2.0384648500
| 45> C    0.5706208000  -3.0380055100   0.1980769500
| 46> H   -1.2263571000  -3.3324269600  -0.9772174700
| 47> H   -0.9729311700  -4.5547076100   0.2606586600
| 48> C    0.7265030400  -1.5199007600   0.0336615900
| 49> H    1.1780342400  -3.5827449100  -0.5321909600
| 50> H    0.9395056500  -3.3192660800   1.1960536700
| 51> C   -0.2118896000  -0.8372057600   1.0787820000
| 52> H    0.1039198100  -1.2608403900   2.0502913100
| 53> C    0.2190085900   0.6264777200   1.0676243000
| 54> H   -8.8733564600   0.4279343100  -0.7739776600
| 55> C    1.7510356200   0.5516188800   0.8538709300
| 56> H   -0.0580487500   1.1449763500   1.9915852300
| 57> H   -0.2572810900   1.1645586200   0.2403592900
| 58> C    2.0900013000  -0.9221397500   0.4781153100
| 59> H    2.3045150200   0.8581047300   1.7470912400
| 60> H    2.0680223900   1.2255077400   0.0491366300
| 61> H    2.3789823000  -1.4604637100   1.3957277100
| 62> C    3.2893335800  -0.9973476500  -0.4879916800
| 63> C    0.3738804500  -1.0799021500  -1.3933897400
| 64> H   -0.6891741900  -1.2285213400  -1.6065931400
| 65> H    0.9492271100  -1.6535829000  -2.1284672800
| 66> H    0.5939145700  -0.0197648500  -1.5539800600
| 67> H    3.0342776400  -0.4392096500  -1.4011182000
| 68> C    3.6711469700  -2.4330646700  -0.8794597000
| 69> C    4.4809298900  -0.3275656500   0.1434034100
| 70> C    5.1388984800   0.7139602300  -0.3614837400
| 71> H    4.8237912000  -0.7646807300   1.0867305900
| 72> H    4.7950002200   1.1494047900  -1.3053562900
| 73> C    6.3246847400   1.3887491100   0.2696697100
| 74> C    5.9409096300   2.8287072900   0.6476902900
| 75> C    7.5574954400   1.3381917600  -0.6664346500
| 76> H    6.5836927700   0.8419383300   1.1905915900
| 77> H    7.2757196500   1.8459357400  -1.6032832400
| 78> C    7.9359580000  -0.1080476900  -0.9965249900
| 79> C    8.7642221000   2.0672756000  -0.0683424200
| 80> H    5.0199123100   2.8341044300   1.2398910600
| 81> H    5.7665577900   3.4294723400  -0.2538796500
| 82> H    6.7227450300   3.3172999100   1.2365021800
| 83> H    8.7978784400  -0.1403041800  -1.6719965900
| 84> H    7.1078559400  -0.6449534400  -1.4689602600
| 85> H    8.2054783000  -0.6493454700  -0.0800834900
| 86> H    9.0086195400   1.6557666300   0.9196227000
| 87> H    8.5889769800   3.1408322400   0.0448965100
| 88> H    9.6434753600   1.9405464900  -0.7095310600
| 89> H    4.6035660700  -2.4327916900  -1.4542582100
| 90> H    2.8991978000  -2.9046256700  -1.4928215200
| 91> H    3.8231473200  -3.0522019800   0.0131575500
| 92> *
| 93> %eprnmr
| 94>  Nuclei = all C { shift }
| 95>  origin giao
| 96>  giao_2el giao_2el_same_as_scf
| 97>  giao_1el giao_1el_analytic
| 98> end
| 99> 
|100>                          ****END OF INPUT****
================================================================================

                       ****************************
                       * Single Point Calculation *
                       ****************************

---------------------------------
CARTESIAN COORDINATES (ANGSTROEM)
---------------------------------
  C     -5.020710    0.304641    0.323668
  C     -6.426971   -0.132677   -0.012653
  C     -6.980910    0.619769   -1.228628
  H     -7.092584    0.088653    0.838979
  H     -6.463649   -1.212605   -0.193315
  C     -4.850256    1.769315    0.429590
  C     -5.449319    2.553534   -0.716005
  C     -6.894698    2.125192   -1.003901
  H     -4.845968    2.367000   -1.617430
  H     -5.399495    3.627211   -0.506285
  H     -7.278704    2.652985   -1.884811
  H     -7.535746    2.391018   -0.149807
  O     -8.318205    0.201572   -1.532168
  H     -6.392233    0.349034   -2.116326
  C     -4.025277   -0.602962    0.461680
  C     -4.257791    2.367966    1.469210
  H     -3.855748    1.793548    2.299073
  H     -4.172553    3.451022    1.516466
  C     -2.627484   -0.317140    0.687145
  H     -4.310133   -1.648270    0.350142
  C     -1.648531   -1.222597    0.900364
  H     -2.347641    0.733735    0.670468
  C     -1.837117   -2.714995    1.004263
  C     -0.892695   -3.479703    0.057696
  H     -2.871996   -3.016774    0.820926
  H     -1.599684   -3.012038    2.038465
  C      0.570621   -3.038006    0.198077
  H     -1.226357   -3.332427   -0.977217
  H     -0.972931   -4.554708    0.260659
  C      0.726503   -1.519901    0.033662
  H      1.178034   -3.582745   -0.532191
  H      0.939506   -3.319266    1.196054
  C     -0.211890   -0.837206    1.078782
  H      0.103920   -1.260840    2.050291
  C      0.219009    0.626478    1.067624
  H     -8.873356    0.427934   -0.773978
  C      1.751036    0.551619    0.853871
  H     -0.058049    1.144976    1.991585
  H     -0.257281    1.164559    0.240359
  C      2.090001   -0.922140    0.478115
  H      2.304515    0.858105    1.747091
  H      2.068022    1.225508    0.049137
  H      2.378982   -1.460464    1.395728
  C      3.289334   -0.997348   -0.487992
  C      0.373880   -1.079902   -1.393390
  H     -0.689174   -1.228521   -1.606593
  H      0.949227   -1.653583   -2.128467
  H      0.593915   -0.019765   -1.553980
  H      3.034278   -0.439210   -1.401118
  C      3.671147   -2.433065   -0.879460
  C      4.480930   -0.327566    0.143403
  C      5.138898    0.713960   -0.361484
  H      4.823791   -0.764681    1.086731
  H      4.795000    1.149405   -1.305356
  C      6.324685    1.388749    0.269670
  C      5.940910    2.828707    0.647690
  C      7.557495    1.338192   -0.666435
  H      6.583693    0.841938    1.190592
  H      7.275720    1.845936   -1.603283
  C      7.935958   -0.108048   -0.996525
  C      8.764222    2.067276   -0.068342
  H      5.019912    2.834104    1.239891
  H      5.766558    3.429472   -0.253880
  H      6.722745    3.317300    1.236502
  H      8.797878   -0.140304   -1.671997
  H      7.107856   -0.644953   -1.468960
  H      8.205478   -0.649345   -0.080083
  H      9.008620    1.655767    0.919623
  H      8.588977    3.140832    0.044897
  H      9.643475    1.940546   -0.709531
  H      4.603566   -2.432792   -1.454258
  H      2.899198   -2.904626   -1.492822
  H      3.823147   -3.052202    0.013158

----------------------------
CARTESIAN COORDINATES (A.U.)
----------------------------
  NO LB      ZA    FRAG     MASS         X           Y           Z
   0 C     6.0000    0    12.011   -9.487767    0.575687    0.611644
   1 C     6.0000    0    12.011  -12.145215   -0.250723   -0.023911
   2 C     6.0000    0    12.011  -13.192009    1.171193   -2.321770
   3 H     1.0000    0     1.008  -13.403041    0.167530    1.585441
   4 H     1.0000    0     1.008  -12.214526   -2.291491   -0.365313
   5 C     6.0000    0    12.011   -9.165656    3.343521    0.811807
   6 C     6.0000    0    12.011  -10.297721    4.825479   -1.353053
   7 C     6.0000    0    12.011  -13.029092    4.016031   -1.897097
   8 H     1.0000    0     1.008   -9.157552    4.472982   -3.056500
   9 H     1.0000    0     1.008  -10.203566    6.854436   -0.956740
  10 H     1.0000    0     1.008  -13.754757    5.013415   -3.561778
  11 H     1.0000    0     1.008  -14.240496    4.518370   -0.283094
  12 O     8.0000    0    15.999  -15.719130    0.380915   -2.895379
  13 H     1.0000    0     1.008  -12.079571    0.659578   -3.999276
  14 C     6.0000    0    12.011   -7.606671   -1.139434    0.872449
  15 C     6.0000    0    12.011   -8.046060    4.474808    2.776405
  16 H     1.0000    0     1.008   -7.286308    3.389315    4.344619
  17 H     1.0000    0     1.008   -7.884982    6.521486    2.865706
  18 C     6.0000    0    12.011   -4.965225   -0.599307    1.298516
  19 H     1.0000    0     1.008   -8.144970   -3.114780    0.661673
  20 C     6.0000    0    12.011   -3.115272   -2.310374    1.701442
  21 H     1.0000    0     1.008   -4.436399    1.386558    1.267002
  22 C     6.0000    0    12.011   -3.471647   -5.130597    1.897781
  23 C     6.0000    0    12.011   -1.686949   -6.575686    0.109030
  24 H     1.0000    0     1.008   -5.427286   -5.700876    1.551326
  25 H     1.0000    0     1.008   -3.022965   -5.691927    3.852140
  26 C     6.0000    0    12.011    1.078317   -5.740998    0.374311
  27 H     1.0000    0     1.008   -2.317479   -6.297374   -1.846673
  28 H     1.0000    0     1.008   -1.838573   -8.607150    0.492573
  29 C     6.0000    0    12.011    1.372892   -2.872196    0.063611
  30 H     1.0000    0     1.008    2.226162   -6.770407   -1.005695
  31 H     1.0000    0     1.008    1.775408   -6.272504    2.260214
  32 C     6.0000    0    12.011   -0.400413   -1.582090    2.038603
  33 H     1.0000    0     1.008    0.196380   -2.382643    3.874489
  34 C     6.0000    0    12.011    0.413866    1.183871    2.017518
  35 H     1.0000    0     1.008  -16.768214    0.808679   -1.462606
  36 C     6.0000    0    12.011    3.308978    1.042409    1.613582
  37 H     1.0000    0     1.008   -0.109696    2.163692    3.763551
  38 H     1.0000    0     1.008   -0.486191    2.200697    0.454213
  39 C     6.0000    0    12.011    3.949530   -1.742592    0.903507
  40 H     1.0000    0     1.008    4.354902    1.621583    3.301524
  41 H     1.0000    0     1.008    3.907996    2.315874    0.092855
  42 H     1.0000    0     1.008    4.495625   -2.759876    2.637543
  43 C     6.0000    0    12.011    6.215940   -1.884714   -0.922171
  44 C     6.0000    0    12.011    0.706532   -2.040719   -2.633125
  45 H     1.0000    0     1.008   -1.302350   -2.321569   -3.036021
  46 H     1.0000    0     1.008    1.793779   -3.124819   -4.022220
  47 H     1.0000    0     1.008    1.122336   -0.037350   -2.936597
  48 H     1.0000    0     1.008    5.733954   -0.829986   -2.647730
  49 C     6.0000    0    12.011    6.937462   -4.597826   -1.661938
  50 C     6.0000    0    12.011    8.467730   -0.619009    0.270993
  51 C     6.0000    0    12.011    9.711111    1.349189   -0.683105
  52 H     1.0000    0     1.008    9.115644   -1.445037    2.053623
  53 H     1.0000    0     1.008    9.061237    2.172060   -2.466766
  54 C     6.0000    0    12.011   11.951922    2.624355    0.509602
  55 C     6.0000    0    12.011   11.226692    5.345482    1.223957
  56 C     6.0000    0    12.011   14.281597    2.528816   -1.259379
  57 H     1.0000    0     1.008   12.441376    1.591033    2.249892
  58 H     1.0000    0     1.008   13.749118    3.488313   -3.029766
  59 C     6.0000    0    12.011   14.996787   -0.204181   -1.883159
  60 C     6.0000    0    12.011   16.561980    3.906585   -0.129148
  61 H     1.0000    0     1.008    9.486259    5.355681    2.343055
  62 H     1.0000    0     1.008   10.897215    6.480764   -0.479763
  63 H     1.0000    0     1.008   12.704147    6.268788    2.336650
  64 H     1.0000    0     1.008   16.625581   -0.265136   -3.159616
  65 H     1.0000    0     1.008   13.431901   -1.218785   -2.775933
  66 H     1.0000    0     1.008   15.506107   -1.227085   -0.151336
  67 H     1.0000    0     1.008   17.023824    3.128945    1.737835
  68 H     1.0000    0     1.008   16.230814    5.935313    0.084842
  69 H     1.0000    0     1.008   18.223527    3.667101   -1.340819
  70 H     1.0000    0     1.008    8.699479   -4.597310   -2.748150
  71 H     1.0000    0     1.008    5.478690   -5.488947   -2.821024
  72 H     1.0000    0     1.008    7.224701   -5.767826    0.024864

--------------------------------
INTERNAL COORDINATES (ANGSTROEM)
--------------------------------
 C      0   0   0     0.000000000000     0.00000000     0.00000000
 C      1   0   0     1.510605206835     0.00000000     0.00000000
 C      2   1   0     1.533498331447   111.76287202     0.00000000
 H      2   1   3     1.103315283074   109.37109983   241.45376024
 H      2   1   3     1.095549630799   110.68629056   122.88888503
 C      1   2   3     1.478358822773   114.21145422    50.41736885
 C      6   1   2     1.512039000496   114.44903301   312.14407649
 C      3   2   1     1.524543778236   110.31657811   305.04063025
 H      7   6   1     1.100633970075   108.38679477   289.89269984
 H      7   6   1     1.095101833966   110.20512969   172.69696033
 H      8   3   2     1.096371242181   109.70139893   179.13298433
 H      8   3   2     1.100491401663   108.66198905   296.58108851
 O      3   2   1     1.433660754599   111.20473155   180.35135358
 H      3   2   1     1.099020308112   109.03304520    65.18954736
 C      1   2   3     1.354133618984   120.86294251   232.52581474
 C      6   1   2     1.337986624328   123.36778454   129.95752567
 H     16   6   1     1.086401257937   121.38745666     0.63562800
 H     16   6   1     1.087431741546   120.93743258   181.32968816
 C     15   1   2     1.444422012813   126.48816441   175.34921275
 H     15   1   2     1.089151992305   116.14019372   357.98690865
 C     19  15   1     1.350431048793   126.40468897   175.94832499
 H     19  15   1     1.087624580984   115.96307220   355.25016505
 C     21  19  15     1.507849776222   125.72097100   357.16147096
 C     23  21  19     1.540356463053   111.85977193   127.90557231
 H     23  21  19     1.093461510570   112.33195604     3.77321085
 H     23  21  19     1.101899770633   107.73008072   246.58192402
 C     24  23  21     1.534958287070   112.67132469    50.80048242
 H     24  23  21     1.097299909408   109.05692963   288.70802972
 H     24  23  21     1.096935012656   109.14594561   172.74669426
 C     27  24  23     1.534918146132   111.81601895   306.21829418
 H     27  24  23     1.094980968502   108.94641688   182.69661003
 H     27  24  23     1.100518547985   109.20436692    66.19939191
 C     21  19  15     1.498098117373   122.78561043   177.81721440
 H     33  21  19     1.105907872563   106.25594835   123.97057549
 C     33  21  19     1.525833239263   121.11257847     1.77862401
 H     13   3   2     0.966584843157   107.53861638    62.63567197
 C     35  33  21     1.548677232274   103.53307245   196.31168569
 H     35  33  21     1.095128028646   112.12075695    74.27855971
 H     35  33  21     1.095787530039   110.72095820   314.69778320
 C     30  27  24     1.553700369866   116.04024178   166.28321788
 H     37  35  33     1.094584644818   111.96558755   249.35548842
 H     37  35  33     1.096450683608   110.95209598   130.76949861
 H     40  30  27     1.102413362086   106.27702326   320.81889514
 C     40  30  27     1.541887434996   118.98677357    81.59534433
 C     30  27  24     1.534410950898   111.09381445   294.22228357
 H     45  30  27     1.094362152595   111.43721949    66.69098055
 H     45  30  27     1.095660701087   110.67940660   306.54478300
 H     45  30  27     1.094575424397   111.59137362   186.68787414
 H     44  40  30     1.100168896625   108.35934318    61.32743281
 C     44  40  30     1.536330705605   113.48739452   300.52416170
 C     44  40  30     1.505712274376   109.33705045   178.58348198
 C     51  44  40     1.331393953108   125.45479355   239.35493740
 H     51  44  40     1.094755515896   115.56717250    60.45509412
 H     52  51  44     1.094885093838   118.86900885     1.09276626
 C     52  51  44     1.503257717234   125.57471006   179.69339327
 C     55  52  51     1.537420714739   109.07206895   244.90788961
 C     55  52  51     1.548763907277   111.06749305   120.73731395
 H     55  52  51     1.101900312093   108.27375769     2.84254959
 H     57  55  52     1.102219046125   107.16996967    59.10020119
 C     57  55  52     1.530948101217   110.97338553   300.95927546
 C     57  55  52     1.531491688939   112.06232537   177.78016115
 H     56  55  52     1.094973490344   110.33803514    51.82187047
 H     56  55  52     1.097335667025   110.51280980   292.52022508
 H     56  55  52     1.093932714026   111.85532773   171.98075321
 H     60  57  55     1.095540601002   110.80843674   179.06011495
 H     60  57  55     1.094173610767   111.68761924    58.16093512
 H     60  57  55     1.097956967129   110.26989870   298.42984135
 H     61  57  55     1.097790881455   110.39095477    56.03120051
 H     61  57  55     1.093644259638   112.42626099   295.25277034
 H     61  57  55     1.095568087618   110.41018191   175.05234288
 H     50  44  40     1.095353267061   110.18392996   187.52725145
 H     50  44  40     1.092926356173   111.75725718    67.61160846
 H     50  44  40     1.096905041483   110.76658816   306.98149842

---------------------------
INTERNAL COORDINATES (A.U.)
---------------------------
 C      0   0   0     0.000000000000     0.00000000     0.00000000
 C      1   0   0     2.854630137394     0.00000000     0.00000000
 C      2   1   0     2.897891873259   111.76287202     0.00000000
 H      2   1   3     2.084963724381   109.37109983   241.45376024
 H      2   1   3     2.070288768328   110.68629056   122.88888503
 C      1   2   3     2.793693302708   114.21145422    50.41736885
 C      6   1   2     2.857339614746   114.44903301   312.14407649
 C      3   2   1     2.880970220039   110.31657811   305.04063025
 H      7   6   1     2.079896777133   108.38679477   289.89269984
 H      7   6   1     2.069442554950   110.20512969   172.69696033
 H      8   3   2     2.071841388830   109.70139893   179.13298433
 H      8   3   2     2.079627361877   108.66198905   296.58108851
 O      3   2   1     2.709226195144   111.20473155   180.35135358
 H      3   2   1     2.076847397949   109.03304520    65.18954736
 C      1   2   3     2.558941688616   120.86294251   232.52581474
 C      6   1   2     2.528428290830   123.36778454   129.95752567
 H     16   6   1     2.053000849048   121.38745666     0.63562800
 H     16   6   1     2.054948180855   120.93743258   181.32968816
 C     15   1   2     2.729562026024   126.48816441   175.34921275
 H     15   1   2     2.058198983672   116.14019372   357.98690865
 C     19  15   1     2.551944844963   126.40468897   175.94832499
 H     19  15   1     2.055312594581   115.96307220   355.25016505
 C     21  19  15     2.849423128154   125.72097100   357.16147096
 C     23  21  19     2.910851863786   111.85977193   127.90557231
 H     23  21  19     2.066342792961   112.33195604     3.77321085
 H     23  21  19     2.082288793527   107.73008072   246.58192402
 C     24  23  21     2.900650789554   112.67132469    50.80048242
 H     24  23  21     2.073596315558   109.05692963   288.70802972
 H     24  23  21     2.072906760628   109.14594561   172.74669426
 C     27  24  23     2.900574934175   111.81601895   306.21829418
 H     27  24  23     2.069214152324   108.94641688   182.69661003
 H     27  24  23     2.079678660992   109.20436692    66.19939191
 C     21  19  15     2.830995163577   122.78561043   177.81721440
 H     33  21  19     2.089863008491   106.25594835   123.97057549
 C     33  21  19     2.883406948241   121.11257847     1.77862401
 H     13   3   2     1.826580638766   107.53861638    62.63567197
 C     35  33  21     2.926575838837   103.53307245   196.31168569
 H     35  33  21     2.069492055722   112.12075695    74.27855971
 H     35  33  21     2.070738332740   110.72095820   314.69778320
 C     30  27  24     2.936068193218   116.04024178   166.28321788
 H     37  35  33     2.068465209101   111.96558755   249.35548842
 H     37  35  33     2.071991511369   110.95209598   130.76949861
 H     40  30  27     2.083259340717   106.27702326   320.81889514
 C     40  30  27     2.913744981477   118.98677357    81.59534433
 C     30  27  24     2.899616474086   111.09381445   294.22228357
 H     45  30  27     2.068044759734   111.43721949    66.69098055
 H     45  30  27     2.070498660754   110.67940660   306.54478300
 H     45  30  27     2.068447785030   111.59137362   186.68787414
 H     44  40  30     2.079017915679   108.35934318    61.32743281
 C     44  40  30     2.903244284727   113.48739452   300.52416170
 C     44  40  30     2.845383835054   109.33705045   178.58348198
 C     51  44  40     2.515969947732   125.45479355   239.35493740
 H     51  44  40     2.068788108643   115.56717250    60.45509412
 H     52  51  44     2.069032975466   118.86900885     1.09276626
 C     52  51  44     2.840745394276   125.57471006   179.69339327
 C     55  52  51     2.905304103474   109.07206895   244.90788961
 C     55  52  51     2.926739630856   111.06749305   120.73731395
 H     55  52  51     2.082289816739   108.27375769     2.84254959
 H     57  55  52     2.082892136769   107.16996967    59.10020119
 C     57  55  52     2.893072636547   110.97338553   300.95927546
 C     57  55  52     2.894099868472   112.06232537   177.78016115
 H     56  55  52     2.069200020654   110.33803514    51.82187047
 H     56  55  52     2.073663887660   110.51280980   292.52022508
 H     56  55  52     2.067233238447   111.85532773   171.98075321
 H     60  57  55     2.070271704485   110.80843674   179.06011495
 H     60  57  55     2.067688467314   111.68761924    58.16093512
 H     60  57  55     2.074837974705   110.26989870   298.42984135
 H     61  57  55     2.074524118266   110.39095477    56.03120051
 H     61  57  55     2.066688138651   112.42626099   295.25277034
 H     61  57  55     2.070323646662   110.41018191   175.05234288
 H     50  44  40     2.069917694641   110.18392996   187.52725145
 H     50  44  40     2.065331497712   111.75725718    67.61160846
 H     50  44  40     2.072850123321   110.76658816   306.98149842

---------------------
BASIS SET INFORMATION
---------------------
There are 3 groups of distinct atoms

 Group   1 Type C   : 7s4p1d contracted to 3s2p1d pattern {511/31/1}
 Group   2 Type H   : 4s1p contracted to 2s1p pattern {31/1}
 Group   3 Type O   : 7s4p1d contracted to 3s2p1d pattern {511/31/1}

Atom   0C    basis set group =>   1
Atom   1C    basis set group =>   1
Atom   2C    basis set group =>   1
Atom   3H    basis set group =>   2
Atom   4H    basis set group =>   2
Atom   5C    basis set group =>   1
Atom   6C    basis set group =>   1
Atom   7C    basis set group =>   1
Atom   8H    basis set group =>   2
Atom   9H    basis set group =>   2
Atom  10H    basis set group =>   2
Atom  11H    basis set group =>   2
Atom  12O    basis set group =>   3
Atom  13H    basis set group =>   2
Atom  14C    basis set group =>   1
Atom  15C    basis set group =>   1
Atom  16H    basis set group =>   2
Atom  17H    basis set group =>   2
Atom  18C    basis set group =>   1
Atom  19H    basis set group =>   2
Atom  20C    basis set group =>   1
Atom  21H    basis set group =>   2
Atom  22C    basis set group =>   1
Atom  23C    basis set group =>   1
Atom  24H    basis set group =>   2
Atom  25H    basis set group =>   2
Atom  26C    basis set group =>   1
Atom  27H    basis set group =>   2
Atom  28H    basis set group =>   2
Atom  29C    basis set group =>   1
Atom  30H    basis set group =>   2
Atom  31H    basis set group =>   2
Atom  32C    basis set group =>   1
Atom  33H    basis set group =>   2
Atom  34C    basis set group =>   1
Atom  35H    basis set group =>   2
Atom  36C    basis set group =>   1
Atom  37H    basis set group =>   2
Atom  38H    basis set group =>   2
Atom  39C    basis set group =>   1
Atom  40H    basis set group =>   2
Atom  41H    basis set group =>   2
Atom  42H    basis set group =>   2
Atom  43C    basis set group =>   1
Atom  44C    basis set group =>   1
Atom  45H    basis set group =>   2
Atom  46H    basis set group =>   2
Atom  47H    basis set group =>   2
Atom  48H    basis set group =>   2
Atom  49C    basis set group =>   1
Atom  50C    basis set group =>   1
Atom  51C    basis set group =>   1
Atom  52H    basis set group =>   2
Atom  53H    basis set group =>   2
Atom  54C    basis set group =>   1
Atom  55C    basis set group =>   1
Atom  56C    basis set group =>   1
Atom  57H    basis set group =>   2
Atom  58H    basis set group =>   2
Atom  59C    basis set group =>   1
Atom  60C    basis set group =>   1
Atom  61H    basis set group =>   2
Atom  62H    basis set group =>   2
Atom  63H    basis set group =>   2
Atom  64H    basis set group =>   2
Atom  65H    basis set group =>   2
Atom  66H    basis set group =>   2
Atom  67H    basis set group =>   2
Atom  68H    basis set group =>   2
Atom  69H    basis set group =>   2
Atom  70H    basis set group =>   2
Atom  71H    basis set group =>   2
Atom  72H    basis set group =>   2

-------------------------
BASIS SET IN INPUT FORMAT
-------------------------

 # Basis set for element : H 
 NewGTO H 
 S 3 
   1      13.0107010000      0.0334854848
   2       1.9622572000      0.2347218709
   3       0.4445379600      0.8137702853
 S 1 
   1       0.1219496200      1.0000000000
 P 1 
   1       0.8000000000      1.0000000000
  end;

 # Basis set for element : C 
 NewGTO C 
 S 5 
   1    1238.4016938000      0.0055173650
   2     186.2900499200      0.0410888285
   3      42.2511763460      0.1822538213
   4      11.6765579320      0.4682845944
   5       3.5930506482      0.4457581734
 S 1 
   1       0.4024514736      1.0000000000
 S 1 
   1       0.1309018267      1.0000000000
 P 3 
   1       9.4680970621      0.0568883320
   2       2.0103545142      0.3129405934
   3       0.5477100471      0.7606501651
 P 1 
   1       0.1526861379      1.0000000000
 D 1 
   1       0.8000000000      1.0000000000
  end;

 # Basis set for element : O 
 NewGTO O 
 S 5 
   1    2266.1767785000     -0.0053893504
   2     340.8701019100     -0.0402347214
   3      77.3631351670     -0.1800818421
   4      21.4796449400     -0.4682885766
   5       6.6589433124     -0.4469261716
 S 1 
   1       0.8097597567      1.0000000000
 S 1 
   1       0.2553077223      1.0000000000
 P 3 
   1      17.7215043170      0.0626302488
   2       3.8635505440      0.3333113849
   3       1.0480920883      0.7414863830
 P 1 
   1       0.2764154441      1.0000000000
 D 1 
   1       1.2000000000      1.0000000000
  end;

---------------------------------
AUXILIARY/J BASIS SET INFORMATION
---------------------------------
There are 3 groups of distinct atoms

 Group   1 Type C   : 12s5p4d2f1g contracted to 6s4p3d1f1g pattern {711111/2111/211/2/1}
 Group   2 Type H   : 5s2p1d contracted to 3s1p1d pattern {311/2/1}
 Group   3 Type O   : 12s5p4d2f1g contracted to 6s4p3d1f1g pattern {711111/2111/211/2/1}

Atom   0C    basis set group =>   1
Atom   1C    basis set group =>   1
Atom   2C    basis set group =>   1
Atom   3H    basis set group =>   2
Atom   4H    basis set group =>   2
Atom   5C    basis set group =>   1
Atom   6C    basis set group =>   1
Atom   7C    basis set group =>   1
Atom   8H    basis set group =>   2
Atom   9H    basis set group =>   2
Atom  10H    basis set group =>   2
Atom  11H    basis set group =>   2
Atom  12O    basis set group =>   3
Atom  13H    basis set group =>   2
Atom  14C    basis set group =>   1
Atom  15C    basis set group =>   1
Atom  16H    basis set group =>   2
Atom  17H    basis set group =>   2
Atom  18C    basis set group =>   1
Atom  19H    basis set group =>   2
Atom  20C    basis set group =>   1
Atom  21H    basis set group =>   2
Atom  22C    basis set group =>   1
Atom  23C    basis set group =>   1
Atom  24H    basis set group =>   2
Atom  25H    basis set group =>   2
Atom  26C    basis set group =>   1
Atom  27H    basis set group =>   2
Atom  28H    basis set group =>   2
Atom  29C    basis set group =>   1
Atom  30H    basis set group =>   2
Atom  31H    basis set group =>   2
Atom  32C    basis set group =>   1
Atom  33H    basis set group =>   2
Atom  34C    basis set group =>   1
Atom  35H    basis set group =>   2
Atom  36C    basis set group =>   1
Atom  37H    basis set group =>   2
Atom  38H    basis set group =>   2
Atom  39C    basis set group =>   1
Atom  40H    basis set group =>   2
Atom  41H    basis set group =>   2
Atom  42H    basis set group =>   2
Atom  43C    basis set group =>   1
Atom  44C    basis set group =>   1
Atom  45H    basis set group =>   2
Atom  46H    basis set group =>   2
Atom  47H    basis set group =>   2
Atom  48H    basis set group =>   2
Atom  49C    basis set group =>   1
Atom  50C    basis set group =>   1
Atom  51C    basis set group =>   1
Atom  52H    basis set group =>   2
Atom  53H    basis set group =>   2
Atom  54C    basis set group =>   1
Atom  55C    basis set group =>   1
Atom  56C    basis set group =>   1
Atom  57H    basis set group =>   2
Atom  58H    basis set group =>   2
Atom  59C    basis set group =>   1
Atom  60C    basis set group =>   1
Atom  61H    basis set group =>   2
Atom  62H    basis set group =>   2
Atom  63H    basis set group =>   2
Atom  64H    basis set group =>   2
Atom  65H    basis set group =>   2
Atom  66H    basis set group =>   2
Atom  67H    basis set group =>   2
Atom  68H    basis set group =>   2
Atom  69H    basis set group =>   2
Atom  70H    basis set group =>   2
Atom  71H    basis set group =>   2
Atom  72H    basis set group =>   2

-------------------------------------
AUXILIARY/J BASIS SET IN INPUT FORMAT
-------------------------------------

 # Auxiliary/J basis set for element : H 
 NewAuxJGTO H 
 S 3 
   1      15.6752927000      0.1007184237
   2       3.6063578000      0.3404257499
   3       1.2080016000      0.6491996172
 S 1 
   1       0.4726794000      1.0000000000
 S 1 
   1       0.2018100000      1.0000000000
 P 2 
   1       2.0281365000      0.5596620919
   2       0.5358730000      0.5596620919
 D 1 
   1       2.2165124000      1.0000000000
  end;

 # Auxiliary/J basis set for element : C 
 NewAuxJGTO C 
 S 7 
   1    1861.0916331000      0.0134602335
   2     642.9939764000      0.0299160374
   3     235.1105725000      0.1008649584
   4      90.7028894000      0.2370970548
   5      36.7794552000      0.3924037254
   6      15.6046273000      0.3195862154
   7       6.8907294000      0.0530104441
 S 1 
   1       3.1478850000     -1.0000000000
 S 1 
   1       1.4777287000      1.0000000000
 S 1 
   1       0.7076466000      1.0000000000
 S 1 
   1       0.3430122000      1.0000000000
 S 1 
   1       0.1669453000      1.0000000000
 P 2 
   1      13.5472892000     -0.6769313712
   2       5.4669419000     -0.3779500978
 P 1 
   1       2.1751721000      1.0000000000
 P 1 
   1       0.8582194000      1.0000000000
 P 1 
   1       0.3376720000      1.0000000000
 D 2 
   1       5.9287253000     -0.3533329857
   2       1.9809209000     -0.7456525731
 D 1 
   1       0.8055417000     -1.0000000000
 D 1 
   1       0.3531244000     -1.0000000000
 F 2 
   1       1.6755626000      0.6311076882
   2       0.5997536000      0.4968166032
 G 1 
   1       1.0024600000     -1.0000000000
  end;

 # Auxiliary/J basis set for element : O 
 NewAuxJGTO O 
 S 7 
   1    2876.8216605000      0.0168151159
   2    1004.7443032000      0.0340137548
   3     369.7579954000      0.1194951309
   4     142.9442404000      0.2664627624
   5      57.8366425000      0.4202764046
   6      24.3864983000      0.2765077335
   7      10.6622662000      0.0057008815
 S 1 
   1       4.8070437000     -1.0000000000
 S 1 
   1       2.2210770000      1.0000000000
 S 1 
   1       1.0447795000      1.0000000000
 S 1 
   1       0.4968425000      1.0000000000
 S 1 
   1       0.2371384000      1.0000000000
 P 2 
   1      64.2613382000     -0.2731534179
   2      16.3006076000     -0.8168011598
 P 1 
   1       4.3550542000      1.0000000000
 P 1 
   1       1.2019554000      1.0000000000
 P 1 
   1       0.3354196000      1.0000000000
 D 2 
   1       9.2146611000     -0.4661230638
   2       2.8435251000     -0.6600908911
 D 1 
   1       0.9955759000     -1.0000000000
 D 1 
   1       0.3649441000     -1.0000000000
 F 2 
   1       2.6420115000      0.5931563945
   2       0.7345613000      0.5931563945
 G 1 
   1       1.3931000000     -1.0000000000
  end;


Checking for AutoStart:
The File: inpS.gbw exists
Trying to determine its content:
     ... Fine, the file contains calculation information
     ... Fine, the calculation information was read
     ... Fine, the file contains a basis set
     ... Fine, the basis set was read
     ... Fine, the file contains a geometry
     ... Fine, the geometry was read
     ... Fine, the file contains a set of orbitals
     ... Fine, the orbitals can be read
     => possible old guess file was deleted
     => GBW file was renamed to GES file
     => GES file is set as startup file
     => Guess is set to MORead
     ... now leaving AutoStart



           ************************************************************
           *        Program running with 4 parallel MPI-processes     *
           *              working on a common directory               *
           ************************************************************
------------------------------------------------------------------------------
                             ORCA STARTUP CALCULATIONS
                           -- RI-GTO INTEGRALS CHOSEN --
------------------------------------------------------------------------------
------------------------------------------------------------------------------
                   ___                                                        
                  /   \      - P O W E R E D   B Y -                         
                 /     \                                                     
                 |  |  |   _    _      __       _____    __    __             
                 |  |  |  | |  | |    /  \     |  _  \  |  |  /  |          
                  \  \/   | |  | |   /    \    | | | |  |  | /  /          
                 / \  \   | |__| |  /  /\  \   | |_| |  |  |/  /          
                |  |  |   |  __  | /  /__\  \  |    /   |      \           
                |  |  |   | |  | | |   __   |  |    \   |  |\   \          
                \     /   | |  | | |  |  |  |  | |\  \  |  | \   \       
                 \___/    |_|  |_| |__|  |__|  |_| \__\ |__|  \__/        
                                                                              
                      - O R C A' S   B I G   F R I E N D -                    
                                      &                                       
                       - I N T E G R A L  F E E D E R -                       
                                                                              
 v1 FN, 2020, v2 2021, v3 2022-2024                                           
------------------------------------------------------------------------------


----------------------
SHARK INTEGRAL PACKAGE
----------------------

Number of atoms                             ...     73
Number of basis functions                   ...    626
Number of shells                            ...    306
Maximum angular momentum                    ...      2
Integral batch strategy                     ... SHARK/LIBINT Hybrid
RI-J (if used) integral strategy            ... SPLIT-RIJ (Revised 2003 algorithm where possible)
Printlevel                                  ...      1
Contraction scheme used                     ... SEGMENTED contraction
Prescreening option                         ... SCHWARTZ
   Thresh                                   ... 3.000e-11
   Tcut                                     ... 1.000e-12
   Tpresel                                  ... 1.000e-12 
Coulomb Range Separation                    ... NOT USED
Exchange Range Separation                   ... Long Range
   Mu parameter                             ... 3.000e-01
   Scaling (regular/separated)              ... 1.670e-01 8.330e-01
Multipole approximations                    ... NOT USED
Finite Nucleus Model                        ... NOT USED
CABS basis                                  ... NOT available
Auxiliary Coulomb fitting basis             ... AVAILABLE
   # of basis functions in Aux-J            ...   1905
   # of shells in Aux-J                     ...    655
   Maximum angular momentum in Aux-J        ...      4
Auxiliary J/K fitting basis                 ... NOT available
Auxiliary Correlation fitting basis         ... NOT available
Auxiliary 'external' fitting basis          ... NOT available

Checking pre-screening integrals            ... done (  0.0 sec) Dimension = 306
Check shell pair data                       ... done (  0.0 sec)
Shell pair information
Shell pair cut-off parameter TPreSel        ...   1.0e-12
Total number of shell pairs                 ...     46971
Shell pairs after pre-screening             ...     26958
Total number of primitive shell pairs       ...    162105
Primitive shell pairs kept                  ...     59609
          la=0 lb=0:   9427 shell pairs
          la=1 lb=0:  10347 shell pairs
          la=1 lb=1:   2866 shell pairs
          la=2 lb=0:   2680 shell pairs
          la=2 lb=1:   1443 shell pairs
          la=2 lb=2:    195 shell pairs

Calculating one electron integrals          ... done (  0.1 sec)
Calculating RI/J V-Matrix + Cholesky decomp.... done (  0.2 sec)
Calculating Nuclear repulsion               ... done (  0.0 sec) ENN=   2749.141506634930 Eh

Diagonalization of the overlap matrix:
Smallest eigenvalue                        ... 4.556e-04
Time for diagonalization                   ...    0.046 sec
Threshold for overlap eigenvalues          ... 1.000e-07
Number of eigenvalues below threshold      ... 0
Time for construction of square roots      ...    0.025 sec
Total time needed                          ...    0.074 sec

-------------------
DFT GRID GENERATION
-------------------

General Integration Accuracy     IntAcc      ... 4.388
Radial Grid Type                 RadialGrid  ... OptM3 with GC (2021)
Angular Grid (max. ang.)         AngularGrid ... 4 (Lebedev-302)
Angular grid pruning method      GridPruning ... 4 (adaptive)
Weight generation scheme         WeightScheme... mBecke (2022)
Basis function cutoff            BFCut       ... 1.0000e-11
Integration weight cutoff        WCut        ... 1.0000e-14
Partially contracted basis set               ... off
Rotationally invariant grid construction     ... off
Angular grids for H and He will be reduced by one unit

Total number of grid points                  ...   310020
Total number of batches                      ...     4876
Average number of points per batch           ...       63
Average number of grid points per atom       ...     4247

--------------------
COSX GRID GENERATION
--------------------

GRIDX 1
-------
General Integration Accuracy     IntAcc      ... 3.816
Radial Grid Type                 RadialGrid  ... OptM3 with GC (2021)
Angular Grid (max. ang.)         AngularGrid ... 1 (Lebedev-50)
Angular grid pruning method      GridPruning ... 4 (adaptive)
Weight generation scheme         WeightScheme... mBecke (2022)
Basis function cutoff            BFCut       ... 1.0000e-11
Integration weight cutoff        WCut        ... 1.0000e-14
Partially contracted basis set               ... on
Rotationally invariant grid construction     ... off
Angular grids for H and He will be reduced by one unit

Total number of grid points                  ...    39443
Total number of batches                      ...      358
Average number of points per batch           ...      110
Average number of grid points per atom       ...      540
UseSFitting                                  ... on

GRIDX 2
-------
General Integration Accuracy     IntAcc      ... 4.020
Radial Grid Type                 RadialGrid  ... OptM3 with GC (2021)
Angular Grid (max. ang.)         AngularGrid ... 2 (Lebedev-110)
Angular grid pruning method      GridPruning ... 4 (adaptive)
Weight generation scheme         WeightScheme... mBecke (2022)
Basis function cutoff            BFCut       ... 1.0000e-11
Integration weight cutoff        WCut        ... 1.0000e-14
Partially contracted basis set               ... on
Rotationally invariant grid construction     ... off
Angular grids for H and He will be reduced by one unit

Total number of grid points                  ...    81489
Total number of batches                      ...      678
Average number of points per batch           ...      120
Average number of grid points per atom       ...     1116
UseSFitting                                  ... on

GRIDX 3
-------
General Integration Accuracy     IntAcc      ... 4.338
Radial Grid Type                 RadialGrid  ... OptM3 with GC (2021)
Angular Grid (max. ang.)         AngularGrid ... 3 (Lebedev-194)
Angular grid pruning method      GridPruning ... 4 (adaptive)
Weight generation scheme         WeightScheme... mBecke (2022)
Basis function cutoff            BFCut       ... 1.0000e-11
Integration weight cutoff        WCut        ... 1.0000e-14
Partially contracted basis set               ... on
Rotationally invariant grid construction     ... off
Angular grids for H and He will be reduced by one unit

Total number of grid points                  ...   176632
Total number of batches                      ...     1423
Average number of points per batch           ...      124
Average number of grid points per atom       ...     2420
UseSFitting                                  ... on
Initializing property integral containers    ... done (  0.0 sec)

SHARK setup successfully completed in   4.5 seconds

Maximum memory used throughout the entire STARTUP-calculation: 94.9 MB


           ************************************************************
           *        Program running with 4 parallel MPI-processes     *
           *              working on a common directory               *
           ************************************************************
-------------------------------------------------------------------------------
                                 ORCA GUESS
                   Start orbitals & Density for SCF / CASSCF
-------------------------------------------------------------------------------

------------
SCF SETTINGS
------------
Hamiltonian:
 Density Functional     Method          .... DFT(GTOs)
 Exchange Functional    Exchange        .... WB97X-V
 Correlation Functional Correlation     .... WB97X-V
 Gradients option       PostSCFGGA      .... off
 Hybrid DFT is turned on
   Fraction HF Exchange ScalHFX         ....  0.167000
   Scaling of DF-GGA-X  ScalDFX         ....  0.000000
   Scaling of DF-GGA-C  ScalDFC         ....  1.000000
   Scaling of DF-LDA-C  ScalLDAC        ....  1.000000
   Perturbative correction              ....  0.000000
 Long-range corrected/Screened/Range-Separated Hybrid DFT is turned on
   Amount of maximum screened exact exchange              ....  0.833000
   Range separation parameter mu (erf(mu*r12)/r12)        ....  0.300000
 RI-approximation to the Coulomb term is turned on
   Number of AuxJ basis functions       .... 1905
   RIJ-COSX (HFX calculated with COS-X)).... on


General Settings:
 Integral files         IntName         .... inpS
 Hartree-Fock type      HFTyp           .... RHF
 Total Charge           Charge          ....    0
 Multiplicity           Mult            ....    1
 Number of Electrons    NEL             ....  220
 Basis Dimension        Dim             ....  626
 Nuclear Repulsion      ENuc            ....   2749.1415066349 Eh

Convergence Acceleration:
 AO-DIIS                CNVDIIS         .... on
   Start iteration      DIISMaxIt       ....    12
   Startup error        DIISStart       ....  0.200000
   # of expansion vecs  DIISMaxEq       ....     5
   Bias factor          DIISBfac        ....   1.050
   Max. coefficient     DIISMaxC        ....  10.000
 MO-DIIS                CNVKDIIS        .... off
 Trust-Rad. Augm. Hess. CNVTRAH         .... auto
   Auto Start mean grad. ratio tolernc. ....  1.125000
   Auto Start start iteration           ....     1
   Auto Start num. interpolation iter.  ....    10
   Max. Number of Micro iterations      ....    24
   Max. Number of Macro iterations      .... Maxiter - #DIIS iter
   Number of Davidson start vectors     ....     2
   Converg. threshold    (grad. norm)   ....   1.000e-04
   Grad. Scal. Fac. for Micro threshold ....   0.100
   Minimum threshold for Micro iter.    ....   1.000e-02
   NR start threshold (gradient norm)   ....   1.000e-04
   Initial trust radius                 ....   0.400
   Minimum AH scaling param. (alpha)    ....   1.000
   Maximum AH scaling param. (alpha)    .... 1000.000
   Quad. conv. algorithm                .... NR
   White noise on init. David. guess    .... on
   Maximum white noise                  ....   0.010
   Pseudo random numbers                .... off
   Inactive MOs                         .... canonical
   Orbital update algorithm             .... Taylor
   Preconditioner                       .... Diag
   Full preconditioner red. dimension   ....   250
 SOSCF                  CNVSOSCF        .... off
 Level Shifting         CNVShift        .... on
   Level shift para.    LevelShift      ....    0.2500
   Turn off err/grad.   ShiftErr        ....    0.0010
 Zerner damping         CNVZerner       .... off
 Static damping         CNVDamp         .... on
   Fraction old density DampFac         ....    0.7000
   Max. Damping (<1)    DampMax         ....    0.9800
   Min. Damping (>=0)   DampMin         ....    0.0000
   Turn off err/grad.   DampErr         ....    0.1000

SCF Procedure:
 Maximum # iterations   MaxIter         ....   125
 SCF integral mode      SCFMode         .... Direct
   Integral package                     .... SHARK and LIBINT hybrid scheme
 Reset frequency        DirectResetFreq ....    20
 Integral Threshold     Thresh          ....  3.000e-11 Eh
 Primitive CutOff       TCut            ....  1.000e-12 Eh

Convergence Tolerance:
 Convergence Check Mode ConvCheckMode   .... Total+1el-Energy
 Convergence forced     ConvForced      .... 0
 Energy Change          TolE            ....  1.000e-07 Eh
 1-El. energy change                    ....  1.000e-04 Eh
 DIIS Error             TolErr          ....  1.000e-07

---------------------
INITIAL GUESS: MOREAD
---------------------
Guess MOs are being read from file: inpS.ges
Input Geometry matches current geometry (good)
Input basis set matches current basis set (good)
Occupation numbers will be reassigned to an Aufbau configuration
MOs were renormalized
MOs were reorthogonalized (Cholesky)
                      ------------------
                      INITIAL GUESS DONE (   0.2 sec)
                      ------------------
             **** ENERGY FILE WAS UPDATED (inpS.en.tmp) ****
Finished Guess after   0.3 sec
Maximum memory used throughout the entire GUESS-calculation: 51.8 MB


           ************************************************************
           *        Program running with 4 parallel MPI-processes     *
           *              working on a common directory               *
           ************************************************************

-------------------------------------------------------------------------------------------
                                      ORCA LEAN-SCF
                              memory conserving SCF solver
-------------------------------------------------------------------------------------------

--------------------
CPCM SOLVATION MODEL
--------------------
CPCM parameters:
  Epsilon                                         ...       4.8030
  Refrac                                          ...       1.4459
  Rsolv                                           ...       1.3000
  Surface type                                    ... GAUSSIAN VDW
  Discretization scheme                           ... Constant charge density
    Threshold for H atoms                         ...       5.0000 (charges/Ang^2)
    Threshold for non-H atoms                     ...       5.0000 (charges/Ang^2)
  Epsilon function type                           ...         CPCM
Solvent:                                          ... CHLOROFORM
Radii:
  Scheme                                          ... Element-dependent radii
  Radius for C  used is    3.8550 Bohr (=   2.0400 Ang.)
  Radius for H  used is    2.4944 Bohr (=   1.3200 Ang.)
  Radius for O  used is    3.4469 Bohr (=   1.8240 Ang.)
Calculating surface                               ...        done! (  0.0s)
Cavity surface points                             ...         5468
Cavity Volume                                     ...    3615.5299
Cavity Surface-area                               ...    1818.2876
Calculating surface distance matrix               ...        done! (  0.3s)
Performing Cholesky decomposition & store         ...        done! (  1.0s)
Overall time for CPCM initialization              ...                 1.2s

----------------------------------------D-I-I-S--------------------------------------------
Iteration    Energy (Eh)           Delta-E    RMSDP     MaxDP     DIISErr   Damp  Time(sec)
-------------------------------------------------------------------------------------------
               ***  Starting incremental Fock matrix formation  ***
    1    -1168.3648313564190175     0.00e+00  3.22e-08  1.88e-06  6.49e-06  0.700  23.1

  HOMO= 109 E= -7.881 eV LUMO=  8.094 eV gap=  15.975 eV
    2    -1168.3648313550847888     1.33e-09  2.75e-08  1.52e-06  3.27e-06  0.700   4.8
                 **** Energy Check signals convergence ****

  HOMO= 109 E= -7.881 eV LUMO=  8.094 eV gap=  15.975 eV

               *****************************************************
               *                     SUCCESS                       *
               *           SCF CONVERGED AFTER   2 CYCLES          *
               *****************************************************

Recomputing exchange energy using gridx3       ... done (   40.236 sec)
Old exchange energy                            :    -56.782030886 Eh
New exchange energy                            :    -56.781966362 Eh
Exchange energy change after final integration :      0.000064525 Eh
Total energy after final integration           :  -1168.364766830 Eh
             **** ENERGY FILE WAS UPDATED (inpS.en.tmp) ****

----------------
TOTAL SCF ENERGY
----------------

Total Energy       :      -1168.36476683037358 Eh          -31792.82162 eV

Components:
Nuclear Repulsion  :       2749.14150663493047 Eh           74807.94356 eV
Electronic Energy  :      -3917.49584209825161 Eh         -106600.48133 eV
One Electron Energy:      -7043.60711217707558 Eh         -191666.29365 eV
Two Electron Energy:       3126.11127007882396 Eh           85065.81232 eV
CPCM Dielectric    :         -0.01049589176382 Eh              -0.28561 eV

Virial components:
Potential Energy   :      -2321.68576269179221 Eh          -63176.28142 eV
Kinetic Energy     :       1153.32099586141862 Eh           31383.45980 eV
Virial Ratio       :          2.01304387158730

DFT components:
N(Alpha)           :      110.000195627693 electrons
N(Beta)            :      110.000195627693 electrons
N(Total)           :      220.000391255386 electrons
E(X)               :     -111.768218289884 Eh       
E(C)               :       -8.949270558280 Eh       
E(XC)              :     -120.717488848164 Eh       

CPCM Solvation Model Properties:
Surface-charge          :         -0.04222808982630
Corrected charge        :          0.00000000000000
Outlying charge corr.   :          0.00006181751299 Eh               0.00168 eV
Free-energy (cav+disp)  :  This term is not implemented in the current solvation scheme

---------------
SCF CONVERGENCE
---------------

  Last Energy change         ...   -1.3342e-09  Tolerance :   1.0000e-07
  Last MAX-Density change    ...    1.5198e-06  Tolerance :   1.0000e-05
  Last RMS-Density change    ...    2.7488e-08  Tolerance :   1.0000e-06
  Last DIIS Error            ...    3.2670e-06  Tolerance :   1.0000e-07


----------------
ORBITAL ENERGIES
----------------

  NO   OCC          E(Eh)            E(eV) 
   0   2.0000     -19.213674      -522.8307 
   1   2.0000     -10.329733      -281.0863 
   2   2.0000     -10.293406      -280.0978 
   3   2.0000     -10.290172      -280.0098 
   4   2.0000     -10.285988      -279.8960 
   5   2.0000     -10.285808      -279.8911 
   6   2.0000     -10.285082      -279.8713 
   7   2.0000     -10.281930      -279.7856 
   8   2.0000     -10.281572      -279.7758 
   9   2.0000     -10.281317      -279.7689 
  10   2.0000     -10.280906      -279.7577 
  11   2.0000     -10.280782      -279.7543 
  12   2.0000     -10.279408      -279.7169 
  13   2.0000     -10.278459      -279.6911 
  14   2.0000     -10.276975      -279.6507 
  15   2.0000     -10.276804      -279.6461 
  16   2.0000     -10.276684      -279.6428 
  17   2.0000     -10.276526      -279.6385 
  18   2.0000     -10.273634      -279.5598 
  19   2.0000     -10.272816      -279.5375 
  20   2.0000     -10.271852      -279.5113 
  21   2.0000     -10.271702      -279.5072 
  22   2.0000     -10.270306      -279.4692 
  23   2.0000     -10.270274      -279.4684 
  24   2.0000     -10.269955      -279.4597 
  25   2.0000     -10.269623      -279.4507 
  26   2.0000     -10.268310      -279.4149 
  27   2.0000     -10.266829      -279.3746 
  28   2.0000     -10.266358      -279.3618 
  29   2.0000      -1.131637       -30.7934 
  30   2.0000      -0.997959       -27.1558 
  31   2.0000      -0.979090       -26.6424 
  32   2.0000      -0.957522       -26.0555 
  33   2.0000      -0.942878       -25.6570 
  34   2.0000      -0.917695       -24.9717 
  35   2.0000      -0.910467       -24.7751 
  36   2.0000      -0.889581       -24.2067 
  37   2.0000      -0.887130       -24.1400 
  38   2.0000      -0.873811       -23.7776 
  39   2.0000      -0.852694       -23.2030 
  40   2.0000      -0.835500       -22.7351 
  41   2.0000      -0.829427       -22.5698 
  42   2.0000      -0.808470       -21.9996 
  43   2.0000      -0.798522       -21.7289 
  44   2.0000      -0.794743       -21.6261 
  45   2.0000      -0.786854       -21.4114 
  46   2.0000      -0.759015       -20.6538 
  47   2.0000      -0.751478       -20.4487 
  48   2.0000      -0.721359       -19.6292 
  49   2.0000      -0.712828       -19.3970 
  50   2.0000      -0.712137       -19.3782 
  51   2.0000      -0.697050       -18.9677 
  52   2.0000      -0.689004       -18.7488 
  53   2.0000      -0.668596       -18.1934 
  54   2.0000      -0.667065       -18.1518 
  55   2.0000      -0.645816       -17.5735 
  56   2.0000      -0.630964       -17.1694 
  57   2.0000      -0.620688       -16.8898 
  58   2.0000      -0.604933       -16.4611 
  59   2.0000      -0.600786       -16.3482 
  60   2.0000      -0.586243       -15.9525 
  61   2.0000      -0.579772       -15.7764 
  62   2.0000      -0.570740       -15.5306 
  63   2.0000      -0.567629       -15.4460 
  64   2.0000      -0.563577       -15.3357 
  65   2.0000      -0.559699       -15.2302 
  66   2.0000      -0.552841       -15.0436 
  67   2.0000      -0.547563       -14.8999 
  68   2.0000      -0.545664       -14.8483 
  69   2.0000      -0.539873       -14.6907 
  70   2.0000      -0.535713       -14.5775 
  71   2.0000      -0.531414       -14.4605 
  72   2.0000      -0.524755       -14.2793 
  73   2.0000      -0.518592       -14.1116 
  74   2.0000      -0.518073       -14.0975 
  75   2.0000      -0.513722       -13.9791 
  76   2.0000      -0.503778       -13.7085 
  77   2.0000      -0.501532       -13.6474 
  78   2.0000      -0.496829       -13.5194 
  79   2.0000      -0.490874       -13.3573 
  80   2.0000      -0.487950       -13.2778 
  81   2.0000      -0.486454       -13.2371 
  82   2.0000      -0.486197       -13.2301 
  83   2.0000      -0.479082       -13.0365 
  84   2.0000      -0.478276       -13.0145 
  85   2.0000      -0.472856       -12.8671 
  86   2.0000      -0.465569       -12.6688 
  87   2.0000      -0.461976       -12.5710 
  88   2.0000      -0.456848       -12.4315 
  89   2.0000      -0.451568       -12.2878 
  90   2.0000      -0.448526       -12.2050 
  91   2.0000      -0.443693       -12.0735 
  92   2.0000      -0.437449       -11.9036 
  93   2.0000      -0.430323       -11.7097 
  94   2.0000      -0.426357       -11.6018 
  95   2.0000      -0.426054       -11.5935 
  96   2.0000      -0.422428       -11.4948 
  97   2.0000      -0.421501       -11.4696 
  98   2.0000      -0.416018       -11.3204 
  99   2.0000      -0.414208       -11.2712 
 100   2.0000      -0.412158       -11.2154 
 101   2.0000      -0.409751       -11.1499 
 102   2.0000      -0.402450       -10.9512 
 103   2.0000      -0.401496       -10.9253 
 104   2.0000      -0.394286       -10.7291 
 105   2.0000      -0.380181       -10.3453 
 106   2.0000      -0.371853       -10.1186 
 107   2.0000      -0.357041        -9.7156 
 108   2.0000      -0.337056        -9.1717 
 109   2.0000      -0.289616        -7.8808 
 110   0.0000       0.047439         1.2909 
 111   0.0000       0.100402         2.7321 
 112   0.0000       0.110354         3.0029 
 113   0.0000       0.135900         3.6980 
 114   0.0000       0.142656         3.8819 
 115   0.0000       0.145673         3.9640 
 116   0.0000       0.153489         4.1766 
 117   0.0000       0.154846         4.2136 
 118   0.0000       0.158392         4.3101 
 119   0.0000       0.159674         4.3450 
 120   0.0000       0.165835         4.5126 
*Only the first 10 virtual orbitals were printed.

                    ********************************
                    * MULLIKEN POPULATION ANALYSIS *
                    ********************************

-----------------------
MULLIKEN ATOMIC CHARGES
-----------------------
   0 C :   -0.127156
   1 C :    0.144087
   2 C :    0.081590
   3 H :    0.016746
   4 H :    0.013234
   5 C :   -0.184426
   6 C :    0.110980
   7 C :    0.006798
   8 H :    0.029842
   9 H :    0.012228
  10 H :    0.023501
  11 H :    0.011332
  12 O :   -0.355215
  13 H :    0.014183
  14 C :   -0.024770
  15 C :   -0.044452
  16 H :    0.036338
  17 H :    0.029215
  18 C :   -0.060408
  19 H :   -0.006928
  20 C :   -0.116023
  21 H :    0.000644
  22 C :    0.114581
  23 C :   -0.000348
  24 H :    0.012731
  25 H :    0.017622
  26 C :    0.105534
  27 H :    0.012565
  28 H :    0.014948
  29 C :   -0.412624
  30 H :    0.008703
  31 H :   -0.002928
  32 C :   -0.041371
  33 H :    0.011098
  34 C :    0.116164
  35 H :    0.181684
  36 C :    0.072657
  37 H :    0.007180
  38 H :    0.015541
  39 C :   -0.036336
  40 H :    0.009657
  41 H :    0.000799
  42 H :   -0.008424
  43 C :   -0.043998
  44 C :    0.093224
  45 H :    0.023130
  46 H :    0.018438
  47 H :    0.019679
  48 H :    0.000618
  49 C :    0.049767
  50 C :   -0.034837
  51 C :   -0.046900
  52 H :    0.002719
  53 H :    0.005142
  54 C :   -0.075485
  55 C :    0.035877
  56 C :   -0.167105
  57 H :    0.002462
  58 H :    0.008635
  59 C :    0.034812
  60 C :    0.029154
  61 H :    0.020081
  62 H :    0.016005
  63 H :    0.027103
  64 H :    0.018118
  65 H :    0.022522
  66 H :    0.010297
  67 H :    0.013640
  68 H :    0.023869
  69 H :    0.017978
  70 H :    0.020196
  71 H :    0.031025
  72 H :    0.013060
Sum of atomic charges:    0.0000000

--------------------------------
MULLIKEN REDUCED ORBITAL CHARGES
--------------------------------
  0 C s       :     3.077897  s :     3.077897
      pz      :     1.004137  p :     3.006422
      px      :     0.998389
      py      :     1.003896
      dz2     :     0.003215  d :     0.042838
      dxz     :     0.007028
      dyz     :     0.006031
      dx2y2   :     0.014705
      dxy     :     0.011859

  1 C s       :     2.932328  s :     2.932328
      pz      :     0.980827  p :     2.889143
      px      :     0.940551
      py      :     0.967764
      dz2     :     0.007043  d :     0.034442
      dxz     :     0.009251
      dyz     :     0.004689
      dx2y2   :     0.009005
      dxy     :     0.004454

  2 C s       :     3.075237  s :     3.075237
      pz      :     1.041038  p :     2.772011
      px      :     0.758534
      py      :     0.972439
      dz2     :     0.011733  d :     0.071163
      dxz     :     0.016061
      dyz     :     0.009178
      dx2y2   :     0.019372
      dxy     :     0.014818

  3 H s       :     0.960062  s :     0.960062
      pz      :     0.010752  p :     0.023192
      px      :     0.007703
      py      :     0.004737

  4 H s       :     0.963974  s :     0.963974
      pz      :     0.004254  p :     0.022792
      px      :     0.003798
      py      :     0.014740

  5 C s       :     3.111864  s :     3.111864
      pz      :     1.005072  p :     3.027772
      px      :     0.975010
      py      :     1.047690
      dz2     :     0.011247  d :     0.044790
      dxz     :     0.006673
      dyz     :     0.011879
      dx2y2   :     0.008374
      dxy     :     0.006619

  6 C s       :     2.949084  s :     2.949084
      pz      :     0.974589  p :     2.904463
      px      :     0.965766
      py      :     0.964107
      dz2     :     0.006970  d :     0.035472
      dxz     :     0.009465
      dyz     :     0.004954
      dx2y2   :     0.009232
      dxy     :     0.004852

  7 C s       :     3.012980  s :     3.012980
      pz      :     0.990430  p :     2.945202
      px      :     0.989115
      py      :     0.965656
      dz2     :     0.005336  d :     0.035020
      dxz     :     0.008286
      dyz     :     0.006593
      dx2y2   :     0.009669
      dxy     :     0.005136

  8 H s       :     0.946868  s :     0.946868
      pz      :     0.011374  p :     0.023290
      px      :     0.007231
      py      :     0.004684

  9 H s       :     0.964951  s :     0.964951
      pz      :     0.004478  p :     0.022821
      px      :     0.003728
      py      :     0.014615

 10 H s       :     0.953806  s :     0.953806
      pz      :     0.011332  p :     0.022693
      px      :     0.005143
      py      :     0.006218

 11 H s       :     0.965976  s :     0.965976
      pz      :     0.010872  p :     0.022692
      px      :     0.007265
      py      :     0.004555

 12 O s       :     3.726360  s :     3.726360
      pz      :     1.538788  p :     4.616648
      px      :     1.247944
      py      :     1.829916
      dz2     :     0.002539  d :     0.012207
      dxz     :     0.004125
      dyz     :     0.001634
      dx2y2   :     0.001801
      dxy     :     0.002108

 13 H s       :     0.965597  s :     0.965597
      pz      :     0.011031  p :     0.020220
      px      :     0.005030
      py      :     0.004159

 14 C s       :     3.197215  s :     3.197215
      pz      :     0.988875  p :     2.791315
      px      :     0.888533
      py      :     0.913907
      dz2     :     0.002782  d :     0.036240
      dxz     :     0.007624
      dyz     :     0.003229
      dx2y2   :     0.012227
      dxy     :     0.010379

 15 C s       :     3.122765  s :     3.122765
      pz      :     0.976529  p :     2.895439
      px      :     1.001004
      py      :     0.917907
      dz2     :     0.007176  d :     0.026248
      dxz     :     0.004205
      dyz     :     0.007033
      dx2y2   :     0.004878
      dxy     :     0.002956

 16 H s       :     0.939112  s :     0.939112
      pz      :     0.010916  p :     0.024550
      px      :     0.006175
      py      :     0.007460

 17 H s       :     0.946158  s :     0.946158
      pz      :     0.004047  p :     0.024626
      px      :     0.004661
      py      :     0.015919

 18 C s       :     3.200783  s :     3.200783
      pz      :     1.029415  p :     2.824317
      px      :     0.878171
      py      :     0.916730
      dz2     :     0.002875  d :     0.035308
      dxz     :     0.007024
      dyz     :     0.003083
      dx2y2   :     0.012397
      dxy     :     0.009929

 19 H s       :     0.982607  s :     0.982607
      pz      :     0.004643  p :     0.024321
      px      :     0.004340
      py      :     0.015338

 20 C s       :     3.099668  s :     3.099668
      pz      :     0.955878  p :     2.972351
      px      :     0.991470
      py      :     1.025002
      dz2     :     0.003579  d :     0.044004
      dxz     :     0.007209
      dyz     :     0.006857
      dx2y2   :     0.014631
      dxy     :     0.011729

 21 H s       :     0.974833  s :     0.974833
      pz      :     0.004629  p :     0.024523
      px      :     0.004256
      py      :     0.015639

 22 C s       :     2.924448  s :     2.924448
      pz      :     1.002581  p :     2.925414
      px      :     0.976019
      py      :     0.946814
      dz2     :     0.009509  d :     0.035557
      dxz     :     0.004167
      dyz     :     0.005961
      dx2y2   :     0.009861
      dxy     :     0.006059

 23 C s       :     3.000821  s :     3.000821
      pz      :     1.009144  p :     2.963099
      px      :     0.967763
      py      :     0.986192
      dz2     :     0.009631  d :     0.036427
      dxz     :     0.007781
      dyz     :     0.003188
      dx2y2   :     0.010202
      dxy     :     0.005624

 24 H s       :     0.964025  s :     0.964025
      pz      :     0.004714  p :     0.023244
      px      :     0.013866
      py      :     0.004663

 25 H s       :     0.959068  s :     0.959068
      pz      :     0.013515  p :     0.023309
      px      :     0.004977
      py      :     0.004818

 26 C s       :     2.970920  s :     2.970920
      pz      :     0.968258  p :     2.888205
      px      :     0.975120
      py      :     0.944826
      dz2     :     0.006805  d :     0.035342
      dxz     :     0.006733
      dyz     :     0.005756
      dx2y2   :     0.008694
      dxy     :     0.007354

 27 H s       :     0.964556  s :     0.964556
      pz      :     0.013487  p :     0.022879
      px      :     0.004619
      py      :     0.004772

 28 H s       :     0.962409  s :     0.962409
      pz      :     0.004684  p :     0.022643
      px      :     0.003809
      py      :     0.014150

 29 C s       :     3.256259  s :     3.256259
      pz      :     1.044139  p :     3.105342
      px      :     1.004296
      py      :     1.056907
      dz2     :     0.011763  d :     0.051024
      dxz     :     0.010256
      dyz     :     0.009450
      dx2y2   :     0.010907
      dxy     :     0.008647

 30 H s       :     0.968265  s :     0.968265
      pz      :     0.009275  p :     0.023032
      px      :     0.007399
      py      :     0.006358

 31 H s       :     0.980395  s :     0.980395
      pz      :     0.012973  p :     0.022533
      px      :     0.005087
      py      :     0.004473

 32 C s       :     3.031855  s :     3.031855
      pz      :     0.985775  p :     2.965680
      px      :     0.950291
      py      :     1.029614
      dz2     :     0.008533  d :     0.043835
      dxz     :     0.007467
      dyz     :     0.007850
      dx2y2   :     0.011097
      dxy     :     0.008889

 33 H s       :     0.967620  s :     0.967620
      pz      :     0.012214  p :     0.021282
      px      :     0.004377
      py      :     0.004691

 34 C s       :     2.901484  s :     2.901484
      pz      :     0.987512  p :     2.947539
      px      :     0.978165
      py      :     0.981862
      dz2     :     0.005446  d :     0.034813
      dxz     :     0.005923
      dyz     :     0.008191
      dx2y2   :     0.008860
      dxy     :     0.006394

 35 H s       :     0.750190  s :     0.750190
[...]
 Total          139.456          174.078          192.142  iso=     168.558

 Orientation: 
  X           0.3002826   -0.4935145    0.8162560
  Y          -0.1401408   -0.8692884   -0.4740235
  Z           0.9434993    0.0279503   -0.3301937

 --------------
 Nucleus  39C :
 --------------

Diamagnetic contribution to the shielding tensor (ppm) : 
           263.794          3.903        -6.821
             3.461        262.947         8.999
            -7.120          6.725       261.382

Paramagnetic contribution to the shielding tensor (ppm): 
           -98.137          0.219         7.666
             4.881       -128.039        -4.075
            12.626         -4.130      -131.594

Total shielding tensor (ppm): 
           165.657          4.122         0.845
             8.342        134.908         4.923
             5.506          2.595       129.788


 Diagonalized sT*s matrix:
 
 sDSO           255.057          268.960          264.105  iso=     262.708
 sPSO          -127.257         -133.672          -96.841  iso=    -119.257
        ---------------  ---------------  ---------------
 Total          127.800          135.289          167.264  iso=     143.451

 Orientation: 
  X           0.0068582   -0.2147172   -0.9766522
  Y          -0.4746959    0.8589156   -0.1921662
  Z           0.8801232    0.4649307   -0.0960348

 --------------
 Nucleus  43C :
 --------------

Diamagnetic contribution to the shielding tensor (ppm) : 
           258.254         -0.904        -5.901
            -5.808        248.909        11.660
            -8.614         13.499       245.571

Paramagnetic contribution to the shielding tensor (ppm): 
           -93.429         -2.386         3.908
             9.105        -97.449        -9.396
             8.546        -11.646       -92.827

Total shielding tensor (ppm): 
           164.825         -3.290        -1.992
             3.298        151.460         2.264
            -0.068          1.853       152.744


 Diagonalized sT*s matrix:
 
 sDSO           235.524          257.567          259.643  iso=     250.911
 sPSO           -85.603         -103.372          -94.730  iso=     -94.568
        ---------------  ---------------  ---------------
 Total          149.921          154.195          164.913  iso=     156.343

 Orientation: 
  X           0.0350776    0.0851190   -0.9957531
  Y          -0.7984997    0.6015444    0.0232923
  Z           0.6009723    0.7942916    0.0890682

 --------------
 Nucleus  44C :
 --------------

Diamagnetic contribution to the shielding tensor (ppm) : 
           251.136          0.433         2.192
            -2.246        257.638        -0.999
             0.337          2.962       271.758

Paramagnetic contribution to the shielding tensor (ppm): 
           -71.857         -4.689        -2.211
            -0.186        -78.084        -2.038
            -0.326         -6.039       -78.774

Total shielding tensor (ppm): 
           179.279         -4.256        -0.018
            -2.432        179.554        -3.037
             0.011         -3.078       192.983


 Diagonalized sT*s matrix:
 
 sDSO           254.291          255.520          270.721  iso=     260.177
 sPSO           -78.493          -73.184          -77.039  iso=     -76.239
        ---------------  ---------------  ---------------
 Total          175.798          182.336          193.683  iso=     183.939

 Orientation: 
  X           0.6889114   -0.7230509    0.0509761
  Y           0.7135585    0.6641422   -0.2230457
  Z           0.1274180    0.1900332    0.9734742

 --------------
 Nucleus  49C :
 --------------

Diamagnetic contribution to the shielding tensor (ppm) : 
           242.713         -6.420        -2.174
           -21.360        258.807         8.328
            -9.063          7.701       243.613

Paramagnetic contribution to the shielding tensor (ppm): 
           -69.328          2.141        -4.193
            20.669        -71.509        -0.306
             4.064         -2.145       -76.409

Total shielding tensor (ppm): 
           173.385         -4.278        -6.367
            -0.691        187.298         8.022
            -4.999          5.556       167.204


 Diagonalized sT*s matrix:
 
 sDSO           239.407          237.738          267.987  iso=     248.377
 sPSO           -76.522          -63.124          -77.600  iso=     -72.415
        ---------------  ---------------  ---------------
 Total          162.885          174.614          190.387  iso=     175.962

 Orientation: 
  X           0.4291295   -0.8714633    0.2374860
  Y          -0.2066491   -0.3506767   -0.9134123
  Z           0.8792861    0.3428959   -0.3305728

 --------------
 Nucleus  50C :
 --------------

Diamagnetic contribution to the shielding tensor (ppm) : 
           265.521         13.084         7.693
            12.115        262.077        -1.706
            16.432        -13.357       254.311

Paramagnetic contribution to the shielding tensor (ppm): 
          -194.610        -25.712       -87.864
           -30.907       -160.850        36.197
           -93.369         50.352      -244.850

Total shielding tensor (ppm): 
            70.911        -12.627       -80.171
           -18.792        101.226        34.491
           -76.937         36.995         9.461


 Diagonalized sT*s matrix:
 
 sDSO           269.462          272.524          239.924  iso=     260.636
 sPSO          -315.385         -193.751          -91.175  iso=    -200.104
        ---------------  ---------------  ---------------
 Total          -45.923           78.773          148.749  iso=      60.533

 Orientation: 
  X          -0.5866862    0.5031437   -0.6345437
  Y           0.0633968    0.8096981    0.5834122
  Z          -0.8073290   -0.3020519    0.5069364

 --------------
 Nucleus  51C :
 --------------

Diamagnetic contribution to the shielding tensor (ppm) : 
           264.566         13.448         8.602
            13.990        267.748       -11.283
            -1.198         -3.196       270.913

Paramagnetic contribution to the shielding tensor (ppm): 
          -193.897        -26.802       -87.169
           -34.201       -165.506        42.754
           -72.807         38.346      -256.824

Total shielding tensor (ppm): 
            70.669        -13.354       -78.568
           -20.211        102.242        31.472
           -74.005         35.150        14.089


 Diagonalized sT*s matrix:
 
 sDSO           271.959          280.841          250.427  iso=     267.742
 sPSO          -311.855         -202.041         -102.331  iso=    -205.409
        ---------------  ---------------  ---------------
 Total          -39.895           78.799          148.095  iso=      62.333

 Orientation: 
  X          -0.6009109    0.4921673   -0.6298234
  Y           0.0420763    0.8063375    0.5899571
  Z          -0.7982078   -0.3280110    0.5052456

 --------------
 Nucleus  54C :
 --------------

Diamagnetic contribution to the shielding tensor (ppm) : 
           254.129          0.992        -3.079
             9.497        255.179         1.110
             3.452         -2.508       250.363

Paramagnetic contribution to the shielding tensor (ppm): 
           -88.300          0.886         3.533
            -5.751       -114.501        -2.811
            -4.707          0.740       -98.327

Total shielding tensor (ppm): 
           165.829          1.879         0.454
             3.746        140.678        -1.701
            -1.256         -1.768       152.036


 Diagonalized sT*s matrix:
 
 sDSO           253.813          250.592          255.267  iso=     253.224
 sPSO          -113.682          -98.343          -89.102  iso=    -100.376
        ---------------  ---------------  ---------------
 Total          140.130          152.249          166.164  iso=     152.848

 Orientation: 
  X          -0.1029222    0.0540328   -0.9932208
  Y           0.9848059   -0.1348765   -0.1093877
  Z           0.1398727    0.9893881    0.0393300

 --------------
 Nucleus  55C :
 --------------

Diamagnetic contribution to the shielding tensor (ppm) : 
           238.804         -3.208        -1.170
            24.194        261.020         0.863
             9.949          0.967       252.359

Paramagnetic contribution to the shielding tensor (ppm): 
           -66.111         -1.616        -4.039
           -26.150        -70.432         6.650
           -13.213          2.707       -84.903

Total shielding tensor (ppm): 
           172.693         -4.823        -5.210
            -1.956        190.587         7.513
            -3.264          3.674       167.456


 Diagonalized sT*s matrix:
 
 sDSO           251.961          244.820          255.402  iso=     250.728
 sPSO           -87.324          -71.506          -62.616  iso=     -73.816
        ---------------  ---------------  ---------------
 Total          164.637          173.313          192.786  iso=     176.912

 Orientation: 
  X           0.4156134   -0.8857216    0.2067914
  Y          -0.1463933   -0.2895359   -0.9459059
  Z           0.8976829    0.3628583   -0.2499988

 --------------
 Nucleus  56C :
 --------------

Diamagnetic contribution to the shielding tensor (ppm) : 
           253.548          3.415        -4.588
             0.595        234.385        -0.636
             0.393          1.162       237.627

Paramagnetic contribution to the shielding tensor (ppm): 
           -81.877         -6.551        -1.435
            -3.392        -76.764        -1.254
            -7.280         -1.089       -71.795

Total shielding tensor (ppm): 
           171.672         -3.136        -6.023
            -2.797        157.621        -1.890
            -6.887          0.072       165.832


 Diagonalized sT*s matrix:
 
 sDSO           237.231          237.861          250.469  iso=     241.853
 sPSO           -80.874          -75.151          -74.411  iso=     -76.812
        ---------------  ---------------  ---------------
 Total          156.357          162.710          176.058  iso=     165.041

 Orientation: 
  X          -0.2987035    0.4427441   -0.8454312
  Y          -0.9097696   -0.3996841    0.1121245
  Z          -0.2882630    0.8026396    0.5221821

 --------------
 Nucleus  59C :
 --------------

Diamagnetic contribution to the shielding tensor (ppm) : 
           249.331         -3.160        -2.958
           -28.883        240.595        -2.937
            -6.050         -1.635       232.557

Paramagnetic contribution to the shielding tensor (ppm): 
           -78.366         -4.210        -2.363
            26.792        -52.042        12.533
             2.683          6.256       -67.277

Total shielding tensor (ppm): 
           170.965         -7.369        -5.321
            -2.091        188.552         9.596
            -3.367          4.621       165.280


 Diagonalized sT*s matrix:
 
 sDSO           235.039          239.942          247.502  iso=     240.828
 sPSO           -72.859          -69.447          -55.380  iso=     -65.895
        ---------------  ---------------  ---------------
 Total          162.181          170.495          192.122  iso=     174.933

 Orientation: 
  X           0.3537665   -0.8993511    0.2569376
  Y          -0.1932263   -0.3390473   -0.9207120
  Z           0.9151573    0.2760699   -0.2937218

 --------------
 Nucleus  60C :
 --------------

Diamagnetic contribution to the shielding tensor (ppm) : 
           249.919          9.517         1.822
            19.597        219.743         2.124
            13.298         -4.803       221.562

Paramagnetic contribution to the shielding tensor (ppm): 
           -64.747          4.052         4.831
           -11.615        -46.675         2.253
            -6.471         12.090       -49.617

Total shielding tensor (ppm): 
           185.172         13.569         6.653
             7.982        173.068         4.378
             6.827          7.287       171.946


 Diagonalized sT*s matrix:
 
 sDSO           218.816          218.308          254.101  iso=     230.408
 sPSO           -52.922          -48.860          -59.257  iso=     -53.679
        ---------------  ---------------  ---------------
 Total          165.894          169.448          194.844  iso=     176.729

 Orientation: 
  X           0.3081163    0.5282685    0.7911996
  Y          -0.8273620   -0.2617378    0.4969562
  Z           0.4696132   -0.8077287    0.3564235



--------------------------------
CHEMICAL SHIELDING SUMMARY (ppm)
--------------------------------


  Nucleus  Element    Isotropic     Anisotropy
  -------  -------  ------------   ------------
      0       C           59.706        148.077 
      1       C          151.162         30.085 
      2       C          128.882         55.181 
      5       C           51.570        179.220 
      6       C          165.029         22.957 
      7       C          161.673         22.605 
     14       C           74.681        128.383 
     15       C           83.019        121.208 
     18       C           79.573        134.339 
     20       C           52.399        174.983 
     22       C          169.294          8.636 
     23       C          174.520         12.580 
     26       C          158.580         24.063 
     29       C          154.510         16.962 
     32       C          142.849         28.824 
     34       C          174.873         23.333 
     36       C          168.558         35.375 
     39       C          143.451         35.720 
     43       C          156.343         12.855 
     44       C          183.939         14.616 
     49       C          175.962         21.638 
     50       C           60.533        132.324 
     51       C           62.333        128.643 
     54       C          152.848         19.975 
     55       C          176.912         23.811 
     56       C          165.041         16.525 
     59       C          174.933         25.784 
     60       C          176.729         27.173 


NMR shielding tensor and spin rotation calculation done in   1.0 sec 

Maximum memory used throughout the entire PROP-calculation: 51.3 MB

--------------------------------
SUGGESTED CITATIONS FOR THIS RUN
--------------------------------

Below you find a list of papers that are relevant to this ORCA run
We neither can nor want to force you to cite these papers, but we appreciate if you do
You receive ORCA, which is the product of decades of hard work by many enthusiastic individuals, for free
The only thing we kindly ask in return is that you cite our papers,
We deeply appreciate it, if you show your appreciation for ORCA by not just citing the generic ORCA reference.

Please note that relegating all ORCA citations to the supporting information does *not* help us.
SI sections are not indexed - citations you put there will not count into any citation statistics
But we need these citations in order to attract the funding resources that allow us to do what we are doing

Therefore, if you are a happy ORCA user, please consider citing a few of the papers listed below in the main body of your paper

In addition to the list printed below, the program has created the file inpS.bibtex that contains the list in bibtex format
You can import this file easily into all common literature databanks and citation aid programs


List of essential papers. We consider these as the minimum necessary citations

  1. Neese,F.
     Software update: the ORCA program system, version 5.0
     WIRES Comput. Molec. Sci., 2022 12(1)e1606
     doi.org/10.1002/wcms.1606

List of papers to cite with high priority. The work reported in these papers was absolutely
necessary for this run to complete.
Our perspective: the developers of density functionals and basis sets usually get cited in chemistry papers
Good! But without the algorithms to do something with them, the functionals or basis sets would not do anything.
Hence, in our opinion, the algorithm design and method developments papers are equally worthy of getting cited

  1. Neese,F.
     An improvement of the resolution of the identity approximation for the formation of the Coulomb matrix
     J. Comp. Chem., 2003 24(14)1740-1747
     doi.org/10.1002/jcc.10318
  2. Neese,F.; Wennmohs,F.; Hansen,A.; Becker,U.
     Efficient, approximate and parallel Hartree-Fock and hybrid DFT calculations. A 'chain-of-spheres' algorithm for the Hartree-Fock exchange
     Chem. Phys., 2009 356(1-3)98-109
     doi.org/10.1016/j.chemphys.2008.10.036
  3. Stoychev,G.L.; Auer,A.A.; Izsak,R.; Neese,F.
     Self-Consistent Field Calculation of Nuclear Magnetic Resonance Chemical Shielding Constants Using Gauge-Including Atomic Orbitals and Approximate Two-Electron Integrals
     J. Chem. Theory Comput., 2018 14(2)619-637
     doi.org/10.1021/acs.jctc.7b01006
  4. Garcia-Rates,M.; Neese,F.
     Effect of the Solute Cavity on the Solvation Energy and its Derivatives within the Framework of the Gaussian Charge Scheme
     J. Comput. Chem., 2020 41 922-939
     doi.org/10.1002/jcc.26139
  5. Helmich-Paris,B.; de Souza,B.; Neese,F.; Izsák,R.
     An improved chain of spheres for exchange algorithm
     J. Chem. Phys., 2021 155 104109
     doi.org/doi: 10.1063/5.0058766.
  6. Neese,F.
     The SHARK Integral Generation and Digestion System
     J. Comp. Chem., 2022  1-16
     doi.org/10.1002/jcc.26942
  7. Caldeweyher,E.; Bannwarth,C.; Grimme,S.
     Extension of the D3 dispersion coefficient model
     J. Chem. Phys., 2017 147 034112-XXXX
     doi.org/10.1063/1.4993215
  8. Caldeweyher,E.; Ehlert,S.; Hansen,A.; Neugebauer,H.; Spicher,S.; Bannwarth,C.; Grimme,S.
     A generally applicable atomic-charge dependent London dispersion correction
     J. Chem. Phys., 2019 150 154122-XXXX
     doi.org/10.1063/1.5090222
  9. Caldeweyher,E.; Mewes,J.; Ehlert,S.; Grimme,S.
     Extension and evaluation of the D4 London-dispersion model for periodic systems
     Phys. Chem. Chem. Phys., 2020 22(16)8499-8512
     doi.org/10.1039/D0CP00502A

List of suggested additional citations. These are papers that are important in the 'surrounding' of 
of this run, or papers that preceded the highly important papers. If you like your results we are grateful for a citation.

  1. Izsak,R.; Neese,F.
     An overlap fitted chain of spheres exchange method
     J. Chem. Phys., 2011 135 144105
     doi.org/10.1063/1.3646921
  2. Izsak,R.; Hansen,A.; Neese,F.
     The resolution of identity and chain of spheres approximations for the LPNO-CCSD singles Fock term
     Molec. Phys., 2012 110 2413-2417
     doi.org/10.1080/00268976.2012.687466
  3. Neese,F.
     The ORCA program system
     WIRES Comput. Molec. Sci., 2012 2(1)73-78
     doi.org/10.1002/wcms.81
  4. Izsak,R.; Neese,F.; Klopper,W.
     Robust fitting techniques in the chain of spheres approximation to the Fock exchange: The role of the complementary space
     J. Chem. Phys., 2013 139 
     doi.org/10.1063/1.4819264
  5. Neese,F.
     Software update: the ORCA program system, version 4.0
     WIRES Comput. Molec. Sci., 2018 8(1)1-6
     doi.org/10.1002/wcms.1327
  6. Neese,F.; Wennmohs,F.; Becker,U.; Riplinger,C.
     The ORCA quantum chemistry program package
     J. Chem. Phys., 2020 152 Art. No. L224108
     doi.org/10.1063/5.0004608

Timings for individual modules:

Sum of individual times          ...      173.716 sec (=   2.895 min)
Startup calculation              ...        4.697 sec (=   0.078 min)   2.7 %
SCF iterations                   ...       70.842 sec (=   1.181 min)  40.8 %
Property integrals               ...       58.918 sec (=   0.982 min)  33.9 %
SCF Response                     ...       37.942 sec (=   0.632 min)  21.8 %
Property calculations            ...        1.317 sec (=   0.022 min)   0.8 %
                             ****ORCA TERMINATED NORMALLY****
TOTAL RUN TIME: 0 days 0 hours 2 minutes 54 seconds 28 msec
