
                                 *****************
                                 * O   R   C   A *
                                 *****************

                                            #,                                       
                                            ###                                      
                                            ####                                     
                                            #####                                    
                                            ######                                   
                                           ########,                                 
                                     ,,################,,,,,                         
                               ,,#################################,,                 
                          ,,##########################################,,             
                       ,#########################################, ''#####,          
                    ,#############################################,,   '####,        
                  ,##################################################,,,,####,       
                ,###########''''           ''''###############################       
              ,#####''   ,,,,##########,,,,          '''####'''          '####       
            ,##' ,,,,###########################,,,                        '##       
           ' ,,###''''                  '''############,,,                           
         ,,##''                                '''############,,,,        ,,,,,,###''
      ,#''                                            '''#######################'''  
     '                                                          ''''####''''         
             ,#######,   #######,   ,#######,      ##                                
            ,#'     '#,  ##    ##  ,#'     '#,    #''#        ,####,   ,####,        
            ##       ##  ##   ,#'  ##            #'  '#       #'       #'  '#        
            ##       ##  #######   ##           ,######,      #####,   #    #        
            '#,     ,#'  ##    ##  '#,     ,#' ,#      #,     #,   #   #,  ,#        
             '#######'   ##     ##  '#######'  #'      '#     '####' # '####'        



                #########################################################
                #                        -***-                          #
                #          Department of theory and spectroscopy        #
                #                                                       #
                #                      Frank Neese                      #
                #                                                       #
                #     Directorship, Architecture, Infrastructure        #
                #                    SHARK, DRIVERS                     #
                #        Core code/Algorithms in most modules           #
                #                                                       #
                #        Max Planck Institute fuer Kohlenforschung      #
                #                Kaiser Wilhelm Platz 1                 #
                #                 D-45470 Muelheim/Ruhr                 #
                #                      Germany                          #
                #                                                       #
                #                  All rights reserved                  #
                #                        -***-                          #
                #########################################################


                         Program Version 6.0.0  -   RELEASE  -


 With contributions from (in alphabetic order):
   Daniel Aravena         : Magnetic Suceptibility
   Michael Atanasov       : Ab Initio Ligand Field Theory (pilot matlab implementation)
   Alexander A. Auer      : GIAO ZORA, VPT2 properties, NMR spectrum
   Ute Becker             : All parallelization in ORCA, NUMFREQ, NUMCALC
   Giovanni Bistoni       : ED, misc. LED, open-shell LED, HFLD
   Martin Brehm           : Molecular dynamics
   Dmytro Bykov           : pre 5.0 version of the SCF Hessian
   Marcos Casanova-Páez   : Triplet and SCS-CIS(D). UHF-(DLPNO)-IP/EA/STEOM-CCSD. UHF-CVS-IP/STEOM-CCSD
   Vijay G. Chilkuri      : MRCI spin determinant printing, contributions to CSF-ICE
   Pauline Colinet        : FMM embedding
   Dipayan Datta          : RHF DLPNO-CCSD density
   Achintya Kumar Dutta   : EOM-CC, STEOM-CC
   Nicolas Foglia         : Exact transition moments, OPA infrastructure, MCD improvements
   Dmitry Ganyushin       : Spin-Orbit,Spin-Spin,Magnetic field MRCI
   Miquel Garcia          : C-PCM and meta-GGA Hessian, CCSD/C-PCM, Gaussian charge scheme
   Tiago L. C. Gouveia    : GS-ROHF, GS-ROCIS
   Yang Guo               : DLPNO-NEVPT2, F12-NEVPT2, CIM, IAO-localization
   Andreas Hansen         : Spin unrestricted coupled pair/coupled cluster methods
   Ingolf Harden          : AUTO-CI MPn and infrastructure 
   Benjamin Helmich-Paris : MC-RPA, TRAH-(SCF,CASSCF), AVAS, COSX integrals, SCF dyn. polar.
   Lee Huntington         : MR-EOM, pCC
   Robert Izsak           : Overlap fitted RIJCOSX, COSX-SCS-MP3, EOM
   Riya Kayal             : Wick's Theorem for AUTO-CI, AUTO-CI UHF-CCSDT
   Emily Kempfer          : AUTO-CI, RHF CISDT and CCSDT
   Christian Kollmar      : KDIIS, OOCD, Brueckner-CCSD(T), CCSD density, CASPT2, CASPT2-K, improved NEVPT2
   Axel Koslowski         : Symmetry handling
   Simone Kossmann        : Meta GGA functionals, TD-DFT gradient, OOMP2, (MP2 Hessian; deprecated post 5.0)
   Lucas Lang             : DCDCAS
   Marvin Lechner         : AUTO-CI (C++ implementation), FIC-MRCC
   Spencer Leger          : CASSCF response
   Dagmar Lenk            : GEPOL surface, SMD, ORCA-2-JSON
   Dimitrios Liakos       : Extrapolation schemes; Compound Job, initial MDCI parallelization
   Dimitrios Manganas     : Further ROCIS development; embedding schemes. LFT, Crystal Embedding
   Dimitrios Pantazis     : SARC Basis sets
   Anastasios Papadopoulos: AUTO-CI, single reference methods and gradients
   Taras Petrenko         : pre 6.0 DFT Hessian and TD-DFT gradient, (ASA, deprecated), ECA, 1-Electron XAS/XES, NRVS
   Peter Pinski           : DLPNO-MP2, DLPNO-MP2 Gradient
   Christoph Reimann      : Effective Core Potentials
   Marius Retegan         : Local ZFS, SOC
   Christoph Riplinger    : Optimizer, TS searches, QM/MM, DLPNO-CCSD(T), (RO)-DLPNO pert. Triples
   Michael Roemelt        : Original ROCIS implementation
   Masaaki Saitow         : Open-shell DLPNO-CCSD energy and density
   Barbara Sandhoefer     : DKH picture change effects
   Kantharuban Sivalingam : CASSCF convergence/infrastructure, NEVPT2 and variants, FIC-MRCI
   Bernardo de Souza      : ESD, SOC TD-DFT
   Georgi Stoychev        : AutoAux, RI-MP2 NMR, DLPNO-MP2 response, X2C
   Van Anh Tran           : RI-MP2 g-tensors
   Willem Van den Heuvel  : Paramagnetic NMR
   Zikuan Wang            : NOTCH, Electric field optimization 
   Frank Wennmohs         : Technical directorship and infrastructure
   Hang Xu                : AUTO-CI-Response properties 


 We gratefully acknowledge several colleagues who have allowed us to
 interface, adapt or use parts of their codes:
   Stefan Grimme, W. Hujo, H. Kruse, P. Pracht,  : VdW corrections, initial TS optimization,
                  C. Bannwarth, S. Ehlert,         DFT functionals, gCP, sTDA/sTD-DF
                  L. Wittmann, M. Mueller
   Ed Valeev, F. Pavosevic, A. Kumar             : LibInt (2-el integral package), F12 methods
   Garnet Chan, S. Sharma, J. Yang, R. Olivares  : DMRG
   Ulf Ekstrom                                   : XCFun DFT Library
   Mihaly Kallay                                 : mrcc  (arbitrary order and MRCC methods)
   Frank Weinhold                                : gennbo (NPA and NBO analysis)
   Simon Mueller                                 : openCOSMO-RS
   Christopher J. Cramer and Donald G. Truhlar   : smd solvation model
   Lars Goerigk                                  : TD-DFT with DH, B97 family of functionals
   V. Asgeirsson, H. Jonsson                     : NEB implementation
   FAccTs GmbH                                   : IRC, NEB, NEB-TS, DLPNO-Multilevel, CI-OPT
                                                   MM, QMMM, 2- and 3-layer-ONIOM, Crystal-QMMM,
                                                   LR-CPCM, SF, NACMEs, symmetry and pop. for TD-DFT,
                                                   nearIR, NL-DFT gradient (VV10), updates on ESD,
                                                   ML-optimized integration grids, MBIS, APM,
                                                   GOAT, DOCKER, SOLVATOR, interface openCOSMO-RS
   S Lehtola, MJT Oliveira, MAL Marques          : LibXC Library
   Liviu Ungur et al                             : ANISO software


 Your calculation uses the libint2 library for the computation of 2-el integrals
 For citations please refer to: http://libint.valeyev.net

 Your ORCA version has been built with support for libXC version: 6.2.2
 For citations please refer to: https://libxc.gitlab.io

 This ORCA versions uses:
   CBLAS   interface :  Fast vector & matrix operations
   LAPACKE interface :  Fast linear algebra routines
   SCALAPACK package :  Parallel linear algebra routines
   Shared memory     :  Shared parallel matrices
   BLAS/LAPACK       :  OpenBLAS 0.3.27  USE64BITINT DYNAMIC_ARCH NO_AFFINITY Zen SINGLE_THREADED
        Core in use  :  Zen
   Copyright (c) 2011-2014, The OpenBLAS Project


NOTE: MaxCore=8000 MB was set to SCF,MP2,MDCI,CIPSI,MRCI and CIS
      => If you want to overwrite this, your respective input block should be placed after the MaxCore statement
Your calculation utilizes the atom-pairwise dispersion correction
based on EEQ partial charges (D4)


================================================================================

----- Orbital basis set information -----
Your calculation utilizes the basis: pcJ-0
   F. Jensen, Theor. Chem. Acc. 126, 371 (2010).

----- AuxJ basis set information -----
Your calculation utilizes the auxiliary basis: def2/J
   F. Weigend, Phys. Chem. Chem. Phys. 8, 1057 (2006).

================================================================================
                                        WARNINGS
                       Please study these warnings very carefully!
================================================================================

WARNING: Old DensityContainer found on disk!
         Will remove this file - 
         If you want to keep old densities, please start your calculation with a different basename. 


================================================================================
                                       INPUT FILE
================================================================================
NAME = inpJ
|  1> ! pbe0
|  2> ! D4
|  3> ! pcJ-0
|  4> ! def2/J RIJCOSX
|  5> ! DEFGRID2
|  6> ! scfconv7
|  7> ! smallprint printgap noloewdin
|  8> ! NOSOSCF
|  9> %MaxCore 8000
| 10> %output
| 11>        print[P_BondOrder_M] 1
| 12>        print[P_Mayer] 1
| 13>        print[P_basis] 2
| 14> end
| 15> %pal
| 16>     nprocs 4
| 17> end
| 18> ! CPCM(chloroform)
| 19> *xyz 0 1
| 20> C   -5.0207103100   0.3046406100   0.3236680900
| 21> C   -6.4269711900  -0.1326767100  -0.0126531700
| 22> C   -6.9809103000   0.6197688000  -1.2286278200
| 23> H   -7.0925836500   0.0886533000   0.8389792000
| 24> H   -6.4636488800  -1.2126048900  -0.1933154700
| 25> C   -4.8502562000   1.7693149100   0.4295897600
| 26> C   -5.4493190900   2.5535336700  -0.7160046400
| 27> C   -6.8946984500   2.1251919700  -1.0039005900
| 28> H   -4.8459679100   2.3670002900  -1.6174300600
| 29> H   -5.3994948200   3.6272111200  -0.5062850600
| 30> H   -7.2787039100   2.6529852000  -1.8848114900
| 31> H   -7.5357458700   2.3910182000  -0.1498069500
| 32> O   -8.3182050900   0.2015715300  -1.5321683400
| 33> H   -6.3922335000   0.3490338100  -2.1163258700
| 34> C   -4.0252771400  -0.6029624300   0.4616803500
| 35> C   -4.2577914400   2.3679662700   1.4692100100
| 36> H   -3.8557481900   1.7935483000   2.2990732000
| 37> H   -4.1725525900   3.4510216600   1.5164662600
| 38> C   -2.6274838700  -0.3171397200   0.6871449900
| 39> H   -4.3101325900  -1.6482703700   0.3501422600
| 40> C   -1.6485310600  -1.2225970200   0.9003643400
| 41> H   -2.3476412200   0.7337347800   0.6704684900
| 42> C   -1.8371166700  -2.7149949500   1.0042625300
| 43> C   -0.8926951400  -3.4797030100   0.0576963200
| 44> H   -2.8719961700  -3.0167735300   0.8209262700
| 45> H   -1.5996842300  -3.0120378800   2.0384648500
| 46> C    0.5706208000  -3.0380055100   0.1980769500
| 47> H   -1.2263571000  -3.3324269600  -0.9772174700
| 48> H   -0.9729311700  -4.5547076100   0.2606586600
| 49> C    0.7265030400  -1.5199007600   0.0336615900
| 50> H    1.1780342400  -3.5827449100  -0.5321909600
| 51> H    0.9395056500  -3.3192660800   1.1960536700
| 52> C   -0.2118896000  -0.8372057600   1.0787820000
| 53> H    0.1039198100  -1.2608403900   2.0502913100
| 54> C    0.2190085900   0.6264777200   1.0676243000
| 55> H   -8.8733564600   0.4279343100  -0.7739776600
| 56> C    1.7510356200   0.5516188800   0.8538709300
| 57> H   -0.0580487500   1.1449763500   1.9915852300
| 58> H   -0.2572810900   1.1645586200   0.2403592900
| 59> C    2.0900013000  -0.9221397500   0.4781153100
| 60> H    2.3045150200   0.8581047300   1.7470912400
| 61> H    2.0680223900   1.2255077400   0.0491366300
| 62> H    2.3789823000  -1.4604637100   1.3957277100
| 63> C    3.2893335800  -0.9973476500  -0.4879916800
| 64> C    0.3738804500  -1.0799021500  -1.3933897400
| 65> H   -0.6891741900  -1.2285213400  -1.6065931400
| 66> H    0.9492271100  -1.6535829000  -2.1284672800
| 67> H    0.5939145700  -0.0197648500  -1.5539800600
| 68> H    3.0342776400  -0.4392096500  -1.4011182000
| 69> C    3.6711469700  -2.4330646700  -0.8794597000
| 70> C    4.4809298900  -0.3275656500   0.1434034100
| 71> C    5.1388984800   0.7139602300  -0.3614837400
| 72> H    4.8237912000  -0.7646807300   1.0867305900
| 73> H    4.7950002200   1.1494047900  -1.3053562900
| 74> C    6.3246847400   1.3887491100   0.2696697100
| 75> C    5.9409096300   2.8287072900   0.6476902900
| 76> C    7.5574954400   1.3381917600  -0.6664346500
| 77> H    6.5836927700   0.8419383300   1.1905915900
| 78> H    7.2757196500   1.8459357400  -1.6032832400
| 79> C    7.9359580000  -0.1080476900  -0.9965249900
| 80> C    8.7642221000   2.0672756000  -0.0683424200
| 81> H    5.0199123100   2.8341044300   1.2398910600
| 82> H    5.7665577900   3.4294723400  -0.2538796500
| 83> H    6.7227450300   3.3172999100   1.2365021800
| 84> H    8.7978784400  -0.1403041800  -1.6719965900
| 85> H    7.1078559400  -0.6449534400  -1.4689602600
| 86> H    8.2054783000  -0.6493454700  -0.0800834900
| 87> H    9.0086195400   1.6557666300   0.9196227000
| 88> H    8.5889769800   3.1408322400   0.0448965100
| 89> H    9.6434753600   1.9405464900  -0.7095310600
| 90> H    4.6035660700  -2.4327916900  -1.4542582100
| 91> H    2.8991978000  -2.9046256700  -1.4928215200
| 92> H    3.8231473200  -3.0522019800   0.0131575500
| 93> *
| 94> %eprnmr
| 95>  Nuclei = all C { ssfc }
| 96>  SpinSpinRThresh 8.0
| 97> end
| 98> 
| 99>                          ****END OF INPUT****
================================================================================

                       ****************************
                       * Single Point Calculation *
                       ****************************

---------------------------------
CARTESIAN COORDINATES (ANGSTROEM)
---------------------------------
  C     -5.020710    0.304641    0.323668
  C     -6.426971   -0.132677   -0.012653
  C     -6.980910    0.619769   -1.228628
  H     -7.092584    0.088653    0.838979
  H     -6.463649   -1.212605   -0.193315
  C     -4.850256    1.769315    0.429590
  C     -5.449319    2.553534   -0.716005
  C     -6.894698    2.125192   -1.003901
  H     -4.845968    2.367000   -1.617430
  H     -5.399495    3.627211   -0.506285
  H     -7.278704    2.652985   -1.884811
  H     -7.535746    2.391018   -0.149807
  O     -8.318205    0.201572   -1.532168
  H     -6.392233    0.349034   -2.116326
  C     -4.025277   -0.602962    0.461680
  C     -4.257791    2.367966    1.469210
  H     -3.855748    1.793548    2.299073
  H     -4.172553    3.451022    1.516466
  C     -2.627484   -0.317140    0.687145
  H     -4.310133   -1.648270    0.350142
  C     -1.648531   -1.222597    0.900364
  H     -2.347641    0.733735    0.670468
  C     -1.837117   -2.714995    1.004263
  C     -0.892695   -3.479703    0.057696
  H     -2.871996   -3.016774    0.820926
  H     -1.599684   -3.012038    2.038465
  C      0.570621   -3.038006    0.198077
  H     -1.226357   -3.332427   -0.977217
  H     -0.972931   -4.554708    0.260659
  C      0.726503   -1.519901    0.033662
  H      1.178034   -3.582745   -0.532191
  H      0.939506   -3.319266    1.196054
  C     -0.211890   -0.837206    1.078782
  H      0.103920   -1.260840    2.050291
  C      0.219009    0.626478    1.067624
  H     -8.873356    0.427934   -0.773978
  C      1.751036    0.551619    0.853871
  H     -0.058049    1.144976    1.991585
  H     -0.257281    1.164559    0.240359
  C      2.090001   -0.922140    0.478115
  H      2.304515    0.858105    1.747091
  H      2.068022    1.225508    0.049137
  H      2.378982   -1.460464    1.395728
  C      3.289334   -0.997348   -0.487992
  C      0.373880   -1.079902   -1.393390
  H     -0.689174   -1.228521   -1.606593
  H      0.949227   -1.653583   -2.128467
  H      0.593915   -0.019765   -1.553980
  H      3.034278   -0.439210   -1.401118
  C      3.671147   -2.433065   -0.879460
  C      4.480930   -0.327566    0.143403
  C      5.138898    0.713960   -0.361484
  H      4.823791   -0.764681    1.086731
  H      4.795000    1.149405   -1.305356
  C      6.324685    1.388749    0.269670
  C      5.940910    2.828707    0.647690
  C      7.557495    1.338192   -0.666435
  H      6.583693    0.841938    1.190592
  H      7.275720    1.845936   -1.603283
  C      7.935958   -0.108048   -0.996525
  C      8.764222    2.067276   -0.068342
  H      5.019912    2.834104    1.239891
  H      5.766558    3.429472   -0.253880
  H      6.722745    3.317300    1.236502
  H      8.797878   -0.140304   -1.671997
  H      7.107856   -0.644953   -1.468960
  H      8.205478   -0.649345   -0.080083
  H      9.008620    1.655767    0.919623
  H      8.588977    3.140832    0.044897
  H      9.643475    1.940546   -0.709531
  H      4.603566   -2.432792   -1.454258
  H      2.899198   -2.904626   -1.492822
  H      3.823147   -3.052202    0.013158

----------------------------
CARTESIAN COORDINATES (A.U.)
----------------------------
  NO LB      ZA    FRAG     MASS         X           Y           Z
   0 C     6.0000    0    12.011   -9.487767    0.575687    0.611644
   1 C     6.0000    0    12.011  -12.145215   -0.250723   -0.023911
   2 C     6.0000    0    12.011  -13.192009    1.171193   -2.321770
   3 H     1.0000    0     1.008  -13.403041    0.167530    1.585441
   4 H     1.0000    0     1.008  -12.214526   -2.291491   -0.365313
   5 C     6.0000    0    12.011   -9.165656    3.343521    0.811807
   6 C     6.0000    0    12.011  -10.297721    4.825479   -1.353053
   7 C     6.0000    0    12.011  -13.029092    4.016031   -1.897097
   8 H     1.0000    0     1.008   -9.157552    4.472982   -3.056500
   9 H     1.0000    0     1.008  -10.203566    6.854436   -0.956740
  10 H     1.0000    0     1.008  -13.754757    5.013415   -3.561778
  11 H     1.0000    0     1.008  -14.240496    4.518370   -0.283094
  12 O     8.0000    0    15.999  -15.719130    0.380915   -2.895379
  13 H     1.0000    0     1.008  -12.079571    0.659578   -3.999276
  14 C     6.0000    0    12.011   -7.606671   -1.139434    0.872449
  15 C     6.0000    0    12.011   -8.046060    4.474808    2.776405
  16 H     1.0000    0     1.008   -7.286308    3.389315    4.344619
  17 H     1.0000    0     1.008   -7.884982    6.521486    2.865706
  18 C     6.0000    0    12.011   -4.965225   -0.599307    1.298516
  19 H     1.0000    0     1.008   -8.144970   -3.114780    0.661673
  20 C     6.0000    0    12.011   -3.115272   -2.310374    1.701442
  21 H     1.0000    0     1.008   -4.436399    1.386558    1.267002
  22 C     6.0000    0    12.011   -3.471647   -5.130597    1.897781
  23 C     6.0000    0    12.011   -1.686949   -6.575686    0.109030
  24 H     1.0000    0     1.008   -5.427286   -5.700876    1.551326
  25 H     1.0000    0     1.008   -3.022965   -5.691927    3.852140
  26 C     6.0000    0    12.011    1.078317   -5.740998    0.374311
  27 H     1.0000    0     1.008   -2.317479   -6.297374   -1.846673
  28 H     1.0000    0     1.008   -1.838573   -8.607150    0.492573
  29 C     6.0000    0    12.011    1.372892   -2.872196    0.063611
  30 H     1.0000    0     1.008    2.226162   -6.770407   -1.005695
  31 H     1.0000    0     1.008    1.775408   -6.272504    2.260214
  32 C     6.0000    0    12.011   -0.400413   -1.582090    2.038603
  33 H     1.0000    0     1.008    0.196380   -2.382643    3.874489
  34 C     6.0000    0    12.011    0.413866    1.183871    2.017518
  35 H     1.0000    0     1.008  -16.768214    0.808679   -1.462606
  36 C     6.0000    0    12.011    3.308978    1.042409    1.613582
  37 H     1.0000    0     1.008   -0.109696    2.163692    3.763551
  38 H     1.0000    0     1.008   -0.486191    2.200697    0.454213
  39 C     6.0000    0    12.011    3.949530   -1.742592    0.903507
  40 H     1.0000    0     1.008    4.354902    1.621583    3.301524
  41 H     1.0000    0     1.008    3.907996    2.315874    0.092855
  42 H     1.0000    0     1.008    4.495625   -2.759876    2.637543
  43 C     6.0000    0    12.011    6.215940   -1.884714   -0.922171
  44 C     6.0000    0    12.011    0.706532   -2.040719   -2.633125
  45 H     1.0000    0     1.008   -1.302350   -2.321569   -3.036021
  46 H     1.0000    0     1.008    1.793779   -3.124819   -4.022220
  47 H     1.0000    0     1.008    1.122336   -0.037350   -2.936597
  48 H     1.0000    0     1.008    5.733954   -0.829986   -2.647730
  49 C     6.0000    0    12.011    6.937462   -4.597826   -1.661938
  50 C     6.0000    0    12.011    8.467730   -0.619009    0.270993
  51 C     6.0000    0    12.011    9.711111    1.349189   -0.683105
  52 H     1.0000    0     1.008    9.115644   -1.445037    2.053623
  53 H     1.0000    0     1.008    9.061237    2.172060   -2.466766
  54 C     6.0000    0    12.011   11.951922    2.624355    0.509602
  55 C     6.0000    0    12.011   11.226692    5.345482    1.223957
  56 C     6.0000    0    12.011   14.281597    2.528816   -1.259379
  57 H     1.0000    0     1.008   12.441376    1.591033    2.249892
  58 H     1.0000    0     1.008   13.749118    3.488313   -3.029766
  59 C     6.0000    0    12.011   14.996787   -0.204181   -1.883159
  60 C     6.0000    0    12.011   16.561980    3.906585   -0.129148
  61 H     1.0000    0     1.008    9.486259    5.355681    2.343055
  62 H     1.0000    0     1.008   10.897215    6.480764   -0.479763
  63 H     1.0000    0     1.008   12.704147    6.268788    2.336650
  64 H     1.0000    0     1.008   16.625581   -0.265136   -3.159616
  65 H     1.0000    0     1.008   13.431901   -1.218785   -2.775933
  66 H     1.0000    0     1.008   15.506107   -1.227085   -0.151336
  67 H     1.0000    0     1.008   17.023824    3.128945    1.737835
  68 H     1.0000    0     1.008   16.230814    5.935313    0.084842
  69 H     1.0000    0     1.008   18.223527    3.667101   -1.340819
  70 H     1.0000    0     1.008    8.699479   -4.597310   -2.748150
  71 H     1.0000    0     1.008    5.478690   -5.488947   -2.821024
  72 H     1.0000    0     1.008    7.224701   -5.767826    0.024864

--------------------------------
INTERNAL COORDINATES (ANGSTROEM)
--------------------------------
 C      0   0   0     0.000000000000     0.00000000     0.00000000
 C      1   0   0     1.510605206835     0.00000000     0.00000000
 C      2   1   0     1.533498331447   111.76287202     0.00000000
 H      2   1   3     1.103315283074   109.37109983   241.45376024
 H      2   1   3     1.095549630799   110.68629056   122.88888503
 C      1   2   3     1.478358822773   114.21145422    50.41736885
 C      6   1   2     1.512039000496   114.44903301   312.14407649
 C      3   2   1     1.524543778236   110.31657811   305.04063025
 H      7   6   1     1.100633970075   108.38679477   289.89269984
 H      7   6   1     1.095101833966   110.20512969   172.69696033
 H      8   3   2     1.096371242181   109.70139893   179.13298433
 H      8   3   2     1.100491401663   108.66198905   296.58108851
 O      3   2   1     1.433660754599   111.20473155   180.35135358
 H      3   2   1     1.099020308112   109.03304520    65.18954736
 C      1   2   3     1.354133618984   120.86294251   232.52581474
 C      6   1   2     1.337986624328   123.36778454   129.95752567
 H     16   6   1     1.086401257937   121.38745666     0.63562800
 H     16   6   1     1.087431741546   120.93743258   181.32968816
 C     15   1   2     1.444422012813   126.48816441   175.34921275
 H     15   1   2     1.089151992305   116.14019372   357.98690865
 C     19  15   1     1.350431048793   126.40468897   175.94832499
 H     19  15   1     1.087624580984   115.96307220   355.25016505
 C     21  19  15     1.507849776222   125.72097100   357.16147096
 C     23  21  19     1.540356463053   111.85977193   127.90557231
 H     23  21  19     1.093461510570   112.33195604     3.77321085
 H     23  21  19     1.101899770633   107.73008072   246.58192402
 C     24  23  21     1.534958287070   112.67132469    50.80048242
 H     24  23  21     1.097299909408   109.05692963   288.70802972
 H     24  23  21     1.096935012656   109.14594561   172.74669426
 C     27  24  23     1.534918146132   111.81601895   306.21829418
 H     27  24  23     1.094980968502   108.94641688   182.69661003
 H     27  24  23     1.100518547985   109.20436692    66.19939191
 C     21  19  15     1.498098117373   122.78561043   177.81721440
 H     33  21  19     1.105907872563   106.25594835   123.97057549
 C     33  21  19     1.525833239263   121.11257847     1.77862401
 H     13   3   2     0.966584843157   107.53861638    62.63567197
 C     35  33  21     1.548677232274   103.53307245   196.31168569
 H     35  33  21     1.095128028646   112.12075695    74.27855971
 H     35  33  21     1.095787530039   110.72095820   314.69778320
 C     30  27  24     1.553700369866   116.04024178   166.28321788
 H     37  35  33     1.094584644818   111.96558755   249.35548842
 H     37  35  33     1.096450683608   110.95209598   130.76949861
 H     40  30  27     1.102413362086   106.27702326   320.81889514
 C     40  30  27     1.541887434996   118.98677357    81.59534433
 C     30  27  24     1.534410950898   111.09381445   294.22228357
 H     45  30  27     1.094362152595   111.43721949    66.69098055
 H     45  30  27     1.095660701087   110.67940660   306.54478300
 H     45  30  27     1.094575424397   111.59137362   186.68787414
 H     44  40  30     1.100168896625   108.35934318    61.32743281
 C     44  40  30     1.536330705605   113.48739452   300.52416170
 C     44  40  30     1.505712274376   109.33705045   178.58348198
 C     51  44  40     1.331393953108   125.45479355   239.35493740
 H     51  44  40     1.094755515896   115.56717250    60.45509412
 H     52  51  44     1.094885093838   118.86900885     1.09276626
 C     52  51  44     1.503257717234   125.57471006   179.69339327
 C     55  52  51     1.537420714739   109.07206895   244.90788961
 C     55  52  51     1.548763907277   111.06749305   120.73731395
 H     55  52  51     1.101900312093   108.27375769     2.84254959
 H     57  55  52     1.102219046125   107.16996967    59.10020119
 C     57  55  52     1.530948101217   110.97338553   300.95927546
 C     57  55  52     1.531491688939   112.06232537   177.78016115
 H     56  55  52     1.094973490344   110.33803514    51.82187047
 H     56  55  52     1.097335667025   110.51280980   292.52022508
 H     56  55  52     1.093932714026   111.85532773   171.98075321
 H     60  57  55     1.095540601002   110.80843674   179.06011495
 H     60  57  55     1.094173610767   111.68761924    58.16093512
 H     60  57  55     1.097956967129   110.26989870   298.42984135
 H     61  57  55     1.097790881455   110.39095477    56.03120051
 H     61  57  55     1.093644259638   112.42626099   295.25277034
 H     61  57  55     1.095568087618   110.41018191   175.05234288
 H     50  44  40     1.095353267061   110.18392996   187.52725145
 H     50  44  40     1.092926356173   111.75725718    67.61160846
 H     50  44  40     1.096905041483   110.76658816   306.98149842

---------------------------
INTERNAL COORDINATES (A.U.)
---------------------------
 C      0   0   0     0.000000000000     0.00000000     0.00000000
 C      1   0   0     2.854630137394     0.00000000     0.00000000
 C      2   1   0     2.897891873259   111.76287202     0.00000000
 H      2   1   3     2.084963724381   109.37109983   241.45376024
 H      2   1   3     2.070288768328   110.68629056   122.88888503
 C      1   2   3     2.793693302708   114.21145422    50.41736885
 C      6   1   2     2.857339614746   114.44903301   312.14407649
 C      3   2   1     2.880970220039   110.31657811   305.04063025
 H      7   6   1     2.079896777133   108.38679477   289.89269984
 H      7   6   1     2.069442554950   110.20512969   172.69696033
 H      8   3   2     2.071841388830   109.70139893   179.13298433
 H      8   3   2     2.079627361877   108.66198905   296.58108851
 O      3   2   1     2.709226195144   111.20473155   180.35135358
 H      3   2   1     2.076847397949   109.03304520    65.18954736
 C      1   2   3     2.558941688616   120.86294251   232.52581474
 C      6   1   2     2.528428290830   123.36778454   129.95752567
 H     16   6   1     2.053000849048   121.38745666     0.63562800
 H     16   6   1     2.054948180855   120.93743258   181.32968816
 C     15   1   2     2.729562026024   126.48816441   175.34921275
 H     15   1   2     2.058198983672   116.14019372   357.98690865
 C     19  15   1     2.551944844963   126.40468897   175.94832499
 H     19  15   1     2.055312594581   115.96307220   355.25016505
 C     21  19  15     2.849423128154   125.72097100   357.16147096
 C     23  21  19     2.910851863786   111.85977193   127.90557231
 H     23  21  19     2.066342792961   112.33195604     3.77321085
 H     23  21  19     2.082288793527   107.73008072   246.58192402
 C     24  23  21     2.900650789554   112.67132469    50.80048242
 H     24  23  21     2.073596315558   109.05692963   288.70802972
 H     24  23  21     2.072906760628   109.14594561   172.74669426
 C     27  24  23     2.900574934175   111.81601895   306.21829418
 H     27  24  23     2.069214152324   108.94641688   182.69661003
 H     27  24  23     2.079678660992   109.20436692    66.19939191
 C     21  19  15     2.830995163577   122.78561043   177.81721440
 H     33  21  19     2.089863008491   106.25594835   123.97057549
 C     33  21  19     2.883406948241   121.11257847     1.77862401
 H     13   3   2     1.826580638766   107.53861638    62.63567197
 C     35  33  21     2.926575838837   103.53307245   196.31168569
 H     35  33  21     2.069492055722   112.12075695    74.27855971
 H     35  33  21     2.070738332740   110.72095820   314.69778320
 C     30  27  24     2.936068193218   116.04024178   166.28321788
 H     37  35  33     2.068465209101   111.96558755   249.35548842
 H     37  35  33     2.071991511369   110.95209598   130.76949861
 H     40  30  27     2.083259340717   106.27702326   320.81889514
 C     40  30  27     2.913744981477   118.98677357    81.59534433
 C     30  27  24     2.899616474086   111.09381445   294.22228357
 H     45  30  27     2.068044759734   111.43721949    66.69098055
 H     45  30  27     2.070498660754   110.67940660   306.54478300
 H     45  30  27     2.068447785030   111.59137362   186.68787414
 H     44  40  30     2.079017915679   108.35934318    61.32743281
 C     44  40  30     2.903244284727   113.48739452   300.52416170
 C     44  40  30     2.845383835054   109.33705045   178.58348198
 C     51  44  40     2.515969947732   125.45479355   239.35493740
 H     51  44  40     2.068788108643   115.56717250    60.45509412
 H     52  51  44     2.069032975466   118.86900885     1.09276626
 C     52  51  44     2.840745394276   125.57471006   179.69339327
 C     55  52  51     2.905304103474   109.07206895   244.90788961
 C     55  52  51     2.926739630856   111.06749305   120.73731395
 H     55  52  51     2.082289816739   108.27375769     2.84254959
 H     57  55  52     2.082892136769   107.16996967    59.10020119
 C     57  55  52     2.893072636547   110.97338553   300.95927546
 C     57  55  52     2.894099868472   112.06232537   177.78016115
 H     56  55  52     2.069200020654   110.33803514    51.82187047
 H     56  55  52     2.073663887660   110.51280980   292.52022508
 H     56  55  52     2.067233238447   111.85532773   171.98075321
 H     60  57  55     2.070271704485   110.80843674   179.06011495
 H     60  57  55     2.067688467314   111.68761924    58.16093512
 H     60  57  55     2.074837974705   110.26989870   298.42984135
 H     61  57  55     2.074524118266   110.39095477    56.03120051
 H     61  57  55     2.066688138651   112.42626099   295.25277034
 H     61  57  55     2.070323646662   110.41018191   175.05234288
 H     50  44  40     2.069917694641   110.18392996   187.52725145
 H     50  44  40     2.065331497712   111.75725718    67.61160846
 H     50  44  40     2.072850123321   110.76658816   306.98149842

---------------------
BASIS SET INFORMATION
---------------------
There are 3 groups of distinct atoms

 Group   1 Type C   : 7s4p contracted to 4s3p pattern {4111/211}
 Group   2 Type H   : 5s contracted to 3s pattern {311}
 Group   3 Type O   : 7s4p contracted to 4s3p pattern {4111/211}

Atom   0C    basis set group =>   1
Atom   1C    basis set group =>   1
Atom   2C    basis set group =>   1
Atom   3H    basis set group =>   2
Atom   4H    basis set group =>   2
Atom   5C    basis set group =>   1
Atom   6C    basis set group =>   1
Atom   7C    basis set group =>   1
Atom   8H    basis set group =>   2
Atom   9H    basis set group =>   2
Atom  10H    basis set group =>   2
Atom  11H    basis set group =>   2
Atom  12O    basis set group =>   3
Atom  13H    basis set group =>   2
Atom  14C    basis set group =>   1
Atom  15C    basis set group =>   1
Atom  16H    basis set group =>   2
Atom  17H    basis set group =>   2
Atom  18C    basis set group =>   1
Atom  19H    basis set group =>   2
Atom  20C    basis set group =>   1
Atom  21H    basis set group =>   2
Atom  22C    basis set group =>   1
Atom  23C    basis set group =>   1
Atom  24H    basis set group =>   2
Atom  25H    basis set group =>   2
Atom  26C    basis set group =>   1
Atom  27H    basis set group =>   2
Atom  28H    basis set group =>   2
Atom  29C    basis set group =>   1
Atom  30H    basis set group =>   2
Atom  31H    basis set group =>   2
Atom  32C    basis set group =>   1
Atom  33H    basis set group =>   2
Atom  34C    basis set group =>   1
Atom  35H    basis set group =>   2
Atom  36C    basis set group =>   1
Atom  37H    basis set group =>   2
Atom  38H    basis set group =>   2
Atom  39C    basis set group =>   1
Atom  40H    basis set group =>   2
Atom  41H    basis set group =>   2
Atom  42H    basis set group =>   2
Atom  43C    basis set group =>   1
Atom  44C    basis set group =>   1
Atom  45H    basis set group =>   2
Atom  46H    basis set group =>   2
Atom  47H    basis set group =>   2
Atom  48H    basis set group =>   2
Atom  49C    basis set group =>   1
Atom  50C    basis set group =>   1
Atom  51C    basis set group =>   1
Atom  52H    basis set group =>   2
Atom  53H    basis set group =>   2
Atom  54C    basis set group =>   1
Atom  55C    basis set group =>   1
Atom  56C    basis set group =>   1
Atom  57H    basis set group =>   2
Atom  58H    basis set group =>   2
Atom  59C    basis set group =>   1
Atom  60C    basis set group =>   1
Atom  61H    basis set group =>   2
Atom  62H    basis set group =>   2
Atom  63H    basis set group =>   2
Atom  64H    basis set group =>   2
Atom  65H    basis set group =>   2
Atom  66H    basis set group =>   2
Atom  67H    basis set group =>   2
Atom  68H    basis set group =>   2
Atom  69H    basis set group =>   2
Atom  70H    basis set group =>   2
Atom  71H    basis set group =>   2
Atom  72H    basis set group =>   2

-------------------------
BASIS SET IN INPUT FORMAT
-------------------------

 # Basis set for element : H 
 NewGTO H 
 S 3 
   1    1357.7500000000      0.0012928364
   2      54.3100000000      0.0588280685
   3       4.3448000000      0.9761499708
 S 1 
   1       0.6604910000      1.0000000000
 S 1 
   1       0.1366870000      1.0000000000
  end;

 # Basis set for element : C 
 NewGTO C 
 S 4 
   1  139534.0000000000      0.0001655246
   2    5581.3600000000      0.0074486101
   3     446.5090000000      0.1285821065
   4      67.4620000000      0.9218029311
 S 1 
   1      15.0674000000      1.0000000000
 S 1 
   1       3.9387600000      1.0000000000
 S 1 
   1       0.2999150000      1.0000000000
 P 2 
   1      28.3900000000      0.0816325586
   2       4.3676900000      0.9660360576
 P 1 
   1       0.8698170000      1.0000000000
 P 1 
   1       0.1889340000      1.0000000000
  end;

 # Basis set for element : O 
 NewGTO O 
 S 4 
   1  253789.0000000000      0.0001641076
   2   10151.6000000000      0.0074010921
   3     812.1250000000      0.1277711901
   4     122.6930000000      0.9223372164
 S 1 
   1      27.5608000000      1.0000000000
 S 1 
   1       7.3172600000      1.0000000000
 S 1 
   1       0.5792400000      1.0000000000
 P 2 
   1      53.4157000000      0.0793786106
   2       8.2177900000      0.9670506337
 P 1 
   1       1.6754400000      1.0000000000
 P 1 
   1       0.3506720000      1.0000000000
  end;

---------------------------------
AUXILIARY/J BASIS SET INFORMATION
---------------------------------
There are 3 groups of distinct atoms

 Group   1 Type C   : 12s5p4d2f1g contracted to 6s4p3d1f1g pattern {711111/2111/211/2/1}
 Group   2 Type H   : 5s2p1d contracted to 3s1p1d pattern {311/2/1}
 Group   3 Type O   : 12s5p4d2f1g contracted to 6s4p3d1f1g pattern {711111/2111/211/2/1}

Atom   0C    basis set group =>   1
Atom   1C    basis set group =>   1
Atom   2C    basis set group =>   1
Atom   3H    basis set group =>   2
Atom   4H    basis set group =>   2
Atom   5C    basis set group =>   1
Atom   6C    basis set group =>   1
Atom   7C    basis set group =>   1
Atom   8H    basis set group =>   2
Atom   9H    basis set group =>   2
Atom  10H    basis set group =>   2
Atom  11H    basis set group =>   2
Atom  12O    basis set group =>   3
Atom  13H    basis set group =>   2
Atom  14C    basis set group =>   1
Atom  15C    basis set group =>   1
Atom  16H    basis set group =>   2
Atom  17H    basis set group =>   2
Atom  18C    basis set group =>   1
Atom  19H    basis set group =>   2
Atom  20C    basis set group =>   1
Atom  21H    basis set group =>   2
Atom  22C    basis set group =>   1
Atom  23C    basis set group =>   1
Atom  24H    basis set group =>   2
Atom  25H    basis set group =>   2
Atom  26C    basis set group =>   1
Atom  27H    basis set group =>   2
Atom  28H    basis set group =>   2
Atom  29C    basis set group =>   1
Atom  30H    basis set group =>   2
Atom  31H    basis set group =>   2
Atom  32C    basis set group =>   1
Atom  33H    basis set group =>   2
Atom  34C    basis set group =>   1
Atom  35H    basis set group =>   2
Atom  36C    basis set group =>   1
Atom  37H    basis set group =>   2
Atom  38H    basis set group =>   2
Atom  39C    basis set group =>   1
Atom  40H    basis set group =>   2
Atom  41H    basis set group =>   2
Atom  42H    basis set group =>   2
Atom  43C    basis set group =>   1
Atom  44C    basis set group =>   1
Atom  45H    basis set group =>   2
Atom  46H    basis set group =>   2
Atom  47H    basis set group =>   2
Atom  48H    basis set group =>   2
Atom  49C    basis set group =>   1
Atom  50C    basis set group =>   1
Atom  51C    basis set group =>   1
Atom  52H    basis set group =>   2
Atom  53H    basis set group =>   2
Atom  54C    basis set group =>   1
Atom  55C    basis set group =>   1
Atom  56C    basis set group =>   1
Atom  57H    basis set group =>   2
Atom  58H    basis set group =>   2
Atom  59C    basis set group =>   1
Atom  60C    basis set group =>   1
Atom  61H    basis set group =>   2
Atom  62H    basis set group =>   2
Atom  63H    basis set group =>   2
Atom  64H    basis set group =>   2
Atom  65H    basis set group =>   2
Atom  66H    basis set group =>   2
Atom  67H    basis set group =>   2
Atom  68H    basis set group =>   2
Atom  69H    basis set group =>   2
Atom  70H    basis set group =>   2
Atom  71H    basis set group =>   2
Atom  72H    basis set group =>   2

-------------------------------------
AUXILIARY/J BASIS SET IN INPUT FORMAT
-------------------------------------

 # Auxiliary/J basis set for element : H 
 NewAuxJGTO H 
 S 3 
   1      15.6752927000      0.1007184237
   2       3.6063578000      0.3404257499
   3       1.2080016000      0.6491996172
 S 1 
   1       0.4726794000      1.0000000000
 S 1 
   1       0.2018100000      1.0000000000
 P 2 
   1       2.0281365000      0.5596620919
   2       0.5358730000      0.5596620919
 D 1 
   1       2.2165124000      1.0000000000
  end;

 # Auxiliary/J basis set for element : C 
 NewAuxJGTO C 
 S 7 
   1    1861.0916331000      0.0134602335
   2     642.9939764000      0.0299160374
   3     235.1105725000      0.1008649584
   4      90.7028894000      0.2370970548
   5      36.7794552000      0.3924037254
   6      15.6046273000      0.3195862154
   7       6.8907294000      0.0530104441
 S 1 
   1       3.1478850000     -1.0000000000
 S 1 
   1       1.4777287000      1.0000000000
 S 1 
   1       0.7076466000      1.0000000000
 S 1 
   1       0.3430122000      1.0000000000
 S 1 
   1       0.1669453000      1.0000000000
 P 2 
   1      13.5472892000     -0.6769313712
   2       5.4669419000     -0.3779500978
 P 1 
   1       2.1751721000      1.0000000000
 P 1 
   1       0.8582194000      1.0000000000
 P 1 
   1       0.3376720000      1.0000000000
 D 2 
   1       5.9287253000     -0.3533329857
   2       1.9809209000     -0.7456525731
 D 1 
   1       0.8055417000     -1.0000000000
 D 1 
   1       0.3531244000     -1.0000000000
 F 2 
   1       1.6755626000      0.6311076882
   2       0.5997536000      0.4968166032
 G 1 
   1       1.0024600000     -1.0000000000
  end;

 # Auxiliary/J basis set for element : O 
 NewAuxJGTO O 
 S 7 
   1    2876.8216605000      0.0168151159
   2    1004.7443032000      0.0340137548
   3     369.7579954000      0.1194951309
   4     142.9442404000      0.2664627624
   5      57.8366425000      0.4202764046
   6      24.3864983000      0.2765077335
   7      10.6622662000      0.0057008815
 S 1 
   1       4.8070437000     -1.0000000000
 S 1 
   1       2.2210770000      1.0000000000
 S 1 
   1       1.0447795000      1.0000000000
 S 1 
   1       0.4968425000      1.0000000000
 S 1 
   1       0.2371384000      1.0000000000
 P 2 
   1      64.2613382000     -0.2731534179
   2      16.3006076000     -0.8168011598
 P 1 
   1       4.3550542000      1.0000000000
 P 1 
   1       1.2019554000      1.0000000000
 P 1 
   1       0.3354196000      1.0000000000
 D 2 
   1       9.2146611000     -0.4661230638
   2       2.8435251000     -0.6600908911
 D 1 
   1       0.9955759000     -1.0000000000
 D 1 
   1       0.3649441000     -1.0000000000
 F 2 
   1       2.6420115000      0.5931563945
   2       0.7345613000      0.5931563945
 G 1 
   1       1.3931000000     -1.0000000000
  end;


Checking for AutoStart:
The File: inpJ.gbw exists
Trying to determine its content:
     ... Fine, the file contains calculation information
     ... Fine, the calculation information was read
     ... Fine, the file contains a basis set
     ... Fine, the basis set was read
     ... Fine, the file contains a geometry
     ... Fine, the geometry was read
     ... Fine, the file contains a set of orbitals
     ... Fine, the orbitals can be read
     => possible old guess file was deleted
     => GBW file was renamed to GES file
     => GES file is set as startup file
     => Guess is set to MORead
     ... now leaving AutoStart



           ************************************************************
           *        Program running with 4 parallel MPI-processes     *
           *              working on a common directory               *
           ************************************************************
------------------------------------------------------------------------------
                             ORCA STARTUP CALCULATIONS
                           -- RI-GTO INTEGRALS CHOSEN --
------------------------------------------------------------------------------
------------------------------------------------------------------------------
                   ___                                                        
                  /   \      - P O W E R E D   B Y -                         
                 /     \                                                     
                 |  |  |   _    _      __       _____    __    __             
                 |  |  |  | |  | |    /  \     |  _  \  |  |  /  |          
                  \  \/   | |  | |   /    \    | | | |  |  | /  /          
                 / \  \   | |__| |  /  /\  \   | |_| |  |  |/  /          
                |  |  |   |  __  | /  /__\  \  |    /   |      \           
                |  |  |   | |  | | |   __   |  |    \   |  |\   \          
                \     /   | |  | | |  |  |  |  | |\  \  |  | \   \       
                 \___/    |_|  |_| |__|  |__|  |_| \__\ |__|  \__/        
                                                                              
                      - O R C A' S   B I G   F R I E N D -                    
                                      &                                       
                       - I N T E G R A L  F E E D E R -                       
                                                                              
 v1 FN, 2020, v2 2021, v3 2022-2024                                           
------------------------------------------------------------------------------


----------------------
SHARK INTEGRAL PACKAGE
----------------------

Number of atoms                             ...     73
Number of basis functions                   ...    509
Number of shells                            ...    335
Maximum angular momentum                    ...      1
Integral batch strategy                     ... SHARK/LIBINT Hybrid
RI-J (if used) integral strategy            ... SPLIT-RIJ (Revised 2003 algorithm where possible)
Printlevel                                  ...      1
Contraction scheme used                     ... SEGMENTED contraction
Prescreening option                         ... SCHWARTZ
   Thresh                                   ... 3.000e-11
   Tcut                                     ... 1.000e-12
   Tpresel                                  ... 1.000e-12 
Coulomb Range Separation                    ... NOT USED
Exchange Range Separation                   ... NOT USED
Multipole approximations                    ... NOT USED
Finite Nucleus Model                        ... NOT USED
CABS basis                                  ... NOT available
Auxiliary Coulomb fitting basis             ... AVAILABLE
   # of basis functions in Aux-J            ...   1905
   # of shells in Aux-J                     ...    655
   Maximum angular momentum in Aux-J        ...      4
Auxiliary J/K fitting basis                 ... NOT available
Auxiliary Correlation fitting basis         ... NOT available
Auxiliary 'external' fitting basis          ... NOT available

Checking pre-screening integrals            ... done (  0.0 sec) Dimension = 335
Check shell pair data                       ... done (  0.0 sec)
Shell pair information
Shell pair cut-off parameter TPreSel        ...   1.0e-12
Total number of shell pairs                 ...     56280
Shell pairs after pre-screening             ...     21426
Total number of primitive shell pairs       ...    145865
Primitive shell pairs kept                  ...     36872
          la=0 lb=0:  10785 shell pairs
          la=1 lb=0:   8811 shell pairs
          la=1 lb=1:   1830 shell pairs

Calculating one electron integrals          ... done (  0.0 sec)
Calculating RI/J V-Matrix + Cholesky decomp.... done (  0.2 sec)
Calculating Nuclear repulsion               ... done (  0.0 sec) ENN=   2749.141506634930 Eh

Diagonalization of the overlap matrix:
Smallest eigenvalue                        ... 7.548e-03
Time for diagonalization                   ...    0.025 sec
Threshold for overlap eigenvalues          ... 1.000e-07
Number of eigenvalues below threshold      ... 0
Time for construction of square roots      ...    0.012 sec
Total time needed                          ...    0.039 sec

-------------------
DFT GRID GENERATION
-------------------

General Integration Accuracy     IntAcc      ... 4.388
Radial Grid Type                 RadialGrid  ... OptM3 with GC (2021)
Angular Grid (max. ang.)         AngularGrid ... 4 (Lebedev-302)
Angular grid pruning method      GridPruning ... 4 (adaptive)
Weight generation scheme         WeightScheme... mBecke (2022)
Basis function cutoff            BFCut       ... 1.0000e-11
Integration weight cutoff        WCut        ... 1.0000e-14
Partially contracted basis set               ... off
Rotationally invariant grid construction     ... off
Angular grids for H and He will be reduced by one unit

Total number of grid points                  ...   310020
Total number of batches                      ...     4876
Average number of points per batch           ...       63
Average number of grid points per atom       ...     4247

--------------------
COSX GRID GENERATION
--------------------

GRIDX 1
-------
General Integration Accuracy     IntAcc      ... 3.816
Radial Grid Type                 RadialGrid  ... OptM3 with GC (2021)
Angular Grid (max. ang.)         AngularGrid ... 1 (Lebedev-50)
Angular grid pruning method      GridPruning ... 4 (adaptive)
Weight generation scheme         WeightScheme... mBecke (2022)
Basis function cutoff            BFCut       ... 1.0000e-11
Integration weight cutoff        WCut        ... 1.0000e-14
Partially contracted basis set               ... on
Rotationally invariant grid construction     ... off
Angular grids for H and He will be reduced by one unit

Total number of grid points                  ...    39443
Total number of batches                      ...      358
Average number of points per batch           ...      110
Average number of grid points per atom       ...      540
UseSFitting                                  ... on

GRIDX 2
-------
General Integration Accuracy     IntAcc      ... 4.020
Radial Grid Type                 RadialGrid  ... OptM3 with GC (2021)
Angular Grid (max. ang.)         AngularGrid ... 2 (Lebedev-110)
Angular grid pruning method      GridPruning ... 4 (adaptive)
Weight generation scheme         WeightScheme... mBecke (2022)
Basis function cutoff            BFCut       ... 1.0000e-11
Integration weight cutoff        WCut        ... 1.0000e-14
Partially contracted basis set               ... on
Rotationally invariant grid construction     ... off
Angular grids for H and He will be reduced by one unit

Total number of grid points                  ...    81489
Total number of batches                      ...      678
Average number of points per batch           ...      120
Average number of grid points per atom       ...     1116
UseSFitting                                  ... on

GRIDX 3
-------
General Integration Accuracy     IntAcc      ... 4.338
Radial Grid Type                 RadialGrid  ... OptM3 with GC (2021)
Angular Grid (max. ang.)         AngularGrid ... 3 (Lebedev-194)
Angular grid pruning method      GridPruning ... 4 (adaptive)
Weight generation scheme         WeightScheme... mBecke (2022)
Basis function cutoff            BFCut       ... 1.0000e-11
Integration weight cutoff        WCut        ... 1.0000e-14
Partially contracted basis set               ... on
Rotationally invariant grid construction     ... off
Angular grids for H and He will be reduced by one unit

Total number of grid points                  ...   176632
Total number of batches                      ...     1423
Average number of points per batch           ...      124
Average number of grid points per atom       ...     2420
UseSFitting                                  ... on
Initializing property integral containers    ... done (  0.0 sec)

SHARK setup successfully completed in   3.7 seconds

Maximum memory used throughout the entire STARTUP-calculation: 84.9 MB


           ************************************************************
           *        Program running with 4 parallel MPI-processes     *
           *              working on a common directory               *
           ************************************************************
-------------------------------------------------------------------------------
                                 ORCA GUESS
                   Start orbitals & Density for SCF / CASSCF
-------------------------------------------------------------------------------

------------
SCF SETTINGS
------------
Hamiltonian:
 Density Functional     Method          .... DFT(GTOs)
 Exchange Functional    Exchange        .... PBE
   PBE kappa parameter   XKappa         ....  0.804000
   PBE mue parameter    XMuePBE         ....  0.219520
 Correlation Functional Correlation     .... PBE
   PBE beta parameter  CBetaPBE         ....  0.066725
 LDA part of GGA corr.  LDAOpt          .... PW91-LDA
 Gradients option       PostSCFGGA      .... off
 Hybrid DFT is turned on
   Fraction HF Exchange ScalHFX         ....  0.250000
   Scaling of DF-GGA-X  ScalDFX         ....  0.750000
   Scaling of DF-GGA-C  ScalDFC         ....  1.000000
   Scaling of DF-LDA-C  ScalLDAC        ....  1.000000
   Perturbative correction              ....  0.000000
   NL short-range parameter             ....  6.900000
 RI-approximation to the Coulomb term is turned on
   Number of AuxJ basis functions       .... 1905
   RIJ-COSX (HFX calculated with COS-X)).... on


General Settings:
 Integral files         IntName         .... inpJ
 Hartree-Fock type      HFTyp           .... RHF
 Total Charge           Charge          ....    0
 Multiplicity           Mult            ....    1
 Number of Electrons    NEL             ....  220
 Basis Dimension        Dim             ....  509
 Nuclear Repulsion      ENuc            ....   2749.1415066349 Eh

Convergence Acceleration:
 AO-DIIS                CNVDIIS         .... on
   Start iteration      DIISMaxIt       ....    12
   Startup error        DIISStart       ....  0.200000
   # of expansion vecs  DIISMaxEq       ....     5
   Bias factor          DIISBfac        ....   1.050
   Max. coefficient     DIISMaxC        ....  10.000
 MO-DIIS                CNVKDIIS        .... off
 Trust-Rad. Augm. Hess. CNVTRAH         .... auto
   Auto Start mean grad. ratio tolernc. ....  1.125000
   Auto Start start iteration           ....     1
   Auto Start num. interpolation iter.  ....    10
   Max. Number of Micro iterations      ....    24
   Max. Number of Macro iterations      .... Maxiter - #DIIS iter
   Number of Davidson start vectors     ....     2
   Converg. threshold    (grad. norm)   ....   1.000e-04
   Grad. Scal. Fac. for Micro threshold ....   0.100
   Minimum threshold for Micro iter.    ....   1.000e-02
   NR start threshold (gradient norm)   ....   1.000e-04
   Initial trust radius                 ....   0.400
   Minimum AH scaling param. (alpha)    ....   1.000
   Maximum AH scaling param. (alpha)    .... 1000.000
   Quad. conv. algorithm                .... NR
   White noise on init. David. guess    .... on
   Maximum white noise                  ....   0.010
   Pseudo random numbers                .... off
   Inactive MOs                         .... canonical
   Orbital update algorithm             .... Taylor
   Preconditioner                       .... Diag
   Full preconditioner red. dimension   ....   250
 SOSCF                  CNVSOSCF        .... off
 Level Shifting         CNVShift        .... on
   Level shift para.    LevelShift      ....    0.2500
   Turn off err/grad.   ShiftErr        ....    0.0010
 Zerner damping         CNVZerner       .... off
 Static damping         CNVDamp         .... on
   Fraction old density DampFac         ....    0.7000
   Max. Damping (<1)    DampMax         ....    0.9800
   Min. Damping (>=0)   DampMin         ....    0.0000
   Turn off err/grad.   DampErr         ....    0.1000

SCF Procedure:
 Maximum # iterations   MaxIter         ....   125
 SCF integral mode      SCFMode         .... Direct
   Integral package                     .... SHARK and LIBINT hybrid scheme
 Reset frequency        DirectResetFreq ....    20
 Integral Threshold     Thresh          ....  3.000e-11 Eh
 Primitive CutOff       TCut            ....  1.000e-12 Eh

Convergence Tolerance:
 Convergence Check Mode ConvCheckMode   .... Total+1el-Energy
 Convergence forced     ConvForced      .... 0
 Energy Change          TolE            ....  1.000e-07 Eh
 1-El. energy change                    ....  1.000e-04 Eh
 DIIS Error             TolErr          ....  1.000e-07

---------------------
INITIAL GUESS: MOREAD
---------------------
Guess MOs are being read from file: inpJ.ges
Input Geometry matches current geometry (good)
Input basis set matches current basis set (good)
Occupation numbers will be reassigned to an Aufbau configuration
MOs were renormalized
MOs were reorthogonalized (Cholesky)
                      ------------------
                      INITIAL GUESS DONE (   0.1 sec)
                      ------------------
             **** ENERGY FILE WAS UPDATED (inpJ.en.tmp) ****
Finished Guess after   0.2 sec
Maximum memory used throughout the entire GUESS-calculation: 36.3 MB


           ************************************************************
           *        Program running with 4 parallel MPI-processes     *
           *              working on a common directory               *
           ************************************************************

-------------------------------------------------------------------------------------------
                                      ORCA LEAN-SCF
                              memory conserving SCF solver
-------------------------------------------------------------------------------------------

--------------------
CPCM SOLVATION MODEL
--------------------
CPCM parameters:
  Epsilon                                         ...       4.8030
  Refrac                                          ...       1.4459
  Rsolv                                           ...       1.3000
  Surface type                                    ... GAUSSIAN VDW
  Discretization scheme                           ... Constant charge density
    Threshold for H atoms                         ...       5.0000 (charges/Ang^2)
    Threshold for non-H atoms                     ...       5.0000 (charges/Ang^2)
  Epsilon function type                           ...         CPCM
Solvent:                                          ... CHLOROFORM
Radii:
  Scheme                                          ... Element-dependent radii
  Radius for C  used is    3.8550 Bohr (=   2.0400 Ang.)
  Radius for H  used is    2.4944 Bohr (=   1.3200 Ang.)
  Radius for O  used is    3.4469 Bohr (=   1.8240 Ang.)
Calculating surface                               ...        done! (  0.0s)
Cavity surface points                             ...         5468
Cavity Volume                                     ...    3615.5299
Cavity Surface-area                               ...    1818.2876
Calculating surface distance matrix               ...        done! (  0.4s)
Performing Cholesky decomposition & store         ...        done! (  1.2s)
Overall time for CPCM initialization              ...                 1.6s

----------------------------------------D-I-I-S--------------------------------------------
Iteration    Energy (Eh)           Delta-E    RMSDP     MaxDP     DIISErr   Damp  Time(sec)
-------------------------------------------------------------------------------------------
               ***  Starting incremental Fock matrix formation  ***
    1    -1165.5103318023611791     0.00e+00  4.45e-08  5.76e-06  8.13e-06  0.700   6.1

  HOMO= 109 E= -5.922 eV LUMO=  5.979 eV gap=  11.901 eV
    2    -1165.5103318402784680    -3.79e-08  3.00e-08  3.42e-06  3.82e-06  0.700   2.1
                 **** Energy Check signals convergence ****

  HOMO= 109 E= -5.922 eV LUMO=  5.979 eV gap=  11.901 eV

               *****************************************************
               *                     SUCCESS                       *
               *           SCF CONVERGED AFTER   2 CYCLES          *
               *****************************************************

Recomputing exchange energy using gridx3       ... done (   11.877 sec)
Old exchange energy                            :    -42.066976959 Eh
New exchange energy                            :    -42.067040228 Eh
Exchange energy change after final integration :     -0.000063269 Eh
Total energy after final integration           :  -1165.510395109 Eh
             **** ENERGY FILE WAS UPDATED (inpJ.en.tmp) ****

----------------
TOTAL SCF ENERGY
----------------

Total Energy       :      -1165.51039510897022 Eh          -31715.15022 eV

Components:
Nuclear Repulsion  :       2749.14150663493047 Eh           74807.94356 eV
Electronic Energy  :      -3914.63650437278056 Eh         -106522.67479 eV
One Electron Energy:      -7040.35060915696249 Eh         -191577.67970 eV
Two Electron Energy:       3125.71410478418193 Eh           85055.00490 eV
CPCM Dielectric    :         -0.01533410242836 Eh              -0.41726 eV

Virial components:
Potential Energy   :      -2322.41315403003227 Eh          -63196.07475 eV
Kinetic Energy     :       1156.90275892106229 Eh           31480.92453 eV
Virial Ratio       :          2.00744024173297

DFT components:
N(Alpha)           :      110.000245320135 electrons
N(Beta)            :      110.000245320135 electrons
N(Total)           :      220.000490640270 electrons
E(X)               :     -125.744219648918 Eh       
E(C)               :       -7.324958528450 Eh       
E(XC)              :     -133.069178177367 Eh       

CPCM Solvation Model Properties:
Surface-charge          :         -0.03371715126156
Corrected charge        :         -0.00000000000000
Outlying charge corr.   :          0.00003941036017 Eh               0.00107 eV
Free-energy (cav+disp)  :  This term is not implemented in the current solvation scheme

---------------
SCF CONVERGENCE
---------------

  Last Energy change         ...    3.7917e-08  Tolerance :   1.0000e-07
  Last MAX-Density change    ...    3.4184e-06  Tolerance :   1.0000e-05
  Last RMS-Density change    ...    2.9987e-08  Tolerance :   1.0000e-06
  Last DIIS Error            ...    3.8227e-06  Tolerance :   1.0000e-07


----------------
ORBITAL ENERGIES
----------------

  NO   OCC          E(Eh)            E(eV) 
   0   2.0000     -19.215143      -522.8706 
   1   2.0000     -10.301395      -280.3152 
   2   2.0000     -10.269548      -279.4486 
   3   2.0000     -10.266836      -279.3748 
   4   2.0000     -10.261904      -279.2406 
   5   2.0000     -10.256232      -279.0863 
   6   2.0000     -10.253487      -279.0116 
   7   2.0000     -10.250224      -278.9228 
   8   2.0000     -10.250071      -278.9186 
   9   2.0000     -10.249261      -278.8966 
  10   2.0000     -10.248828      -278.8848 
  11   2.0000     -10.246129      -278.8113 
  12   2.0000     -10.245381      -278.7910 
  13   2.0000     -10.244856      -278.7767 
  14   2.0000     -10.244671      -278.7717 
  15   2.0000     -10.244083      -278.7557 
  16   2.0000     -10.243913      -278.7511 
  17   2.0000     -10.243180      -278.7311 
  18   2.0000     -10.242060      -278.7006 
  19   2.0000     -10.241126      -278.6752 
  20   2.0000     -10.239256      -278.6243 
  21   2.0000     -10.234005      -278.4814 
  22   2.0000     -10.233738      -278.4742 
  23   2.0000     -10.232786      -278.4483 
  24   2.0000     -10.226698      -278.2826 
  25   2.0000     -10.226131      -278.2672 
  26   2.0000     -10.224640      -278.2266 
  27   2.0000     -10.222178      -278.1596 
  28   2.0000     -10.220368      -278.1103 
  29   2.0000      -1.045901       -28.4604 
  30   2.0000      -0.900781       -24.5115 
  31   2.0000      -0.883698       -24.0466 
  32   2.0000      -0.860467       -23.4145 
  33   2.0000      -0.846104       -23.0237 
  34   2.0000      -0.822587       -22.3837 
  35   2.0000      -0.813924       -22.1480 
  36   2.0000      -0.795171       -21.6377 
  37   2.0000      -0.794818       -21.6281 
  38   2.0000      -0.777810       -21.1653 
  39   2.0000      -0.757498       -20.6126 
  40   2.0000      -0.741233       -20.1700 
  41   2.0000      -0.735231       -20.0067 
  42   2.0000      -0.713736       -19.4218 
  43   2.0000      -0.701161       -19.0796 
  44   2.0000      -0.699182       -19.0257 
  45   2.0000      -0.693542       -18.8722 
  46   2.0000      -0.668994       -18.2042 
  47   2.0000      -0.657421       -17.8893 
  48   2.0000      -0.629251       -17.1228 
  49   2.0000      -0.621744       -16.9185 
  50   2.0000      -0.619422       -16.8553 
  51   2.0000      -0.605405       -16.4739 
  52   2.0000      -0.596766       -16.2388 
  53   2.0000      -0.576222       -15.6798 
  54   2.0000      -0.572639       -15.5823 
  55   2.0000      -0.554868       -15.0987 
  56   2.0000      -0.540550       -14.7091 
  57   2.0000      -0.529868       -14.4184 
  58   2.0000      -0.515070       -14.0158 
  59   2.0000      -0.510051       -13.8792 
  60   2.0000      -0.495644       -13.4872 
  61   2.0000      -0.489555       -13.3215 
  62   2.0000      -0.480951       -13.0873 
  63   2.0000      -0.478918       -13.0320 
  64   2.0000      -0.475878       -12.9493 
  65   2.0000      -0.468391       -12.7456 
  66   2.0000      -0.461606       -12.5609 
  67   2.0000      -0.458280       -12.4704 
  68   2.0000      -0.456994       -12.4355 
  69   2.0000      -0.450613       -12.2618 
  70   2.0000      -0.447708       -12.1828 
  71   2.0000      -0.441897       -12.0246 
  72   2.0000      -0.434608       -11.8263 
  73   2.0000      -0.430650       -11.7186 
  74   2.0000      -0.428337       -11.6556 
  75   2.0000      -0.423994       -11.5375 
  76   2.0000      -0.416402       -11.3309 
  77   2.0000      -0.413747       -11.2586 
  78   2.0000      -0.407613       -11.0917 
  79   2.0000      -0.402183       -10.9440 
  80   2.0000      -0.400846       -10.9076 
  81   2.0000      -0.397245       -10.8096 
  82   2.0000      -0.395975       -10.7750 
  83   2.0000      -0.391222       -10.6457 
  84   2.0000      -0.390128       -10.6159 
  85   2.0000      -0.385330       -10.4854 
  86   2.0000      -0.377756       -10.2793 
  87   2.0000      -0.371224       -10.1015 
  88   2.0000      -0.367521       -10.0008 
  89   2.0000      -0.366828        -9.9819 
  90   2.0000      -0.362413        -9.8617 
  91   2.0000      -0.356494        -9.7007 
  92   2.0000      -0.350307        -9.5323 
  93   2.0000      -0.344382        -9.3711 
  94   2.0000      -0.341978        -9.3057 
  95   2.0000      -0.340542        -9.2666 
  96   2.0000      -0.338827        -9.2200 
  97   2.0000      -0.333355        -9.0711 
  98   2.0000      -0.330577        -8.9955 
  99   2.0000      -0.329126        -8.9560 
 100   2.0000      -0.326310        -8.8794 
 101   2.0000      -0.324746        -8.8368 
 102   2.0000      -0.316814        -8.6210 
 103   2.0000      -0.316264        -8.6060 
 104   2.0000      -0.311618        -8.4795 
 105   2.0000      -0.299383        -8.1466 
 106   2.0000      -0.280072        -7.6211 
 107   2.0000      -0.274831        -7.4785 
 108   2.0000      -0.257782        -7.0146 
 109   2.0000      -0.217612        -5.9215 
 110   0.0000      -0.030259        -0.8234 
 111   0.0000       0.021222         0.5775 
 112   0.0000       0.027954         0.7607 
 113   0.0000       0.080254         2.1838 
 114   0.0000       0.088642         2.4121 
 115   0.0000       0.101094         2.7509 
 116   0.0000       0.103464         2.8154 
 117   0.0000       0.107450         2.9239 
 118   0.0000       0.109650         2.9837 
 119   0.0000       0.116771         3.1775 
 120   0.0000       0.118005         3.2111 
*Only the first 10 virtual orbitals were printed.

                    ********************************
                    * MULLIKEN POPULATION ANALYSIS *
                    ********************************

-----------------------
MULLIKEN ATOMIC CHARGES
-----------------------
   0 C :    0.107932
   1 C :   -0.499950
   2 C :   -0.054931
   3 H :    0.207242
   4 H :    0.222172
   5 C :    0.135567
   6 C :   -0.475781
   7 C :   -0.451691
   8 H :    0.214215
   9 H :    0.224076
  10 H :    0.229098
  11 H :    0.204648
  12 O :   -0.487366
  13 H :    0.233912
  14 C :   -0.283447
  15 C :   -0.516781
  16 H :    0.201369
  17 H :    0.196749
  18 C :   -0.260191
  19 H :    0.217840
  20 C :    0.151105
  21 H :    0.219081
  22 C :   -0.480097
  23 C :   -0.427159
  24 H :    0.211694
  25 H :    0.206525
  26 C :   -0.397100
  27 H :    0.208070
  28 H :    0.216807
  29 C :    0.003212
  30 H :    0.221425
  31 H :    0.194086
  32 C :   -0.229017
  33 H :    0.226862
  34 C :   -0.433375
  35 H :    0.343143
  36 C :   -0.416771
  37 H :    0.207149
  38 H :    0.198169
  39 C :   -0.187071
  40 H :    0.207174
  41 H :    0.205911
  42 H :    0.209825
  43 C :   -0.251320
  44 C :   -0.626615
  45 H :    0.208357
  46 H :    0.200114
  47 H :    0.205425
  48 H :    0.219558
  49 C :   -0.621090
  50 C :   -0.175841
  51 C :   -0.170354
  52 H :    0.207835
  53 H :    0.207752
  54 C :   -0.241967
  55 C :   -0.615905
  56 C :   -0.202978
  57 H :    0.213645
  58 H :    0.209647
  59 C :   -0.606683
  60 C :   -0.610949
  61 H :    0.206908
  62 H :    0.193794
  63 H :    0.210518
  64 H :    0.200946
  65 H :    0.208837
  66 H :    0.189894
  67 H :    0.192029
  68 H :    0.209157
  69 H :    0.205703
  70 H :    0.204570
  71 H :    0.211201
  72 H :    0.193481
Sum of atomic charges:    0.0000000

--------------------------------
MULLIKEN REDUCED ORBITAL CHARGES
--------------------------------
  0 C s       :     3.355888  s :     3.355888
      pz      :     1.009577  p :     2.536180
      px      :     0.794302
      py      :     0.732301

  1 C s       :     3.383636  s :     3.383636
      pz      :     1.022829  p :     3.116314
      px      :     0.946611
      py      :     1.146874

  2 C s       :     3.306287  s :     3.306287
      pz      :     1.063168  p :     2.748644
      px      :     0.794006
      py      :     0.891470

  3 H s       :     0.792758  s :     0.792758

  4 H s       :     0.777828  s :     0.777828

  5 C s       :     3.345358  s :     3.345358
      pz      :     0.825454  p :     2.519075
      px      :     0.939551
      py      :     0.754070

  6 C s       :     3.368333  s :     3.368333
      pz      :     1.032571  p :     3.107448
      px      :     0.946019
      py      :     1.128859

  7 C s       :     3.340459  s :     3.340459
      pz      :     1.190406  p :     3.111232
      px      :     0.988547
      py      :     0.932279

  8 H s       :     0.785785  s :     0.785785

  9 H s       :     0.775924  s :     0.775924

 10 H s       :     0.770902  s :     0.770902

 11 H s       :     0.795352  s :     0.795352

 12 O s       :     3.685517  s :     3.685517
      pz      :     1.647516  p :     4.801849
      px      :     1.284545
      py      :     1.869788

 13 H s       :     0.766088  s :     0.766088

 14 C s       :     3.392508  s :     3.392508
      pz      :     1.008223  p :     2.890939
      px      :     0.804902
      py      :     1.077814

 15 C s       :     3.386903  s :     3.386903
      pz      :     0.998508  p :     3.129878
      px      :     1.012492
      py      :     1.118878

 16 H s       :     0.798631  s :     0.798631

 17 H s       :     0.803251  s :     0.803251

 18 C s       :     3.396858  s :     3.396858
      pz      :     1.030156  p :     2.863334
      px      :     0.754769
      py      :     1.078409

 19 H s       :     0.782160  s :     0.782160

 20 C s       :     3.350459  s :     3.350459
      pz      :     0.956358  p :     2.498436
      px      :     0.752319
      py      :     0.789759

 21 H s       :     0.780919  s :     0.780919

 22 C s       :     3.372456  s :     3.372456
      pz      :     1.098481  p :     3.107640
      px      :     1.124057
      py      :     0.885102

 23 C s       :     3.327096  s :     3.327096
      pz      :     1.090077  p :     3.100063
      px      :     0.898082
      py      :     1.111903

 24 H s       :     0.788306  s :     0.788306

 25 H s       :     0.793475  s :     0.793475

 26 C s       :     3.349601  s :     3.349601
      pz      :     1.177085  p :     3.047499
      px      :     0.957608
      py      :     0.912806

 27 H s       :     0.791930  s :     0.791930

 28 H s       :     0.783193  s :     0.783193

 29 C s       :     3.317475  s :     3.317475
      pz      :     0.867963  p :     2.679313
      px      :     0.905741
      py      :     0.905609

 30 H s       :     0.778575  s :     0.778575

 31 H s       :     0.805914  s :     0.805914

 32 C s       :     3.362615  s :     3.362615
      pz      :     1.071277  p :     2.866402
      px      :     0.870397
      py      :     0.924729

 33 H s       :     0.773138  s :     0.773138

 34 C s       :     3.344530  s :     3.344530
      pz      :     1.187594  p :     3.088846
      px      :     0.935011
      py      :     0.966240

 35 H s       :     0.656857  s :     0.656857

 36 C s       :     3.336314  s :     3.336314
      pz      :     1.165195  p :     3.080458
      px      :     0.940895
      py      :     0.974368

 37 H s       :     0.792851  s :     0.792851

 38 H s       :     0.801831  s :     0.801831

 39 C s       :     3.337451  s :     3.337451
      pz      :     1.056953  p :     2.849619
      px      :     0.865070
      py      :     0.927596

 40 H s       :     0.792826  s :     0.792826

 41 H s       :     0.794089  s :     0.794089

 42 H s       :     0.790175  s :     0.790175

 43 C s       :     3.346570  s :     3.346570
      pz      :     1.070912  p :     2.904749
      px      :     0.881398
      py      :     0.952439

 44 C s       :     3.366085  s :     3.366085
      pz      :     0.960203  p :     3.260531
      px      :     1.156850
      py      :     1.143478

 45 H s       :     0.791643  s :     0.791643

 46 H s       :     0.799886  s :     0.799886

 47 H s       :     0.794575  s :     0.794575

 48 H s       :     0.780442  s :     0.780442

 49 C s       :     3.347459  s :     3.347459
      pz      :     1.145518  p :     3.273631
      px      :     1.157542
      py      :     0.970571

 50 C s       :     3.334821  s :     3.334821
      pz      :     1.055372  p :     2.841020
      px      :     0.894590
      py      :     0.891058

 51 C s       :     3.335504  s :     3.335504
      pz      :     1.052364  p :     2.834850
      px      :     0.895435
      py      :     0.887051

 52 H s       :     0.792165  s :     0.792165

 53 H s       :     0.792248  s :     0.792248

 54 C s       :     3.338502  s :     3.338502
      pz      :     1.073078  p :     2.903464
      px      :     0.888379
      py      :     0.942007

 55 C s       :     3.343762  s :     3.343762
      pz      :     1.148088  p :     3.272143
      px      :     1.158800
      py      :     0.965255

 56 C s       :     3.310370  s :     3.310370
      pz      :     1.062793  p :     2.892608
      px      :     0.893014
      py      :     0.936801

 57 H s       :     0.786355  s :     0.786355

 58 H s       :     0.790353  s :     0.790353

 59 C s       :     3.341084  s :     3.341084
      pz      :     1.148398  p :     3.265599
      px      :     1.153858
      py      :     0.963343

 60 C s       :     3.341631  s :     3.341631
      pz      :     1.126411  p :     3.269318
      px      :     1.026956
      py      :     1.115951

 61 H s       :     0.793092  s :     0.793092

 62 H s       :     0.806206  s :     0.806206

 63 H s       :     0.789482  s :     0.789482

 64 H s       :     0.799054  s :     0.799054

 65 H s       :     0.791163  s :     0.791163

 66 H s       :     0.810106  s :     0.810106

 67 H s       :     0.807971  s :     0.807971

 68 H s       :     0.790843  s :     0.790843

 69 H s       :     0.794297  s :     0.794297

 70 H s       :     0.795430  s :     0.795430

 71 H s       :     0.788799  s :     0.788799

 72 H s       :     0.806519  s :     0.806519


------------------------
MULLIKEN OVERLAP CHARGES
------------------------
B(  0-C ,  1-C ) :   0.4960 B(  0-C ,  2-C ) :  -0.1306 B(  0-C ,  3-H ) :  -0.0876 
B(  0-C ,  4-H ) :  -0.0673 B(  0-C ,  5-C ) :   0.4214 B(  0-C ,  6-C ) :  -0.1563 
B(  0-C , 14-C ) :   0.9461 B(  0-C , 15-C ) :  -0.2027 B(  0-C , 18-C ) :  -0.1836 
B(  0-C , 19-H ) :  -0.0751 B(  1-C ,  2-C ) :   0.5270 B(  1-C ,  3-H ) :   0.7958 
B(  1-C ,  4-H ) :   0.8136 B(  1-C ,  5-C ) :  -0.1483 B(  1-C ,  7-C ) :  -0.1691 
B(  1-C , 12-O ) :  -0.0832 B(  1-C , 13-H ) :  -0.0843 B(  1-C , 14-C ) :  -0.1079 
B(  2-C ,  3-H ) :  -0.0820 B(  2-C ,  4-H ) :  -0.0581 B(  2-C ,  6-C ) :  -0.1288 
B(  2-C ,  7-C ) :   0.5343 B(  2-C , 10-H ) :  -0.0697 B(  2-C , 11-H ) :  -0.0825 
B(  2-C , 12-O ) :   0.6904 B(  2-C , 13-H ) :   0.7985 B(  2-C , 35-H ) :  -0.1132 
B(  5-C ,  6-C ) :   0.5390 B(  5-C ,  7-C ) :  -0.1712 B(  5-C ,  8-H ) :  -0.0880 
B(  5-C ,  9-H ) :  -0.0737 B(  5-C , 14-C ) :  -0.1964 B(  5-C , 15-C ) :   1.0582 
B(  5-C , 16-H ) :  -0.0995 B(  5-C , 17-H ) :  -0.0943 B(  6-C ,  7-C ) :   0.5411 
B(  6-C ,  8-H ) :   0.8037 B(  6-C ,  9-H ) :   0.8190 B(  6-C , 11-H ) :  -0.0738 
B(  6-C , 15-C ) :  -0.1290 B(  7-C ,  8-H ) :  -0.0769 B(  7-C , 10-H ) :   0.8058 
B(  7-C , 11-H ) :   0.7945 B(  7-C , 12-O ) :  -0.0901 B(  7-C , 13-H ) :  -0.0842 
B( 12-O , 35-H ) :   0.6599 B( 14-C , 18-C ) :   0.6127 B( 14-C , 19-H ) :   0.8251 
B( 14-C , 20-C ) :  -0.1952 B( 14-C , 21-H ) :  -0.0733 B( 15-C , 16-H ) :   0.8143 
B( 15-C , 17-H ) :   0.8069 B( 18-C , 19-H ) :  -0.0610 B( 18-C , 20-C ) :   0.9218 
B( 18-C , 21-H ) :   0.8317 B( 18-C , 22-C ) :  -0.1497 B( 18-C , 32-C ) :  -0.1482 
B( 20-C , 21-H ) :  -0.0846 B( 20-C , 22-C ) :   0.5326 B( 20-C , 23-C ) :  -0.1706 
B( 20-C , 24-H ) :  -0.0667 B( 20-C , 25-H ) :  -0.0929 B( 20-C , 29-C ) :  -0.1245 
B( 20-C , 32-C ) :   0.5177 B( 20-C , 33-H ) :  -0.0919 B( 20-C , 34-C ) :  -0.0985 
[...]
        0.0000         1.3253        0.0000
        0.0000         0.0000        1.3253

 Diagonalized JT*J matrix:
 
 J[55,60](FC)             1.325            1.325            1.325  iso=      1.325
                ---------------  ---------------  ---------------  ---------------
 J[55,60](Total)          1.325            1.325            1.325  iso=      1.325



-----------------------------------------------------------
 NUCLEUS A = C   56 NUCLEUS B = C   59 
 ( 13C  gnA =  1.405  13C  gnB =  1.405) r(AB) =     1.5309
-----------------------------------------------------------

Fermi-contact contribution to J (Hz):
       27.4174         0.0000        0.0000
        0.0000        27.4174        0.0000
        0.0000         0.0000       27.4174

Total spin-spin coupling tensor J (Hz):
       27.4174         0.0000        0.0000
        0.0000        27.4174        0.0000
        0.0000         0.0000       27.4174

 Diagonalized JT*J matrix:
 
 J[56,59](FC)            27.417           27.417           27.417  iso=     27.417
                ---------------  ---------------  ---------------  ---------------
 J[56,59](Total)         27.417           27.417           27.417  iso=     27.417



-----------------------------------------------------------
 NUCLEUS A = C   56 NUCLEUS B = C   60 
 ( 13C  gnA =  1.405  13C  gnB =  1.405) r(AB) =     1.5315
-----------------------------------------------------------

Fermi-contact contribution to J (Hz):
       26.7427         0.0000        0.0000
        0.0000        26.7427        0.0000
        0.0000         0.0000       26.7427

Total spin-spin coupling tensor J (Hz):
       26.7427         0.0000        0.0000
        0.0000        26.7427        0.0000
        0.0000         0.0000       26.7427

 Diagonalized JT*J matrix:
 
 J[56,60](FC)            26.743           26.743           26.743  iso=     26.743
                ---------------  ---------------  ---------------  ---------------
 J[56,60](Total)         26.743           26.743           26.743  iso=     26.743



-----------------------------------------------------------
 NUCLEUS A = C   59 NUCLEUS B = C   60 
 ( 13C  gnA =  1.405  13C  gnB =  1.405) r(AB) =     2.5059
-----------------------------------------------------------

Fermi-contact contribution to J (Hz):
       -0.9851         0.0000        0.0000
        0.0000        -0.9851        0.0000
        0.0000         0.0000       -0.9851

Total spin-spin coupling tensor J (Hz):
       -0.9851         0.0000        0.0000
        0.0000        -0.9851        0.0000
        0.0000         0.0000       -0.9851

 Diagonalized JT*J matrix:
 
 J[59,60](FC)            -0.985           -0.985           -0.985  iso=     -0.985
                ---------------  ---------------  ---------------  ---------------
 J[59,60](Total)         -0.985           -0.985           -0.985  iso=     -0.985



-----------------------------------------------------------------------------
                SUMMARY OF ISOTROPIC COUPLING CONSTANTS J (Hz)                
-----------------------------------------------------------------------------
                  0 C        1 C        2 C        5 C        6 C        7 C  
      0 C        0.000     32.410     -2.380     42.216     -0.173      0.889
      1 C       32.410      0.000     25.320     -1.180      0.382     -0.382
      2 C       -2.380     25.320      0.000      2.022     -1.356     25.813
      5 C       42.216     -1.180      2.022      0.000     31.003     -2.889
      6 C       -0.173      0.382     -1.356     31.003      0.000     23.084
      7 C        0.889     -0.382     25.813     -2.889     23.084      0.000
     14 C       70.209     -0.375      3.571     -3.187      2.737     -0.706
     15 C       -3.283      2.729     -0.835     64.274     -0.892      2.837
     18 C       -2.642      4.229     -1.069      3.280     -1.015      0.207
     20 C        6.951     -1.153      1.255     -1.508      0.782     -0.147
     22 C       -0.942      0.333     -0.380      0.447     -0.236      0.047
     23 C        0.791     -0.269      0.290     -0.331      0.188      0.000
     26 C       -0.077      0.030      0.000      0.041      0.000      0.000
     29 C        1.127     -0.361      0.000     -0.488      0.257      0.000
     32 C       -1.151      0.556     -0.413      0.515     -0.276      0.058
     34 C        0.021     -0.015      0.016     -0.017      0.008     -0.002
     36 C       -0.013      0.000      0.000      0.015     -0.008      0.000
     39 C       -0.078      0.000      0.000      0.033      0.000      0.000
     43 C        0.000      0.000      0.000      0.000      0.000      0.000
     44 C        0.006     -0.002      0.003     -0.005      0.004     -0.000
     49 C        0.000      0.000      0.000      0.000      0.000      0.000
     50 C        0.000      0.000      0.000      0.000      0.000      0.000
     51 C        0.000      0.000      0.000      0.000      0.000      0.000
     54 C        0.000      0.000      0.000      0.000      0.000      0.000
     55 C        0.000      0.000      0.000      0.000      0.000      0.000
     56 C        0.000      0.000      0.000      0.000      0.000      0.000
     59 C        0.000      0.000      0.000      0.000      0.000      0.000
     60 C        0.000      0.000      0.000      0.000      0.000      0.000
                 14 C       15 C       18 C       20 C       22 C       23 C  
      0 C       70.209     -3.283     -2.642      6.951     -0.942      0.791
      1 C       -0.375      2.729      4.229     -1.153      0.333     -0.269
      2 C        3.571     -0.835     -1.069      1.255     -0.380      0.290
      5 C       -3.187     64.274      3.280     -1.508      0.447     -0.331
      6 C        2.737     -0.892     -1.015      0.782     -0.236      0.188
      7 C       -0.706      2.837      0.207     -0.147      0.047      0.000
     14 C        0.000      3.065     54.481     -2.778      3.875     -0.887
     15 C        3.065      0.000     -1.125      1.071     -0.276      0.236
     18 C       54.481     -1.125      0.000     70.003     -2.167      2.465
     20 C       -2.778      1.071     70.003      0.000     32.240     -2.859
     22 C        3.875     -0.276     -2.167     32.240      0.000     24.467
     23 C       -0.887      0.236      2.465     -2.859     24.467      0.000
     26 C        0.115     -0.021     -0.366      1.020     -1.918     25.397
     29 C       -1.155      0.342      2.403     -2.361      1.107     -2.185
     32 C        4.410     -0.338     -1.325     36.965     -0.212      1.521
     34 C        0.064      0.004      2.450     -1.344      1.617     -0.251
     36 C        0.011     -0.014     -0.151      3.417      0.071      0.180
     39 C        0.265     -0.023     -0.044      2.905     -0.335      2.532
     43 C        0.013      0.000      0.301      0.196      0.000     -0.112
     44 C        0.005      0.002     -0.078      0.696     -0.134      0.615
     49 C        0.000      0.000     -0.010     -0.051      0.137      0.043
     50 C        0.000      0.000      0.023      0.130     -0.006      0.114
     51 C        0.000      0.000      0.017      0.050      0.000     -0.003
     54 C        0.000      0.000      0.000      0.000      0.000      0.000
     55 C        0.000      0.000      0.000      0.000      0.000      0.000
     56 C        0.000      0.000      0.000      0.000      0.000      0.000
     59 C        0.000      0.000      0.000      0.000      0.000      0.000
     60 C        0.000      0.000      0.000      0.000      0.000      0.000
                 26 C       29 C       32 C       34 C       36 C       39 C  
      0 C       -0.077      1.127     -1.151      0.021     -0.013     -0.078
      1 C        0.030     -0.361      0.556     -0.015      0.000      0.000
      2 C        0.000      0.000     -0.413      0.016      0.000      0.000
      5 C        0.041     -0.488      0.515     -0.017      0.015      0.033
      6 C        0.000      0.257     -0.276      0.008     -0.008      0.000
      7 C        0.000      0.000      0.058     -0.002      0.000      0.000
     14 C        0.115     -1.155      4.410      0.064      0.011      0.265
     15 C       -0.021      0.342     -0.338      0.004     -0.014     -0.023
     18 C       -0.366      2.403     -1.325      2.450     -0.151     -0.044
     20 C        1.020     -2.361     36.965     -1.344      3.417      2.905
     22 C       -1.918      1.107     -0.212      1.617      0.071     -0.335
     23 C       25.397     -2.185      1.521     -0.251      0.180      2.532
     26 C        0.000     27.815     -0.931      2.297      3.034     -0.601
     29 C       27.815      0.000     23.360      0.782      0.769     28.376
     32 C       -0.931     23.360      0.000     27.899      1.188      3.374
     34 C        2.297      0.782     27.899      0.000     25.942      0.201
     36 C        3.034      0.769      1.188     25.942      0.000     26.943
     39 C       -0.601     28.376      3.374      0.201     26.943      0.000
     43 C       -0.023     -0.619      2.724      1.829      0.366     28.889
     44 C       -0.567     27.246     -0.967      0.800      0.300     -1.174
     49 C        0.354      0.070     -0.034      0.048      3.240     -1.240
     50 C       -0.120      3.539     -0.088     -0.045      0.649     -1.891
     51 C       -0.022      0.228      0.128      0.064     -0.017      3.267
     54 C       -0.001      0.088     -0.015     -0.004     -0.032     -0.520
     55 C       -0.007      0.120      0.034     -0.005     -0.034      1.004
     56 C        0.000     -0.002      0.000      0.008      0.045      0.477
     59 C        0.000     -0.000      0.000      0.000      0.000      0.064
     60 C        0.000      0.000      0.000      0.000     -0.003     -0.016
                 43 C       44 C       49 C       50 C       51 C       54 C  
      0 C        0.000      0.006      0.000      0.000      0.000      0.000
      1 C        0.000     -0.002      0.000      0.000      0.000      0.000
      2 C        0.000      0.003      0.000      0.000      0.000      0.000
      5 C        0.000     -0.005      0.000      0.000      0.000      0.000
      6 C        0.000      0.004      0.000      0.000      0.000      0.000
      7 C        0.000     -0.000      0.000      0.000      0.000      0.000
     14 C        0.013      0.005      0.000      0.000      0.000      0.000
     15 C        0.000      0.002      0.000      0.000      0.000      0.000
     18 C        0.301     -0.078     -0.010      0.023      0.017      0.000
     20 C        0.196      0.696     -0.051      0.130      0.050      0.000
     22 C        0.000     -0.134      0.137     -0.006      0.000      0.000
     23 C       -0.112      0.615      0.043      0.114     -0.003      0.000
     26 C       -0.023     -0.567      0.354     -0.120     -0.022     -0.001
     29 C       -0.619     27.246      0.070      3.539      0.228      0.088
     32 C        2.724     -0.967     -0.034     -0.088      0.128     -0.015
     34 C        1.829      0.800      0.048     -0.045      0.064     -0.004
     36 C        0.366      0.300      3.240      0.649     -0.017     -0.032
     39 C       28.889     -1.174     -1.240     -1.891      3.267     -0.520
     43 C        0.000      1.432     25.836     35.973     -0.405      4.111
     44 C        1.432      0.000     -0.102     -0.168     -0.007      0.001
     49 C       25.836     -0.102      0.000     -3.049      3.502     -0.778
     50 C       35.973     -0.168     -3.049      0.000     69.416     -0.680
     51 C       -0.405     -0.007      3.502     69.416      0.000     36.452
     54 C        4.111      0.001     -0.778     -0.680     36.452      0.000
     55 C       -0.718     -0.002      1.080      3.546     -2.782     26.521
     56 C       -0.523      0.001      1.047      3.300     -1.727     26.175
     59 C       -0.043     -0.000     -0.016      0.009      0.766     -0.519
     60 C        0.098      0.000      0.096      0.103      3.373     -0.588
                 55 C       56 C       59 C       60 C  
      0 C        0.000      0.000      0.000      0.000
      1 C        0.000      0.000      0.000      0.000
      2 C        0.000      0.000      0.000      0.000
      5 C        0.000      0.000      0.000      0.000
      6 C        0.000      0.000      0.000      0.000
      7 C        0.000      0.000      0.000      0.000
     14 C        0.000      0.000      0.000      0.000
     15 C        0.000      0.000      0.000      0.000
     18 C        0.000      0.000      0.000      0.000
     20 C        0.000      0.000      0.000      0.000
     22 C        0.000      0.000      0.000      0.000
     23 C        0.000      0.000      0.000      0.000
     26 C       -0.007      0.000      0.000      0.000
     29 C        0.120     -0.002     -0.000      0.000
     32 C        0.034      0.000      0.000      0.000
     34 C       -0.005      0.008      0.000      0.000
     36 C       -0.034      0.045      0.000     -0.003
     39 C        1.004      0.477      0.064     -0.016
     43 C       -0.718     -0.523     -0.043      0.098
     44 C       -0.002      0.001     -0.000      0.000
     49 C        1.080      1.047     -0.016      0.096
     50 C        3.546      3.300      0.009      0.103
     51 C       -2.782     -1.727      0.766      3.373
     54 C       26.521     26.175     -0.519     -0.588
     55 C        0.000     -1.104      2.670      1.325
     56 C       -1.104      0.000     27.417     26.743
     59 C        2.670     27.417      0.000     -0.985
     60 C        1.325     26.743     -0.985      0.000

NMR spin-spin coupling calculation done in   0.3 sec 

Maximum memory used throughout the entire PROP-calculation: 33.8 MB

--------------------------------
SUGGESTED CITATIONS FOR THIS RUN
--------------------------------

Below you find a list of papers that are relevant to this ORCA run
We neither can nor want to force you to cite these papers, but we appreciate if you do
You receive ORCA, which is the product of decades of hard work by many enthusiastic individuals, for free
The only thing we kindly ask in return is that you cite our papers,
We deeply appreciate it, if you show your appreciation for ORCA by not just citing the generic ORCA reference.

Please note that relegating all ORCA citations to the supporting information does *not* help us.
SI sections are not indexed - citations you put there will not count into any citation statistics
But we need these citations in order to attract the funding resources that allow us to do what we are doing

Therefore, if you are a happy ORCA user, please consider citing a few of the papers listed below in the main body of your paper

In addition to the list printed below, the program has created the file inpJ.bibtex that contains the list in bibtex format
You can import this file easily into all common literature databanks and citation aid programs


List of essential papers. We consider these as the minimum necessary citations

  1. Neese,F.
     Software update: the ORCA program system, version 5.0
     WIRES Comput. Molec. Sci., 2022 12(1)e1606
     doi.org/10.1002/wcms.1606

List of papers to cite with high priority. The work reported in these papers was absolutely
necessary for this run to complete.
Our perspective: the developers of density functionals and basis sets usually get cited in chemistry papers
Good! But without the algorithms to do something with them, the functionals or basis sets would not do anything.
Hence, in our opinion, the algorithm design and method developments papers are equally worthy of getting cited

  1. Neese,F.
     An improvement of the resolution of the identity approximation for the formation of the Coulomb matrix
     J. Comp. Chem., 2003 24(14)1740-1747
     doi.org/10.1002/jcc.10318
  2. Neese,F.; Wennmohs,F.; Hansen,A.; Becker,U.
     Efficient, approximate and parallel Hartree-Fock and hybrid DFT calculations. A 'chain-of-spheres' algorithm for the Hartree-Fock exchange
     Chem. Phys., 2009 356(1-3)98-109
     doi.org/10.1016/j.chemphys.2008.10.036
  3. Stoychev,G.L.; Auer,A.A.; Izsak,R.; Neese,F.
     Self-Consistent Field Calculation of Nuclear Magnetic Resonance Chemical Shielding Constants Using Gauge-Including Atomic Orbitals and Approximate Two-Electron Integrals
     J. Chem. Theory Comput., 2018 14(2)619-637
     doi.org/10.1021/acs.jctc.7b01006
  4. Garcia-Rates,M.; Neese,F.
     Effect of the Solute Cavity on the Solvation Energy and its Derivatives within the Framework of the Gaussian Charge Scheme
     J. Comput. Chem., 2020 41 922-939
     doi.org/10.1002/jcc.26139
  5. Helmich-Paris,B.; de Souza,B.; Neese,F.; Izsák,R.
     An improved chain of spheres for exchange algorithm
     J. Chem. Phys., 2021 155 104109
     doi.org/doi: 10.1063/5.0058766.
  6. Neese,F.
     The SHARK Integral Generation and Digestion System
     J. Comp. Chem., 2022  1-16
     doi.org/10.1002/jcc.26942
  7. Grimme,S.; Bannwarth,C.; Dohm,S.; Hansen,A.; Pisarek,J.; Pracht,P.; Seibert,J.; Neese,F.
     Fully Automated Quantum-Chemistry-Based Computation of Spin-Spin-Coupled Nuclear Magnetic Resonance Spectra
     Angew. Chem., Int. Ed., 2017 56 14763-14769
     doi.org/10.1002/anie.201708266
  8. Caldeweyher,E.; Bannwarth,C.; Grimme,S.
     Extension of the D3 dispersion coefficient model
     J. Chem. Phys., 2017 147 034112-XXXX
     doi.org/10.1063/1.4993215
  9. Caldeweyher,E.; Ehlert,S.; Hansen,A.; Neugebauer,H.; Spicher,S.; Bannwarth,C.; Grimme,S.
     A generally applicable atomic-charge dependent London dispersion correction
     J. Chem. Phys., 2019 150 154122-XXXX
     doi.org/10.1063/1.5090222
 10. Caldeweyher,E.; Mewes,J.; Ehlert,S.; Grimme,S.
     Extension and evaluation of the D4 London-dispersion model for periodic systems
     Phys. Chem. Chem. Phys., 2020 22(16)8499-8512
     doi.org/10.1039/D0CP00502A

List of suggested additional citations. These are papers that are important in the 'surrounding' of 
of this run, or papers that preceded the highly important papers. If you like your results we are grateful for a citation.

  1. Izsak,R.; Neese,F.
     An overlap fitted chain of spheres exchange method
     J. Chem. Phys., 2011 135 144105
     doi.org/10.1063/1.3646921
  2. Izsak,R.; Hansen,A.; Neese,F.
     The resolution of identity and chain of spheres approximations for the LPNO-CCSD singles Fock term
     Molec. Phys., 2012 110 2413-2417
     doi.org/10.1080/00268976.2012.687466
  3. Neese,F.
     The ORCA program system
     WIRES Comput. Molec. Sci., 2012 2(1)73-78
     doi.org/10.1002/wcms.81
  4. Izsak,R.; Neese,F.; Klopper,W.
     Robust fitting techniques in the chain of spheres approximation to the Fock exchange: The role of the complementary space
     J. Chem. Phys., 2013 139 
     doi.org/10.1063/1.4819264
  5. Neese,F.
     Software update: the ORCA program system, version 4.0
     WIRES Comput. Molec. Sci., 2018 8(1)1-6
     doi.org/10.1002/wcms.1327
  6. Neese,F.; Wennmohs,F.; Becker,U.; Riplinger,C.
     The ORCA quantum chemistry program package
     J. Chem. Phys., 2020 152 Art. No. L224108
     doi.org/10.1063/5.0004608

Timings for individual modules:

Sum of individual times          ...      138.010 sec (=   2.300 min)
Startup calculation              ...        3.861 sec (=   0.064 min)   2.8 %
SCF iterations                   ...       23.002 sec (=   0.383 min)  16.7 %
Property integrals               ...        0.790 sec (=   0.013 min)   0.6 %
SCF Response                     ...      109.798 sec (=   1.830 min)  79.6 %
Property calculations            ...        0.559 sec (=   0.009 min)   0.4 %
                             ****ORCA TERMINATED NORMALLY****
TOTAL RUN TIME: 0 days 0 hours 2 minutes 18 seconds 307 msec
