
                                 *****************
                                 * O   R   C   A *
                                 *****************

                                            #,                                       
                                            ###                                      
                                            ####                                     
                                            #####                                    
                                            ######                                   
                                           ########,                                 
                                     ,,################,,,,,                         
                               ,,#################################,,                 
                          ,,##########################################,,             
                       ,#########################################, ''#####,          
                    ,#############################################,,   '####,        
                  ,##################################################,,,,####,       
                ,###########''''           ''''###############################       
              ,#####''   ,,,,##########,,,,          '''####'''          '####       
            ,##' ,,,,###########################,,,                        '##       
           ' ,,###''''                  '''############,,,                           
         ,,##''                                '''############,,,,        ,,,,,,###''
      ,#''                                            '''#######################'''  
     '                                                          ''''####''''         
             ,#######,   #######,   ,#######,      ##                                
            ,#'     '#,  ##    ##  ,#'     '#,    #''#        ######   ,####,        
            ##       ##  ##   ,#'  ##            #'  '#       #        #'  '#        
            ##       ##  #######   ##           ,######,      #####,   #    #        
            '#,     ,#'  ##    ##  '#,     ,#' ,#      #,         ##   #,  ,#        
             '#######'   ##     ##  '#######'  #'      '#     #####' # '####'        



                  #######################################################
                  #                        -***-                        #
                  #          Department of theory and spectroscopy      #
                  #    Directorship and core code : Frank Neese         #
                  #        Max Planck Institute fuer Kohlenforschung    #
                  #                Kaiser Wilhelm Platz 1               #
                  #                 D-45470 Muelheim/Ruhr               #
                  #                      Germany                        #
                  #                                                     #
                  #                  All rights reserved                #
                  #                        -***-                        #
                  #######################################################


                         Program Version 5.0.2 -  RELEASE  -


 With contributions from (in alphabetic order):
   Daniel Aravena         : Magnetic Suceptibility
   Michael Atanasov       : Ab Initio Ligand Field Theory (pilot matlab implementation)
   Alexander A. Auer      : GIAO ZORA, VPT2 properties, NMR spectrum
   Ute Becker             : Parallelization
   Giovanni Bistoni       : ED, misc. LED, open-shell LED, HFLD
   Martin Brehm           : Molecular dynamics
   Dmytro Bykov           : SCF Hessian
   Vijay G. Chilkuri      : MRCI spin determinant printing, contributions to CSF-ICE
   Dipayan Datta          : RHF DLPNO-CCSD density
   Achintya Kumar Dutta   : EOM-CC, STEOM-CC
   Dmitry Ganyushin       : Spin-Orbit,Spin-Spin,Magnetic field MRCI
   Miquel Garcia          : C-PCM and meta-GGA Hessian, CC/C-PCM, Gaussian charge scheme
   Yang Guo               : DLPNO-NEVPT2, F12-NEVPT2, CIM, IAO-localization
   Andreas Hansen         : Spin unrestricted coupled pair/coupled cluster methods
   Benjamin Helmich-Paris : MC-RPA, TRAH-SCF, COSX integrals
   Lee Huntington         : MR-EOM, pCC
   Robert Izsak           : Overlap fitted RIJCOSX, COSX-SCS-MP3, EOM
   Marcus Kettner         : VPT2
   Christian Kollmar      : KDIIS, OOCD, Brueckner-CCSD(T), CCSD density, CASPT2, CASPT2-K
   Simone Kossmann        : Meta GGA functionals, TD-DFT gradient, OOMP2, MP2 Hessian
   Martin Krupicka        : Initial AUTO-CI
   Lucas Lang             : DCDCAS
   Marvin Lechner         : AUTO-CI (C++ implementation), FIC-MRCC
   Dagmar Lenk            : GEPOL surface, SMD
   Dimitrios Liakos       : Extrapolation schemes; Compound Job, initial MDCI parallelization
   Dimitrios Manganas     : Further ROCIS development; embedding schemes
   Dimitrios Pantazis     : SARC Basis sets
   Anastasios Papadopoulos: AUTO-CI, single reference methods and gradients
   Taras Petrenko         : DFT Hessian,TD-DFT gradient, ASA, ECA, R-Raman, ABS, FL, XAS/XES, NRVS
   Peter Pinski           : DLPNO-MP2, DLPNO-MP2 Gradient
   Christoph Reimann      : Effective Core Potentials
   Marius Retegan         : Local ZFS, SOC
   Christoph Riplinger    : Optimizer, TS searches, QM/MM, DLPNO-CCSD(T), (RO)-DLPNO pert. Triples
   Tobias Risthaus        : Range-separated hybrids, TD-DFT gradient, RPA, STAB
   Michael Roemelt        : Original ROCIS implementation
   Masaaki Saitow         : Open-shell DLPNO-CCSD energy and density
   Barbara Sandhoefer     : DKH picture change effects
   Avijit Sen             : IP-ROCIS
   Kantharuban Sivalingam : CASSCF convergence, NEVPT2, FIC-MRCI
   Bernardo de Souza      : ESD, SOC TD-DFT
   Georgi Stoychev        : AutoAux, RI-MP2 NMR, DLPNO-MP2 response
   Willem Van den Heuvel  : Paramagnetic NMR
   Boris Wezisla          : Elementary symmetry handling
   Frank Wennmohs         : Technical directorship


 We gratefully acknowledge several colleagues who have allowed us to
 interface, adapt or use parts of their codes:
   Stefan Grimme, W. Hujo, H. Kruse, P. Pracht,  : VdW corrections, initial TS optimization,
                  C. Bannwarth, S. Ehlert          DFT functionals, gCP, sTDA/sTD-DF
   Ed Valeev, F. Pavosevic, A. Kumar             : LibInt (2-el integral package), F12 methods
   Garnet Chan, S. Sharma, J. Yang, R. Olivares  : DMRG
   Ulf Ekstrom                                   : XCFun DFT Library
   Mihaly Kallay                                 : mrcc  (arbitrary order and MRCC methods)
   Jiri Pittner, Ondrej Demel                    : Mk-CCSD
   Frank Weinhold                                : gennbo (NPA and NBO analysis)
   Christopher J. Cramer and Donald G. Truhlar   : smd solvation model
   Lars Goerigk                                  : TD-DFT with DH, B97 family of functionals
   V. Asgeirsson, H. Jonsson                     : NEB implementation
   FAccTs GmbH                                   : IRC, NEB, NEB-TS, DLPNO-Multilevel, CI-OPT
                                                   MM, QMMM, 2- and 3-layer-ONIOM, Crystal-QMMM,
                                                   LR-CPCM, SF, NACMEs, symmetry and pop. for TD-DFT,
                                                   nearIR, NL-DFT gradient (VV10), updates on ESD,
                                                   ML-optimized integration grids
   S Lehtola, MJT Oliveira, MAL Marques          : LibXC Library
   Liviu Ungur et al                             : ANISO software


 Your calculation uses the libint2 library for the computation of 2-el integrals
 For citations please refer to: http://libint.valeyev.net

 Your ORCA version has been built with support for libXC version: 5.1.0
 For citations please refer to: https://tddft.org/programs/libxc/

 This ORCA versions uses:
   CBLAS   interface :  Fast vector & matrix operations
   LAPACKE interface :  Fast linear algebra routines
   SCALAPACK package :  Parallel linear algebra routines
   Shared memory     :  Shared parallel matrices
   BLAS/LAPACK       :  OpenBLAS 0.3.15  USE64BITINT DYNAMIC_ARCH NO_AFFINITY Zen SINGLE_THREADED
        Core in use  :  Zen
   Copyright (c) 2011-2014, The OpenBLAS Project


Your calculation utilizes the atom-pairwise dispersion correction
based on tight binding partial charges (D4)
Cite in your paper:
E.Caldeweyher, C.Bannwarth, S.Grimme, J.Chem.Phys., (2017), 147, 034112.
E.Caldeweyher, S.Ehlert, A.Hansen, H.Neugebauer, S.Grimme, J.Chem.Phys., (2018), in progress.
   

================================================================================

----- Orbital basis set information -----
Your calculation utilizes the basis: pcJ-0
   F. Jensen, Theor. Chem. Acc. 126, 371 (2010).

----- AuxJ basis set information -----
Your calculation utilizes the auxiliary basis: def2/J
   F. Weigend, Phys. Chem. Chem. Phys. 8, 1057 (2006).

================================================================================
                                        WARNINGS
                       Please study these warnings very carefully!
================================================================================


INFO   : the flag for use of the SHARK integral package has been found!

================================================================================
                                       INPUT FILE
================================================================================
NAME = inpJ
|  1> ! pbe0
|  2> ! D4
|  3> ! pcJ-0
|  4> ! def2/J RIJCOSX
|  5> ! DEFGRID2
|  6> ! scfconv7
|  7> ! smallprint printgap noloewdin
|  8> ! NOSOSCF
|  9> %MaxCore 4000
| 10> %output
| 11>        print[P_BondOrder_M] 1
| 12>        print[P_Mayer] 1
| 13>        print[P_basis] 2
| 14> end
| 15> %pal
| 16>     nprocs 4
| 17> end
| 18> ! CPCM(chloroform)
| 19> *xyz 0 1
| 20> C   -5.0041899600   0.2135301100  -0.5091239400
| 21> C   -6.4535318900  -0.1732168500  -0.6870003700
| 22> C   -7.3639808100   0.7780977500   0.0999740400
| 23> H   -6.6211802100  -1.2065932400  -0.3629322700
| 24> H   -6.7309100200  -0.1017069300  -1.7492189100
| 25> C   -4.7155304400   1.6278886400  -0.8348792200
| 26> C   -5.6459820300   2.6239133300  -0.1786672300
| 27> C   -7.1196821800   2.2236252700  -0.3363056100
| 28> H   -5.4737493800   3.6267151200  -0.5839428400
| 29> H   -5.4051895300   2.6661932100   0.8945247300
| 30> H   -7.4165851800   2.3211870900  -1.3894868600
| 31> H   -7.7570168500   2.8957755500   0.2498676300
| 32> O   -7.1712420000   0.6105660300   1.5144435800
| 33> H   -8.4131952800   0.5136307100  -0.0805666200
| 34> C   -4.0956779200  -0.6692055600  -0.0299170200
| 35> C   -3.7409010800   2.0009808500  -1.6715057700
| 36> H   -3.0937210800   1.2692485100  -2.1477144400
| 37> H   -3.5760486800   3.0500439100  -1.9059098900
| 38> C   -2.7126132900  -0.3849324100   0.2770541400
| 39> H   -4.4595424500  -1.6768811500   0.1675688600
| 40> C   -1.7688336600  -1.2810601800   0.6356113300
| 41> H   -2.4201993100   0.6608990400   0.2147844800
| 42> C   -1.9647274300  -2.7719451700   0.7401065300
| 43> C   -0.9563208600  -3.5357611500  -0.1409575300
| 44> H   -2.9827712900  -3.0773905000   0.4836865100
| 45> H   -1.7932241600  -3.0637930500   1.7883628100
| 46> C    0.4935335100  -3.0913683000   0.0963008700
| 47> H   -1.2219464000  -3.3896236800  -1.1956056900
| 48> H   -1.0480467900  -4.6106952800   0.0573561800
| 49> C    0.6579339800  -1.5725655200  -0.0508650900
| 50> H    1.1479445800  -3.6319869100  -0.5955467100
| 51> H    0.7974237200  -3.3768836200   1.1147263700
| 52> C   -0.3519840300  -0.8952560300   0.9309062300
| 53> H   -0.1085220200  -1.3273481800   1.9187944800
| 54> C    0.0793328000   0.5680618400   0.9595705300
| 55> H   -6.2196363600   0.5336339200   1.6728908300
| 56> C    1.6219448300   0.4941154000   0.8535964000
| 57> H   -0.2620454400   1.0797995800   1.8654947400
| 58> H   -0.3359962400   1.1136349500   0.1049632400
| 59> C    1.9891993000  -0.9741491600   0.4834203600
| 60> H    2.1098804000   0.7870338200   1.7885573500
| 61> H    1.9957865200   1.1792237300   0.0837066200
| 62> H    2.2289083800  -1.5206058300   1.4104219500
| 63> C    3.2418735000  -1.0329300200  -0.4147024200
| 64> C    0.4005847000  -1.1262355000  -1.4968151300
| 65> H    0.6217087100  -0.0630551800  -1.6350993700
| 66> H   -0.6434270900  -1.2824852300  -1.7853223000
| 67> H    1.0307986800  -1.6898348100  -2.1935329800
| 68> H    3.0269914600  -0.4787969700  -1.3402810000
| 69> C    3.6618479200  -2.4641335800  -0.7821291200
| 70> C    4.3907168000  -0.3469134900   0.2781365200
| 71> C    5.0314602600   0.7225123300  -0.1939765500
| 72> H    4.6992097800  -0.8002346100   1.2229108900
| 73> H    4.6890630700   1.1349584300  -1.1454984900
| 74> C    6.1972336700   1.4373305100   0.4365089600
| 75> C    6.7516318400   0.7383417400   1.6778103100
| 76> C    5.8804265200   2.9356691800   0.7124795200
| 77> H    7.0012677300   1.4478000400  -0.3190666700
| 78> H    6.7986687400   3.3595954600   1.1468726000
| 79> C    4.7456119300   3.1240907800   1.7208264400
| 80> C    5.5791042200   3.7070133500  -0.5754971600
| 81> H    6.0000096900   0.6450616300   2.4684923900
| 82> H    7.5964958500   1.3052937500   2.0835118200
| 83> H    7.1033973000  -0.2701062500   1.4353467900
| 84> H    4.9627818300   2.6453360600   2.6810040700
| 85> H    3.8129960700   2.6972182300   1.3336172500
| 86> H    4.5760649200   4.1898459200   1.9110427100
| 87> H    6.3507715500   3.5360584900  -1.3352085900
| 88> H    5.5335700300   4.7830995300  -0.3747999000
| 89> H    4.6125087000   3.4122390700  -0.9996030300
| 90> H    2.9299101000  -2.9493297700  -1.4328384800
| 91> H    3.7763356800  -3.0785398200   0.1194832400
| 92> H    4.6227242900  -2.4531569600  -1.3076899100
| 93> *
| 94> %eprnmr
| 95>  Nuclei = all H { ssfc }
| 96>  SpinSpinRThresh 8.0
| 97> end
| 98> 
| 99>                          ****END OF INPUT****
================================================================================

                       ****************************
                       * Single Point Calculation *
                       ****************************

---------------------------------
CARTESIAN COORDINATES (ANGSTROEM)
---------------------------------
  C     -5.004190    0.213530   -0.509124
  C     -6.453532   -0.173217   -0.687000
  C     -7.363981    0.778098    0.099974
  H     -6.621180   -1.206593   -0.362932
  H     -6.730910   -0.101707   -1.749219
  C     -4.715530    1.627889   -0.834879
  C     -5.645982    2.623913   -0.178667
  C     -7.119682    2.223625   -0.336306
  H     -5.473749    3.626715   -0.583943
  H     -5.405190    2.666193    0.894525
  H     -7.416585    2.321187   -1.389487
  H     -7.757017    2.895776    0.249868
  O     -7.171242    0.610566    1.514444
  H     -8.413195    0.513631   -0.080567
  C     -4.095678   -0.669206   -0.029917
  C     -3.740901    2.000981   -1.671506
  H     -3.093721    1.269249   -2.147714
  H     -3.576049    3.050044   -1.905910
  C     -2.712613   -0.384932    0.277054
  H     -4.459542   -1.676881    0.167569
  C     -1.768834   -1.281060    0.635611
  H     -2.420199    0.660899    0.214784
  C     -1.964727   -2.771945    0.740107
  C     -0.956321   -3.535761   -0.140958
  H     -2.982771   -3.077390    0.483687
  H     -1.793224   -3.063793    1.788363
  C      0.493534   -3.091368    0.096301
  H     -1.221946   -3.389624   -1.195606
  H     -1.048047   -4.610695    0.057356
  C      0.657934   -1.572566   -0.050865
  H      1.147945   -3.631987   -0.595547
  H      0.797424   -3.376884    1.114726
  C     -0.351984   -0.895256    0.930906
  H     -0.108522   -1.327348    1.918794
  C      0.079333    0.568062    0.959571
  H     -6.219636    0.533634    1.672891
  C      1.621945    0.494115    0.853596
  H     -0.262045    1.079800    1.865495
  H     -0.335996    1.113635    0.104963
  C      1.989199   -0.974149    0.483420
  H      2.109880    0.787034    1.788557
  H      1.995787    1.179224    0.083707
  H      2.228908   -1.520606    1.410422
  C      3.241873   -1.032930   -0.414702
  C      0.400585   -1.126235   -1.496815
  H      0.621709   -0.063055   -1.635099
  H     -0.643427   -1.282485   -1.785322
  H      1.030799   -1.689835   -2.193533
  H      3.026991   -0.478797   -1.340281
  C      3.661848   -2.464134   -0.782129
  C      4.390717   -0.346913    0.278137
  C      5.031460    0.722512   -0.193977
  H      4.699210   -0.800235    1.222911
  H      4.689063    1.134958   -1.145498
  C      6.197234    1.437331    0.436509
  C      6.751632    0.738342    1.677810
  C      5.880427    2.935669    0.712480
  H      7.001268    1.447800   -0.319067
  H      6.798669    3.359595    1.146873
  C      4.745612    3.124091    1.720826
  C      5.579104    3.707013   -0.575497
  H      6.000010    0.645062    2.468492
  H      7.596496    1.305294    2.083512
  H      7.103397   -0.270106    1.435347
  H      4.962782    2.645336    2.681004
  H      3.812996    2.697218    1.333617
  H      4.576065    4.189846    1.911043
  H      6.350772    3.536058   -1.335209
  H      5.533570    4.783100   -0.374800
  H      4.612509    3.412239   -0.999603
  H      2.929910   -2.949330   -1.432838
  H      3.776336   -3.078540    0.119483
  H      4.622724   -2.453157   -1.307690

----------------------------
CARTESIAN COORDINATES (A.U.)
----------------------------
  NO LB      ZA    FRAG     MASS         X           Y           Z
   0 C     6.0000    0    12.011   -9.456549    0.403513   -0.962105
   1 C     6.0000    0    12.011  -12.195408   -0.327332   -1.298243
   2 C     6.0000    0    12.011  -13.915907    1.470392    0.188924
   3 H     1.0000    0     1.008  -12.512217   -2.280131   -0.685843
   4 H     1.0000    0     1.008  -12.719577   -0.192198   -3.305545
   5 C     6.0000    0    12.011   -8.911061    3.076264   -1.577693
   6 C     6.0000    0    12.011  -10.669360    4.958478   -0.337632
   7 C     6.0000    0    12.011  -13.454249    4.202043   -0.635526
   8 H     1.0000    0     1.008  -10.343887    6.853498   -1.103492
   9 H     1.0000    0     1.008  -10.214328    5.038375    1.690407
  10 H     1.0000    0     1.008  -14.015315    4.386408   -2.625750
  11 H     1.0000    0     1.008  -14.658637    5.472223    0.472181
  12 O     8.0000    0    15.999  -13.551683    1.153803    2.861884
  13 H     1.0000    0     1.008  -15.898635    0.970621   -0.152249
  14 C     6.0000    0    12.011   -7.739710   -1.264615   -0.056535
  15 C     6.0000    0    12.011   -7.069279    3.781306   -3.158688
  16 H     1.0000    0     1.008   -5.846286    2.398532   -4.058592
  17 H     1.0000    0     1.008   -6.757753    5.763748   -3.601648
  18 C     6.0000    0    12.011   -5.126096   -0.727417    0.523556
  19 H     1.0000    0     1.008   -8.427314   -3.168846    0.316659
  20 C     6.0000    0    12.011   -3.342611   -2.420853    1.201131
  21 H     1.0000    0     1.008   -4.573514    1.248918    0.405884
  22 C     6.0000    0    12.011   -3.712797   -5.238217    1.398599
  23 C     6.0000    0    12.011   -1.807185   -6.681620   -0.266371
  24 H     1.0000    0     1.008   -5.636621   -5.815425    0.914035
  25 H     1.0000    0     1.008   -3.388703   -5.789730    3.379516
  26 C     6.0000    0    12.011    0.932643   -5.841839    0.181982
  27 H     1.0000    0     1.008   -2.309144   -6.405460   -2.259367
  28 H     1.0000    0     1.008   -1.980521   -8.712951    0.108387
  29 C     6.0000    0    12.011    1.243315   -2.971718   -0.096121
  30 H     1.0000    0     1.008    2.169301   -6.863461   -1.125420
  31 H     1.0000    0     1.008    1.506912   -6.381385    2.106528
  32 C     6.0000    0    12.011   -0.665153   -1.691789    1.759158
  33 H     1.0000    0     1.008   -0.205077   -2.508325    3.625996
  34 C     6.0000    0    12.011    0.149917    1.073481    1.813326
  35 H     1.0000    0     1.008  -11.753409    1.008422    3.161306
  36 C     6.0000    0    12.011    3.065032    0.933743    1.613063
  37 H     1.0000    0     1.008   -0.495194    2.040525    3.525274
  38 H     1.0000    0     1.008   -0.634941    2.104465    0.198352
  39 C     6.0000    0    12.011    3.759042   -1.840875    0.913532
  40 H     1.0000    0     1.008    3.987096    1.487278    3.379884
  41 H     1.0000    0     1.008    3.771490    2.228410    0.158183
  42 H     1.0000    0     1.008    4.212026   -2.873529    2.665311
  43 C     6.0000    0    12.011    6.126253   -1.951955   -0.783674
  44 C     6.0000    0    12.011    0.756995   -2.128277   -2.828571
  45 H     1.0000    0     1.008    1.174859   -0.119157   -3.089890
  46 H     1.0000    0     1.008   -1.215901   -2.423546   -3.373770
  47 H     1.0000    0     1.008    1.947927   -3.193325   -4.145177
  48 H     1.0000    0     1.008    5.720185   -0.904795   -2.532764
  49 C     6.0000    0    12.011    6.919890   -4.656538   -1.478010
  50 C     6.0000    0    12.011    8.297252   -0.655571    0.525602
  51 C     6.0000    0    12.011    9.508082    1.365350   -0.366563
  52 H     1.0000    0     1.008    8.880220   -1.512224    2.310967
  53 H     1.0000    0     1.008    8.861045    2.144761   -2.164678
  54 C     6.0000    0    12.011   11.711074    2.716161    0.824882
  55 C     6.0000    0    12.011   12.758735    1.395264    3.170602
  56 C     6.0000    0    12.011   11.112396    5.547611    1.346391
  57 H     1.0000    0     1.008   13.230479    2.735946   -0.602949
  58 H     1.0000    0     1.008   12.847622    6.348715    2.167275
  59 C     6.0000    0    12.011    8.967907    5.903676    3.251891
  60 C     6.0000    0    12.011   10.542979    7.005240   -1.087532
  61 H     1.0000    0     1.008   11.338375    1.218990    4.664775
  62 H     1.0000    0     1.008   14.355297    2.466648    3.937267
  63 H     1.0000    0     1.008   13.423476   -0.510427    2.712412
  64 H     1.0000    0     1.008    9.378299    4.998961    5.066363
  65 H     1.0000    0     1.008    7.205518    5.097004    2.520171
  66 H     1.0000    0     1.008    8.647509    7.917661    3.611347
  67 H     1.0000    0     1.008   12.001219    6.682182   -2.523179
  68 H     1.0000    0     1.008   10.456932    9.038748   -0.708269
  69 H     1.0000    0     1.008    8.716378    6.448197   -1.888976
  70 H     1.0000    0     1.008    5.536728   -5.573426   -2.707672
  71 H     1.0000    0     1.008    7.136240   -5.817597    0.225791
  72 H     1.0000    0     1.008    8.735683   -4.635795   -2.471176

--------------------------------
INTERNAL COORDINATES (ANGSTROEM)
--------------------------------
 C      0   0   0     0.000000000000     0.00000000     0.00000000
 C      1   0   0     1.510564551906     0.00000000     0.00000000
 C      2   1   0     1.534029147734   110.50347115     0.00000000
 H      2   1   3     1.095898196023   110.69407127   237.86753304
 H      2   1   3     1.100163861604   109.81338487   118.76842331
 C      1   2   3     1.479814472263   113.95007095   306.25260951
 C      6   1   2     1.512752299698   114.44540317    49.66698635
 C      3   2   1     1.529565809209   110.17871541    56.71851662
 H      7   6   1     1.095227755225   110.21921989   188.79197265
 H      7   6   1     1.100685967621   108.28150052    72.14338065
 H      8   3   2     1.098572002867   108.31304939    64.42127466
 H      8   3   2     1.096166295678   109.51798853   181.40752597
 O      3   2   1     1.437337540620   110.66984045   292.71021091
 H      3   2   1     1.096990769887   109.49452741   177.19566716
 C      1   2   3     1.354346950412   121.22601549   123.25541885
 C      6   1   2     1.337551558147   123.12221188   231.63307209
 H     16   6   1     1.086760722139   121.34584675   359.01739425
 H     16   6   1     1.087499383501   120.95444932   178.40156697
 C     15   1   2     1.444960306597   126.08737155   185.01563263
 H     15   1   2     1.089407253360   116.29348379     3.03284862
 C     19  15   1     1.349936379489   126.51337067   186.62507809
 H     19  15   1     1.087725548135   115.74141347     7.05468515
 C     21  19  15     1.507325999695   125.74245630     2.27124559
 C     23  21  19     1.541613615517   111.43403052   123.86082202
 H     23  21  19     1.093371564089   112.39954829     0.29200327
 H     23  21  19     1.101557890100   107.92596279   242.40750714
 C     24  23  21     1.534879229031   112.71158005    51.07434851
 H     24  23  21     1.097358569033   108.96301328   288.93342413
 H     24  23  21     1.096916294731   109.11776355   173.02402522
 C     27  24  23     1.534746630182   111.89361786   306.52392553
 H     27  24  23     1.095068675458   108.89882010   183.00711705
 H     27  24  23     1.100481147834   109.19479452    66.55114710
 C     21  19  15     1.497834034249   122.86814272   179.72674005
 H     33  21  19     1.105396114926   106.48990520   128.08668718
 C     33  21  19     1.525829295366   121.20616870     5.40079450
 H     13   3   2     0.967769277597   107.59217165    42.68772206
 C     35  33  21     1.548015008751   103.56761985   196.95908437
 H     35  33  21     1.095040315034   112.06107774    74.93535283
 H     35  33  21     1.095674153179   110.83812403   315.32122608
 C     30  27  24     1.554294191661   116.09081386   166.31727756
 H     37  35  33     1.094547531755   111.89897162   249.81524278
 H     37  35  33     1.096294352063   110.97977327   131.25679331
 H     40  30  27     1.102455116131   106.52509985   321.40674080
 C     40  30  27     1.542489017401   118.73502458    82.24061134
 C     30  27  24     1.534995327956   111.10736905   294.14447581
 H     45  30  27     1.094701215705   111.56307751   186.21636761
 H     45  30  27     1.094354139630   111.51629539    66.19641428
 H     45  30  27     1.095549910013   110.67293640   306.04791558
 H     44  40  30     1.099969743207   108.18569911    60.30673937
 C     44  40  30     1.536139486988   113.37838297   299.59765891
 C     44  40  30     1.506812995752   109.51828601   177.61165084
 C     51  44  40     1.333084587294   124.67024798   240.99127099
 H     51  44  40     1.092367413811   115.09121037    62.04795354
 H     52  51  44     1.092127109556   117.44051487     0.73719258
 C     52  51  44     1.505823579388   127.20286372   181.12258381
 C     55  52  51     1.528650278186   113.80988610     6.39287459
 C     55  52  51     1.556131514460   111.94487666   238.51930894
 H     55  52  51     1.103392456630   106.37525096   124.23326913
 H     57  55  52     1.100717771918   105.72286538   181.24981807
 C     57  55  52     1.529728853130   112.73854566    63.30510977
 C     57  55  52     1.531225288876   112.08156403   298.17960402
 H     56  55  52     1.094904190752   112.11043272   299.81894379
 H     56  55  52     1.095364547652   110.10954454   179.77868760
 H     56  55  52     1.095214520500   110.96195570    60.12470988
 H     60  57  55     1.094673434656   112.15648217    58.07345318
 H     60  57  55     1.096322704813   110.50540997   297.56564704
 H     60  57  55     1.095793062767   110.42626398   178.18454859
 H     61  57  55     1.096292611131   111.45855371   309.95835082
 H     61  57  55     1.095588526509   110.41814404   189.89124124
 H     61  57  55     1.095930912239   111.31996331    70.74096663
 H     50  44  40     1.092964311553   111.89562821    67.33005001
 H     50  44  40     1.097044813417   110.71690773   306.67600771
 H     50  44  40     1.095270755839   110.19921921   187.30263547

---------------------------
INTERNAL COORDINATES (A.U.)
---------------------------
 C      0   0   0     0.000000000000     0.00000000     0.00000000
 C      1   0   0     2.854553310712     0.00000000     0.00000000
 C      2   1   0     2.898894970670   110.50347115     0.00000000
 H      2   1   3     2.070947461141   110.69407127   237.86753304
 H      2   1   3     2.079008400870   109.81338487   118.76842331
 C      1   2   3     2.796444081590   113.95007095   306.25260951
 C      6   1   2     2.858687554890   114.44540317    49.66698635
 C      3   2   1     2.890460483215   110.17871541    56.71851662
 H      7   6   1     2.069680511644   110.21921989   188.79197265
 H      7   6   1     2.079995038254   108.28150052    72.14338065
 H      8   3   2     2.076000223811   108.31304939    64.42127466
 H      8   3   2     2.071454096066   109.51798853   181.40752597
 O      3   2   1     2.716174313775   110.66984045   292.71021091
 H      3   2   1     2.073012126526   109.49452741   177.19566716
 C      1   2   3     2.559344826591   121.22601549   123.25541885
 C      6   1   2     2.527606134898   123.12221188   231.63307209
 H     16   6   1     2.053680137946   121.34584675   359.01739425
 H     16   6   1     2.055076005625   120.95444932   178.40156697
 C     15   1   2     2.730579253854   126.08737155   185.01563263
 H     15   1   2     2.058681357158   116.29348379     3.03284862
 C     19  15   1     2.551010055452   126.51337067   186.62507809
 H     19  15   1     2.055503394844   115.74141347     7.05468515
 C     21  19  15     2.848433333962   125.74245630     2.27124559
 C     23  21  19     2.913227537651   111.43403052   123.86082202
 H     23  21  19     2.066172818746   112.39954829     0.29200327
 H     23  21  19     2.081642732948   107.92596279   242.40750714
 C     24  23  21     2.900501391512   112.71158005    51.07434851
 H     24  23  21     2.073707166184   108.96301328   288.93342413
 H     24  23  21     2.072871388878   109.11776355   173.02402522
 C     27  24  23     2.900250816002   111.89361786   306.52392553
 H     27  24  23     2.069379894451   108.89882010   183.00711705
 H     27  24  23     2.079607984950   109.19479452    66.55114710
 C     21  19  15     2.830496118797   122.86814272   179.72674005
 H     33  21  19     2.088895926710   106.48990520   128.08668718
 C     33  21  19     2.883399495356   121.20616870     5.40079450
 H     13   3   2     1.828818895482   107.59217165    42.68772206
 C     35  33  21     2.925324417739   103.56761985   196.95908437
 H     35  33  21     2.069326301017   112.06107774    74.93535283
 H     35  33  21     2.070524081524   110.83812403   315.32122608
 C     30  27  24     2.937190353784   116.09081386   166.31727756
 H     37  35  33     2.068395075577   111.89897162   249.81524278
 H     37  35  33     2.071696087564   110.97977327   131.25679331
 H     40  30  27     2.083338244429   106.52509985   321.40674080
 C     40  30  27     2.914881807469   118.73502458    82.24061134
 C     30  27  24     2.900720786685   111.10736905   294.14447581
 H     45  30  27     2.068685496153   111.56307751   186.21636761
 H     45  30  27     2.068029617424   111.51629539    66.19641428
 H     45  30  27     2.070289295966   110.67293640   306.04791558
 H     44  40  30     2.078641570262   108.18569911    60.30673937
 C     44  40  30     2.902882933910   113.37838297   299.59765891
 C     44  40  30     2.847463897006   109.51828601   177.61165084
 C     51  44  40     2.519164783337   124.67024798   240.99127099
 H     51  44  40     2.064275249723   115.09121037    62.04795354
 H     52  51  44     2.063821140491   117.44051487     0.73719258
 C     52  51  44     2.845594171045   127.20286372   181.12258381
 C     55  52  51     2.888730380314   113.80988610     6.39287459
 C     55  52  51     2.940662390693   111.94487666   238.51930894
 H     55  52  51     2.085109561266   106.37525096   124.23326913
 H     57  55  52     2.080055139666   105.72286538   181.24981807
 C     57  55  52     2.890768591572   112.73854566    63.30510977
 C     57  55  52     2.893596445311   112.08156403   298.17960402
 H     56  55  52     2.069069063403   112.11043272   299.81894379
 H     56  55  52     2.069939011869   110.10954454   179.77868760
 H     56  55  52     2.069655501640   110.96195570    60.12470988
 H     60  57  55     2.068632997578   112.15648217    58.07345318
 H     60  57  55     2.071749666496   110.50540997   297.56564704
 H     60  57  55     2.070748788081   110.42626398   178.18454859
 H     61  57  55     2.071692797678   111.45855371   309.95835082
 H     61  57  55     2.070362270568   110.41814404   189.89124124
 H     61  57  55     2.071009285831   111.31996331    70.74096663
 H     50  44  40     2.065403222985   111.89562821    67.33005001
 H     50  44  40     2.073114253997   110.71690773   306.67600771
 H     50  44  40     2.069761771029   110.19921921   187.30263547

---------------------
BASIS SET INFORMATION
---------------------
There are 3 groups of distinct atoms

 Group   1 Type C   : 7s4p contracted to 4s3p pattern {4111/211}
 Group   2 Type H   : 5s contracted to 3s pattern {311}
 Group   3 Type O   : 7s4p contracted to 4s3p pattern {4111/211}

Atom   0C    basis set group =>   1
Atom   1C    basis set group =>   1
Atom   2C    basis set group =>   1
Atom   3H    basis set group =>   2
Atom   4H    basis set group =>   2
Atom   5C    basis set group =>   1
Atom   6C    basis set group =>   1
Atom   7C    basis set group =>   1
Atom   8H    basis set group =>   2
Atom   9H    basis set group =>   2
Atom  10H    basis set group =>   2
Atom  11H    basis set group =>   2
Atom  12O    basis set group =>   3
Atom  13H    basis set group =>   2
Atom  14C    basis set group =>   1
Atom  15C    basis set group =>   1
Atom  16H    basis set group =>   2
Atom  17H    basis set group =>   2
Atom  18C    basis set group =>   1
Atom  19H    basis set group =>   2
Atom  20C    basis set group =>   1
Atom  21H    basis set group =>   2
Atom  22C    basis set group =>   1
Atom  23C    basis set group =>   1
Atom  24H    basis set group =>   2
Atom  25H    basis set group =>   2
Atom  26C    basis set group =>   1
Atom  27H    basis set group =>   2
Atom  28H    basis set group =>   2
Atom  29C    basis set group =>   1
Atom  30H    basis set group =>   2
Atom  31H    basis set group =>   2
Atom  32C    basis set group =>   1
Atom  33H    basis set group =>   2
Atom  34C    basis set group =>   1
Atom  35H    basis set group =>   2
Atom  36C    basis set group =>   1
Atom  37H    basis set group =>   2
Atom  38H    basis set group =>   2
Atom  39C    basis set group =>   1
Atom  40H    basis set group =>   2
Atom  41H    basis set group =>   2
Atom  42H    basis set group =>   2
Atom  43C    basis set group =>   1
Atom  44C    basis set group =>   1
Atom  45H    basis set group =>   2
Atom  46H    basis set group =>   2
Atom  47H    basis set group =>   2
Atom  48H    basis set group =>   2
Atom  49C    basis set group =>   1
Atom  50C    basis set group =>   1
Atom  51C    basis set group =>   1
Atom  52H    basis set group =>   2
Atom  53H    basis set group =>   2
Atom  54C    basis set group =>   1
Atom  55C    basis set group =>   1
Atom  56C    basis set group =>   1
Atom  57H    basis set group =>   2
Atom  58H    basis set group =>   2
Atom  59C    basis set group =>   1
Atom  60C    basis set group =>   1
Atom  61H    basis set group =>   2
Atom  62H    basis set group =>   2
Atom  63H    basis set group =>   2
Atom  64H    basis set group =>   2
Atom  65H    basis set group =>   2
Atom  66H    basis set group =>   2
Atom  67H    basis set group =>   2
Atom  68H    basis set group =>   2
Atom  69H    basis set group =>   2
Atom  70H    basis set group =>   2
Atom  71H    basis set group =>   2
Atom  72H    basis set group =>   2

-------------------------
BASIS SET IN INPUT FORMAT
-------------------------

 # Basis set for element : H 
 NewGTO H 
 S 3 
   1    1357.7500000000      0.0012928364
   2      54.3100000000      0.0588280685
   3       4.3448000000      0.9761499708
 S 1 
   1       0.6604910000      1.0000000000
 S 1 
   1       0.1366870000      1.0000000000
  end;

 # Basis set for element : C 
 NewGTO C 
 S 4 
   1  139534.0000000000      0.0001655246
   2    5581.3600000000      0.0074486101
   3     446.5090000000      0.1285821065
   4      67.4620000000      0.9218029311
 S 1 
   1      15.0674000000      1.0000000000
 S 1 
   1       3.9387600000      1.0000000000
 S 1 
   1       0.2999150000      1.0000000000
 P 2 
   1      28.3900000000      0.0816325586
   2       4.3676900000      0.9660360576
 P 1 
   1       0.8698170000      1.0000000000
 P 1 
   1       0.1889340000      1.0000000000
  end;

 # Basis set for element : O 
 NewGTO O 
 S 4 
   1  253789.0000000000      0.0001641076
   2   10151.6000000000      0.0074010921
   3     812.1250000000      0.1277711901
   4     122.6930000000      0.9223372164
 S 1 
   1      27.5608000000      1.0000000000
 S 1 
   1       7.3172600000      1.0000000000
 S 1 
   1       0.5792400000      1.0000000000
 P 2 
   1      53.4157000000      0.0793786106
   2       8.2177900000      0.9670506337
 P 1 
   1       1.6754400000      1.0000000000
 P 1 
   1       0.3506720000      1.0000000000
  end;

---------------------------------
AUXILIARY/J BASIS SET INFORMATION
---------------------------------
There are 3 groups of distinct atoms

 Group   1 Type C   : 12s5p4d2f1g contracted to 6s4p3d1f1g pattern {711111/2111/211/2/1}
 Group   2 Type H   : 5s2p1d contracted to 3s1p1d pattern {311/2/1}
 Group   3 Type O   : 12s5p4d2f1g contracted to 6s4p3d1f1g pattern {711111/2111/211/2/1}

Atom   0C    basis set group =>   1
Atom   1C    basis set group =>   1
Atom   2C    basis set group =>   1
Atom   3H    basis set group =>   2
Atom   4H    basis set group =>   2
Atom   5C    basis set group =>   1
Atom   6C    basis set group =>   1
Atom   7C    basis set group =>   1
Atom   8H    basis set group =>   2
Atom   9H    basis set group =>   2
Atom  10H    basis set group =>   2
Atom  11H    basis set group =>   2
Atom  12O    basis set group =>   3
Atom  13H    basis set group =>   2
Atom  14C    basis set group =>   1
Atom  15C    basis set group =>   1
Atom  16H    basis set group =>   2
Atom  17H    basis set group =>   2
Atom  18C    basis set group =>   1
Atom  19H    basis set group =>   2
Atom  20C    basis set group =>   1
Atom  21H    basis set group =>   2
Atom  22C    basis set group =>   1
Atom  23C    basis set group =>   1
Atom  24H    basis set group =>   2
Atom  25H    basis set group =>   2
Atom  26C    basis set group =>   1
Atom  27H    basis set group =>   2
Atom  28H    basis set group =>   2
Atom  29C    basis set group =>   1
Atom  30H    basis set group =>   2
Atom  31H    basis set group =>   2
Atom  32C    basis set group =>   1
Atom  33H    basis set group =>   2
Atom  34C    basis set group =>   1
Atom  35H    basis set group =>   2
Atom  36C    basis set group =>   1
Atom  37H    basis set group =>   2
Atom  38H    basis set group =>   2
Atom  39C    basis set group =>   1
Atom  40H    basis set group =>   2
Atom  41H    basis set group =>   2
Atom  42H    basis set group =>   2
Atom  43C    basis set group =>   1
Atom  44C    basis set group =>   1
Atom  45H    basis set group =>   2
Atom  46H    basis set group =>   2
Atom  47H    basis set group =>   2
Atom  48H    basis set group =>   2
Atom  49C    basis set group =>   1
Atom  50C    basis set group =>   1
Atom  51C    basis set group =>   1
Atom  52H    basis set group =>   2
Atom  53H    basis set group =>   2
Atom  54C    basis set group =>   1
Atom  55C    basis set group =>   1
Atom  56C    basis set group =>   1
Atom  57H    basis set group =>   2
Atom  58H    basis set group =>   2
Atom  59C    basis set group =>   1
Atom  60C    basis set group =>   1
Atom  61H    basis set group =>   2
Atom  62H    basis set group =>   2
Atom  63H    basis set group =>   2
Atom  64H    basis set group =>   2
Atom  65H    basis set group =>   2
Atom  66H    basis set group =>   2
Atom  67H    basis set group =>   2
Atom  68H    basis set group =>   2
Atom  69H    basis set group =>   2
Atom  70H    basis set group =>   2
Atom  71H    basis set group =>   2
Atom  72H    basis set group =>   2

-------------------------------------
AUXILIARY/J BASIS SET IN INPUT FORMAT
-------------------------------------

 # Auxiliary/J basis set for element : H 
 NewAuxJGTO H 
 S 3 
   1      15.6752927000      0.1007184237
   2       3.6063578000      0.3404257499
   3       1.2080016000      0.6491996172
 S 1 
   1       0.4726794000      1.0000000000
 S 1 
   1       0.2018100000      1.0000000000
 P 2 
   1       2.0281365000      0.5596620919
   2       0.5358730000      0.5596620919
 D 1 
   1       2.2165124000      1.0000000000
  end;

 # Auxiliary/J basis set for element : C 
 NewAuxJGTO C 
 S 7 
   1    1861.0916331000      0.0134602335
   2     642.9939764000      0.0299160374
   3     235.1105725000      0.1008649584
   4      90.7028894000      0.2370970548
   5      36.7794552000      0.3924037254
   6      15.6046273000      0.3195862154
   7       6.8907294000      0.0530104441
 S 1 
   1       3.1478850000     -1.0000000000
 S 1 
   1       1.4777287000      1.0000000000
 S 1 
   1       0.7076466000      1.0000000000
 S 1 
   1       0.3430122000      1.0000000000
 S 1 
   1       0.1669453000      1.0000000000
 P 2 
   1      13.5472892000     -0.6769313712
   2       5.4669419000     -0.3779500978
 P 1 
   1       2.1751721000      1.0000000000
 P 1 
   1       0.8582194000      1.0000000000
 P 1 
   1       0.3376720000      1.0000000000
 D 2 
   1       5.9287253000     -0.3533329857
   2       1.9809209000     -0.7456525731
 D 1 
   1       0.8055417000     -1.0000000000
 D 1 
   1       0.3531244000     -1.0000000000
 F 2 
   1       1.6755626000      0.6311076882
   2       0.5997536000      0.4968166032
 G 1 
   1       1.0024600000     -1.0000000000
  end;

 # Auxiliary/J basis set for element : O 
 NewAuxJGTO O 
 S 7 
   1    2876.8216605000      0.0168151159
   2    1004.7443032000      0.0340137548
   3     369.7579954000      0.1194951309
   4     142.9442404000      0.2664627624
   5      57.8366425000      0.4202764046
   6      24.3864983000      0.2765077335
   7      10.6622662000      0.0057008815
 S 1 
   1       4.8070437000     -1.0000000000
 S 1 
   1       2.2210770000      1.0000000000
 S 1 
   1       1.0447795000      1.0000000000
 S 1 
   1       0.4968425000      1.0000000000
 S 1 
   1       0.2371384000      1.0000000000
 P 2 
   1      64.2613382000     -0.2731534179
   2      16.3006076000     -0.8168011598
 P 1 
   1       4.3550542000      1.0000000000
 P 1 
   1       1.2019554000      1.0000000000
 P 1 
   1       0.3354196000      1.0000000000
 D 2 
   1       9.2146611000     -0.4661230638
   2       2.8435251000     -0.6600908911
 D 1 
   1       0.9955759000     -1.0000000000
 D 1 
   1       0.3649441000     -1.0000000000
 F 2 
   1       2.6420115000      0.5931563945
   2       0.7345613000      0.5931563945
 G 1 
   1       1.3931000000     -1.0000000000
  end;



           ************************************************************
           *        Program running with 4 parallel MPI-processes     *
           *              working on a common directory               *
           ************************************************************
------------------------------------------------------------------------------
                           ORCA GTO INTEGRAL CALCULATION
                           -- RI-GTO INTEGRALS CHOSEN --
------------------------------------------------------------------------------
------------------------------------------------------------------------------
                   ___                                                        
                  /   \      - P O W E R E D   B Y -                         
                 /     \                                                     
                 |  |  |   _    _      __       _____    __    __             
                 |  |  |  | |  | |    /  \     |  _  \  |  |  /  |          
                  \  \/   | |  | |   /    \    | | | |  |  | /  /          
                 / \  \   | |__| |  /  /\  \   | |_| |  |  |/  /          
                |  |  |   |  __  | /  /__\  \  |    /   |      \           
                |  |  |   | |  | | |   __   |  |    \   |  |\   \          
                \     /   | |  | | |  |  |  |  | |\  \  |  | \   \       
                 \___/    |_|  |_| |__|  |__|  |_| \__\ |__|  \__/        
                                                                              
                      - O R C A' S   B I G   F R I E N D -                    
                                      &                                       
                       - I N T E G R A L  F E E D E R -                       
                                                                              
 v1 FN, 2020, v2 2021                                                         
------------------------------------------------------------------------------


Reading SHARK input file inpJ.SHARKINP.tmp ... ok
----------------------
SHARK INTEGRAL PACKAGE
----------------------

Number of atoms                             ...     73
Number of basis functions                   ...    509
Number of shells                            ...    335
Maximum angular momentum                    ...      1
Integral batch strategy                     ... SHARK/LIBINT Hybrid
RI-J (if used) integral strategy            ... SPLIT-RIJ (Revised 2003 algorithm where possible)
Printlevel                                  ...      1
Contraction scheme used                     ... SEGMENTED contraction
Coulomb Range Separation                    ... NOT USED
Exchange Range Separation                   ... NOT USED
Finite Nucleus Model                        ... NOT USED
Auxiliary Coulomb fitting basis             ... AVAILABLE
   # of basis functions in Aux-J            ...   1905
   # of shells in Aux-J                     ...    655
   Maximum angular momentum in Aux-J        ...      4
Auxiliary J/K fitting basis                 ... NOT available
Auxiliary Correlation fitting basis         ... NOT available
Auxiliary 'external' fitting basis          ... NOT available
Integral threshold                          ...     3.000000e-11
Primitive cut-off                           ...     1.000000e-12
Primitive pair pre-selection threshold      ...     1.000000e-12

Calculating pre-screening integrals         ... done (  0.0 sec) Dimension = 335
Organizing shell pair data                  ... done (  0.1 sec)
Shell pair information
Total number of shell pairs                 ...     56280
Shell pairs after pre-screening             ...     22281
Total number of primitive shell pairs       ...    145865
Primitive shell pairs kept                  ...     38181
          la=0 lb=0:  11215 shell pairs
          la=1 lb=0:   9162 shell pairs
          la=1 lb=1:   1904 shell pairs

Calculating one electron integrals          ... done (  0.0 sec)
Calculating RI/J V-Matrix + Cholesky decomp.... done (  0.2 sec)
Calculating Nuclear repulsion               ... done (  0.0 sec) ENN=   2811.893949506710 Eh

SHARK setup successfully completed in   0.5 seconds

Maximum memory used throughout the entire GTOINT-calculation: 46.6 MB


           ************************************************************
           *        Program running with 4 parallel MPI-processes     *
           *              working on a common directory               *
           ************************************************************
-------------------------------------------------------------------------------
                                 ORCA SCF
-------------------------------------------------------------------------------

------------
SCF SETTINGS
------------
Hamiltonian:
 Density Functional     Method          .... DFT(GTOs)
 Exchange Functional    Exchange        .... PBE
   PBE kappa parameter   XKappa         ....  0.804000
   PBE mue parameter    XMuePBE         ....  0.219520
 Correlation Functional Correlation     .... PBE
   PBE beta parameter  CBetaPBE         ....  0.066725
 LDA part of GGA corr.  LDAOpt          .... PW91-LDA
 Gradients option       PostSCFGGA      .... off
 Hybrid DFT is turned on
   Fraction HF Exchange ScalHFX         ....  0.250000
   Scaling of DF-GGA-X  ScalDFX         ....  0.750000
   Scaling of DF-GGA-C  ScalDFC         ....  1.000000
   Scaling of DF-LDA-C  ScalLDAC        ....  1.000000
   Perturbative correction              ....  0.000000
   Density functional embedding theory  .... OFF
   NL short-range parameter             ....  6.900000
 RI-approximation to the Coulomb term is turned on
   Number of AuxJ basis functions       .... 1905
   RIJ-COSX (HFX calculated with COS-X)).... on


General Settings:
 Integral files         IntName         .... inpJ
 Hartree-Fock type      HFTyp           .... RHF
 Total Charge           Charge          ....    0
 Multiplicity           Mult            ....    1
 Number of Electrons    NEL             ....  220
 Basis Dimension        Dim             ....  509
 Nuclear Repulsion      ENuc            ....   2811.8939495067 Eh

Convergence Acceleration:
 DIIS                   CNVDIIS         .... on
   Start iteration      DIISMaxIt       ....    12
   Startup error        DIISStart       ....  0.200000
   # of expansion vecs  DIISMaxEq       ....     5
   Bias factor          DIISBfac        ....   1.050
   Max. coefficient     DIISMaxC        ....  10.000
 Trust-Rad. Augm. Hess. CNVTRAH         .... auto
   Auto Start mean grad. ratio tolernc. ....  1.125000
   Auto Start start iteration           ....    20
   Auto Start num. interpolation iter.  ....    10
   Max. Number of Micro iterations      ....    16
   Max. Number of Macro iterations      .... Maxiter - #DIIS iter
   Number of Davidson start vectors     ....     2
   Converg. threshold I  (grad. norm)   ....   1.000e-04
   Converg. threshold II (energy diff.) ....   1.000e-07
   Grad. Scal. Fac. for Micro threshold ....   0.100
   Minimum threshold for Micro iter.    ....   0.010
   NR start threshold (gradient norm)   ....   0.001
   Initial trust radius                 ....   0.400
   Minimum AH scaling param. (alpha)    ....   1.000
   Maximum AH scaling param. (alpha)    .... 1000.000
   Orbital update algorithm             .... Taylor
   White noise on init. David. guess    .... on
   Maximum white noise                  ....   0.010
   Quad. conv. algorithm                .... NR
 SOSCF                  CNVSOSCF        .... off
 Level Shifting         CNVShift        .... on
   Level shift para.    LevelShift      ....    0.2500
   Turn off err/grad.   ShiftErr        ....    0.0010
 Zerner damping         CNVZerner       .... off
 Static damping         CNVDamp         .... on
   Fraction old density DampFac         ....    0.7000
   Max. Damping (<1)    DampMax         ....    0.9800
   Min. Damping (>=0)   DampMin         ....    0.0000
   Turn off err/grad.   DampErr         ....    0.1000
 Fernandez-Rico         CNVRico         .... off

SCF Procedure:
 Maximum # iterations   MaxIter         ....   125
 SCF integral mode      SCFMode         .... Direct
   Integral package                     .... SHARK and LIBINT hybrid scheme
 Reset frequency        DirectResetFreq ....    20
 Integral Threshold     Thresh          ....  3.000e-11 Eh
 Primitive CutOff       TCut            ....  1.000e-12 Eh

Convergence Tolerance:
 Convergence Check Mode ConvCheckMode   .... Total+1el-Energy
 Convergence forced     ConvForced      .... 0
 Energy Change          TolE            ....  1.000e-07 Eh
 1-El. energy change                    ....  1.000e-04 Eh
 DIIS Error             TolErr          ....  1.000e-07


Diagonalization of the overlap matrix:
Smallest eigenvalue                        ... 7.579e-03
Time for diagonalization                   ...    0.035 sec
Threshold for overlap eigenvalues          ... 1.000e-08
Number of eigenvalues below threshold      ... 0
Time for construction of square roots      ...    0.036 sec
Total time needed                          ...    0.073 sec

Time for model grid setup =    0.713 sec

------------------------------
INITIAL GUESS: MODEL POTENTIAL
------------------------------
Loading Hartree-Fock densities                     ... done
Calculating cut-offs                               ... done
Initializing the effective Hamiltonian             ... done
Setting up the integral package (SHARK)            ... done
Starting the Coulomb interaction                   ... done (   0.4 sec)
Reading the grid                                   ... done
Mapping shells                                     ... done
Starting the XC term evaluation                    ... done (   0.2 sec)
  promolecular density results
     # of electrons  =    219.981206417
     EX              =   -164.430824635
     EC              =     -7.327277925
     EX+EC           =   -171.758102560
Transforming the Hamiltonian                       ... done (   0.0 sec)
Diagonalizing the Hamiltonian                      ... done (   0.0 sec)
Back transforming the eigenvectors                 ... done (   0.0 sec)
Now organizing SCF variables                       ... done
                      ------------------
                      INITIAL GUESS DONE (   1.3 sec)
                      ------------------
-------------------
DFT GRID GENERATION
-------------------

General Integration Accuracy     IntAcc      ... 4.388
Radial Grid Type                 RadialGrid  ... OptM3 with GC (2021)
Angular Grid (max. ang.)         AngularGrid ... 4 (Lebedev-302)
Angular grid pruning method      GridPruning ... 4 (adaptive)
Weight generation scheme         WeightScheme... Becke
Basis function cutoff            BFCut       ... 1.0000e-11
Integration weight cutoff        WCut        ... 1.0000e-14
Angular grids for H and He will be reduced by one unit
Partially contracted basis set               ... off
Rotationally invariant grid construction     ... off

Total number of grid points                  ...   309806
Total number of batches                      ...     4876
Average number of points per batch           ...       63
Average number of grid points per atom       ...     4244
Time for grid setup =    3.082 sec

--------------------
COSX GRID GENERATION
--------------------

GRIDX 1
-------
General Integration Accuracy     IntAcc      ... 3.816
Radial Grid Type                 RadialGrid  ... OptM3 with GC (2021)
Angular Grid (max. ang.)         AngularGrid ... 1 (Lebedev-50)
Angular grid pruning method      GridPruning ... 4 (adaptive)
Weight generation scheme         WeightScheme... Becke
Basis function cutoff            BFCut       ... 1.0000e-11
Integration weight cutoff        WCut        ... 1.0000e-14
Angular grids for H and He will be reduced by one unit
Partially contracted basis set               ... on
Rotationally invariant grid construction     ... off

Total number of grid points                  ...    39359
Total number of batches                      ...      653
Average number of points per batch           ...       60
Average number of grid points per atom       ...      539
UseSFitting                                  ... on

GRIDX 2
-------
General Integration Accuracy     IntAcc      ... 4.020
Radial Grid Type                 RadialGrid  ... OptM3 with GC (2021)
Angular Grid (max. ang.)         AngularGrid ... 2 (Lebedev-110)
Angular grid pruning method      GridPruning ... 4 (adaptive)
Weight generation scheme         WeightScheme... Becke
Basis function cutoff            BFCut       ... 1.0000e-11
Integration weight cutoff        WCut        ... 1.0000e-14
Angular grids for H and He will be reduced by one unit
Partially contracted basis set               ... on
Rotationally invariant grid construction     ... off

Total number of grid points                  ...    81261
Total number of batches                      ...     1308
Average number of points per batch           ...       62
Average number of grid points per atom       ...     1113
UseSFitting                                  ... on

GRIDX 3
-------
General Integration Accuracy     IntAcc      ... 4.338
Radial Grid Type                 RadialGrid  ... OptM3 with GC (2021)
Angular Grid (max. ang.)         AngularGrid ... 3 (Lebedev-194)
Angular grid pruning method      GridPruning ... 4 (adaptive)
Weight generation scheme         WeightScheme... Becke
Basis function cutoff            BFCut       ... 1.0000e-11
Integration weight cutoff        WCut        ... 1.0000e-14
Angular grids for H and He will be reduced by one unit
Partially contracted basis set               ... on
Rotationally invariant grid construction     ... off

Total number of grid points                  ...   176049
Total number of batches                      ...     2789
Average number of points per batch           ...       63
Average number of grid points per atom       ...     2412
UseSFitting                                  ... on

Time for X-Grid setup             =    3.082 sec


--------------------
CPCM SOLVATION MODEL
--------------------
CPCM parameters:
  Epsilon                                         ...       4.9000
  Refrac                                          ...       1.4500
  Rsolv                                           ...       1.3000
  Surface type                                    ... GAUSSIAN VDW
  Epsilon function type                           ...         CPCM
Radii:
 Radius for C  used is    3.8550 Bohr (=   2.0400 Ang.)
 Radius for H  used is    2.4944 Bohr (=   1.3200 Ang.)
 Radius for O  used is    3.4469 Bohr (=   1.8240 Ang.)
Calculating surface                               ...        done! (  0.0s)
GEPOL surface points                              ...         3631
GEPOL Volume                                      ...    3606.1324
GEPOL Surface-area                                ...    1778.9450
Calculating surface distance matrix               ...        done! (  0.1s)
Performing Cholesky decomposition & store         ...        done! (  0.7s)
Overall time for CPCM initialization              ...                 0.8s
--------------
SCF ITERATIONS
--------------
ITER       Energy         Delta-E        Max-DP      RMS-DP      [F,P]     Damp
               ***  Starting incremental Fock matrix formation  ***

  HOMO= 109 E= -3.969 eV LUMO=  7.707 eV gap=  11.676 eV
  0  -1165.0104836223   0.000000000000 0.09761605  0.00106629  0.1968505 0.7000

  HOMO= 109 E= -4.838 eV LUMO=  7.022 eV gap=  11.860 eV
  1  -1165.2300433838  -0.219559761522 0.06545147  0.00078455  0.0953284 0.7000
                               ***Turning on DIIS***

  HOMO= 109 E= -5.438 eV LUMO=  6.473 eV gap=  11.911 eV
  2  -1165.3311219686  -0.101078584770 0.10322521  0.00138757  0.0375618 0.0000

  HOMO= 109 E= -5.996 eV LUMO=  5.943 eV gap=  11.939 eV
  3  -1165.4756979168  -0.144575948210 0.05160465  0.00057352  0.0461887 0.0000

  HOMO= 109 E= -6.065 eV LUMO=  5.872 eV gap=  11.938 eV
  4  -1165.5114044352  -0.035706518396 0.01164791  0.00013360  0.0058511 0.0000

  HOMO= 109 E= -6.014 eV LUMO=  5.931 eV gap=  11.945 eV
  5  -1165.5122571172  -0.000852681989 0.00252427  0.00003785  0.0051523 0.0000

  HOMO= 109 E= -6.001 eV LUMO=  5.945 eV gap=  11.945 eV
  6  -1165.5123361629  -0.000079045711 0.00117625  0.00001165  0.0010828 0.0000

  HOMO= 109 E= -6.003 eV LUMO= -0.860 eV gap=   5.143 eV
  7  -1165.5123414548  -0.000005291936 0.00051531  0.00000603  0.0002350 0.0000
               *** Restarting incremental Fock matrix formation ***
                                   *** Resetting DIIS ***

  HOMO= 109 E= -6.002 eV LUMO= -0.858 eV gap=   5.144 eV
  8  -1165.5124037706  -0.000062315757 0.00033689  0.00000287  0.0001135 0.0000

  HOMO= 109 E= -6.002 eV LUMO= -0.858 eV gap=   5.144 eV
  9  -1165.5124038228  -0.000000052186 0.00013454  0.00000129  0.0001541 0.0000

  HOMO= 109 E= -6.002 eV LUMO= -0.859 eV gap=   5.144 eV
 10  -1165.5124039574  -0.000000134617 0.00006282  0.00000039  0.0000310 0.0000

  HOMO= 109 E= -6.002 eV LUMO= -0.859 eV gap=   5.144 eV
 11  -1165.5124039917  -0.000000034335 0.00002529  0.00000017  0.0000182 0.0000

  HOMO= 109 E= -6.002 eV LUMO= -0.859 eV gap=   5.144 eV
 12  -1165.5124039814   0.000000010285 0.00000701  0.00000005  0.0000032 0.0000
                 **** Energy Check signals convergence ****

               *****************************************************
               *                     SUCCESS                       *
               *           SCF CONVERGED AFTER  13 CYCLES          *
               *****************************************************

Old exchange energy                            =    -42.067799300 Eh
New exchange energy                            =    -42.067817034 Eh
Exchange energy change after final integration =     -0.000017734 Eh
Total energy after final integration           =  -1165.512421719 Eh
Final COS-X integration done in                =    13.400 sec

----------------
TOTAL SCF ENERGY
----------------

Total Energy       :        -1165.51242172 Eh          -31715.20536 eV

Components:
Nuclear Repulsion  :         2811.89394951 Eh           76515.52434 eV
Electronic Energy  :        -3977.40637123 Eh         -108230.72971 eV
One Electron Energy:        -7165.57018261 Eh         -194985.07752 eV
Two Electron Energy:         3188.16381138 Eh           86754.34781 eV
Max COSX asymmetry :            0.00000232 Eh               0.00006 eV
CPCM Dielectric    :           -0.01339050 Eh              -0.36437 eV

Virial components:
Potential Energy   :        -2322.40944231 Eh          -63195.97375 eV
Kinetic Energy     :         1156.89702059 Eh           31480.76838 eV
Virial Ratio       :            2.00744699


DFT components:
N(Alpha)           :      110.000157097119 electrons
N(Beta)            :      110.000157097119 electrons
N(Total)           :      220.000314194239 electrons
E(X)               :     -125.745859971956 Eh       
E(C)               :       -7.328104438222 Eh       
E(XC)              :     -133.073964410178 Eh       
DFET-embed. en.    :        0.000000000000 Eh       
CPCM Solvation Model Properties:
Surface-charge          :           -0.03414891
Charge-correction       :           -0.00008366 Eh              -0.00228 eV
Free-energy (cav+disp)  :  This term is not implemented in the current solvation scheme

---------------
SCF CONVERGENCE
---------------

  Last Energy change         ...   -3.4022e-09  Tolerance :   1.0000e-07
  Last MAX-Density change    ...    0.0000e+00  Tolerance :   1.0000e-05
  Last RMS-Density change    ...    0.0000e+00  Tolerance :   1.0000e-06
  Last DIIS Error            ...    2.2512e-06  Tolerance :   1.0000e-07

             **** THE GBW FILE WAS UPDATED (inpJ.gbw) ****
             **** DENSITY inpJ.scfp WAS UPDATED ****
             **** ENERGY FILE WAS UPDATED (inpJ.en.tmp) ****
             **** THE GBW FILE WAS UPDATED (inpJ.gbw) ****
             **** DENSITY inpJ.scfp WAS UPDATED ****
----------------
ORBITAL ENERGIES
----------------

  NO   OCC          E(Eh)            E(eV) 
   0   2.0000     -19.212445      -522.7972 
   1   2.0000     -10.300397      -280.2881 
   2   2.0000     -10.270344      -279.4703 
   3   2.0000     -10.268144      -279.4104 
   4   2.0000     -10.263415      -279.2817 
   5   2.0000     -10.257322      -279.1159 
   6   2.0000     -10.256945      -279.1057 
   7   2.0000     -10.251048      -278.9452 
   8   2.0000     -10.249599      -278.9058 
   9   2.0000     -10.249361      -278.8993 
  10   2.0000     -10.248062      -278.8640 
  11   2.0000     -10.247537      -278.8497 
  12   2.0000     -10.246029      -278.8086 
  13   2.0000     -10.244959      -278.7795 
  14   2.0000     -10.244383      -278.7638 
  15   2.0000     -10.243198      -278.7316 
  16   2.0000     -10.242786      -278.7204 
  17   2.0000     -10.242276      -278.7065 
  18   2.0000     -10.241739      -278.6919 
  19   2.0000     -10.241347      -278.6812 
  20   2.0000     -10.240141      -278.6484 
  21   2.0000     -10.234267      -278.4886 
  22   2.0000     -10.234194      -278.4866 
  23   2.0000     -10.232546      -278.4417 
  24   2.0000     -10.225751      -278.2568 
  25   2.0000     -10.225272      -278.2438 
  26   2.0000     -10.225066      -278.2382 
  27   2.0000     -10.221814      -278.1497 
  28   2.0000     -10.220727      -278.1201 
  29   2.0000      -1.043226       -28.3876 
  30   2.0000      -0.901286       -24.5252 
  31   2.0000      -0.882011       -24.0007 
  32   2.0000      -0.859923       -23.3997 
  33   2.0000      -0.846002       -23.0209 
  34   2.0000      -0.822355       -22.3774 
  35   2.0000      -0.814080       -22.1522 
  36   2.0000      -0.795794       -21.6547 
  37   2.0000      -0.794952       -21.6317 
  38   2.0000      -0.776885       -21.1401 
  39   2.0000      -0.758261       -20.6333 
  40   2.0000      -0.740639       -20.1538 
  41   2.0000      -0.733931       -19.9713 
  42   2.0000      -0.714865       -19.4525 
  43   2.0000      -0.702944       -19.1281 
  44   2.0000      -0.702745       -19.1227 
  45   2.0000      -0.695291       -18.9198 
  46   2.0000      -0.670625       -18.2486 
  47   2.0000      -0.662645       -18.0315 
  48   2.0000      -0.632214       -17.2034 
  49   2.0000      -0.622048       -16.9268 
  50   2.0000      -0.612257       -16.6604 
  51   2.0000      -0.605799       -16.4846 
  52   2.0000      -0.596435       -16.2298 
  53   2.0000      -0.584655       -15.9093 
  54   2.0000      -0.558245       -15.1906 
  55   2.0000      -0.545931       -14.8555 
  56   2.0000      -0.538917       -14.6647 
  57   2.0000      -0.529291       -14.4027 
  58   2.0000      -0.515239       -14.0204 
  59   2.0000      -0.507126       -13.7996 
  60   2.0000      -0.498235       -13.5577 
  61   2.0000      -0.488292       -13.2871 
  62   2.0000      -0.485824       -13.2199 
  63   2.0000      -0.480821       -13.0838 
  64   2.0000      -0.474315       -12.9068 
  65   2.0000      -0.466694       -12.6994 
  66   2.0000      -0.466045       -12.6817 
  67   2.0000      -0.462049       -12.5730 
  68   2.0000      -0.459238       -12.4965 
  69   2.0000      -0.451606       -12.2888 
  70   2.0000      -0.450300       -12.2533 
  71   2.0000      -0.442331       -12.0364 
  72   2.0000      -0.436448       -11.8764 
  73   2.0000      -0.433642       -11.8000 
  74   2.0000      -0.430406       -11.7119 
  75   2.0000      -0.423426       -11.5220 
  76   2.0000      -0.420460       -11.4413 
  77   2.0000      -0.413811       -11.2604 
  78   2.0000      -0.410609       -11.1732 
  79   2.0000      -0.404453       -11.0057 
  80   2.0000      -0.401475       -10.9247 
  81   2.0000      -0.396488       -10.7890 
  82   2.0000      -0.396061       -10.7774 
  83   2.0000      -0.387950       -10.5567 
  84   2.0000      -0.385452       -10.4887 
  85   2.0000      -0.379622       -10.3300 
  86   2.0000      -0.375505       -10.2180 
  87   2.0000      -0.373740       -10.1700 
  88   2.0000      -0.366049        -9.9607 
  89   2.0000      -0.365125        -9.9356 
  90   2.0000      -0.360692        -9.8149 
  91   2.0000      -0.358707        -9.7609 
  92   2.0000      -0.351304        -9.5595 
  93   2.0000      -0.344243        -9.3673 
  94   2.0000      -0.340667        -9.2700 
  95   2.0000      -0.340362        -9.2617 
  96   2.0000      -0.337117        -9.1734 
  97   2.0000      -0.333498        -9.0749 
  98   2.0000      -0.332003        -9.0343 
  99   2.0000      -0.330644        -8.9973 
 100   2.0000      -0.327273        -8.9056 
 101   2.0000      -0.324149        -8.8205 
 102   2.0000      -0.319126        -8.6839 
 103   2.0000      -0.316290        -8.6067 
 104   2.0000      -0.310474        -8.4484 
 105   2.0000      -0.300664        -8.1815 
 106   2.0000      -0.276655        -7.5282 
 107   2.0000      -0.275091        -7.4856 
 108   2.0000      -0.256268        -6.9734 
 109   2.0000      -0.220581        -6.0023 
 110   0.0000      -0.031551        -0.8585 
 111   0.0000       0.019482         0.5301 
 112   0.0000       0.027872         0.7584 
 113   0.0000       0.080127         2.1804 
 114   0.0000       0.087761         2.3881 
 115   0.0000       0.101394         2.7591 
 116   0.0000       0.105013         2.8576 
 117   0.0000       0.108297         2.9469 
 118   0.0000       0.111353         3.0301 
 119   0.0000       0.114219         3.1081 
 120   0.0000       0.116636         3.1738 
 121   0.0000       0.117758         3.2044 
 122   0.0000       0.125884         3.4255 
 123   0.0000       0.133023         3.6197 
 124   0.0000       0.134411         3.6575 
 125   0.0000       0.136772         3.7218 
 126   0.0000       0.139236         3.7888 
 127   0.0000       0.140151         3.8137 
 128   0.0000       0.147950         4.0259 
 129   0.0000       0.150959         4.1078 
 130   0.0000       0.152732         4.1560 
 131   0.0000       0.156165         4.2495 
 132   0.0000       0.157833         4.2949 
 133   0.0000       0.161879         4.4049 
 134   0.0000       0.167079         4.5465 
 135   0.0000       0.170930         4.6513 
 136   0.0000       0.172839         4.7032 
 137   0.0000       0.174093         4.7373 
 138   0.0000       0.176703         4.8083 
 139   0.0000       0.177782         4.8377 
 140   0.0000       0.181681         4.9438 
 141   0.0000       0.186851         5.0845 
 142   0.0000       0.187203         5.0941 
 143   0.0000       0.190069         5.1721 
 144   0.0000       0.197747         5.3810 
 145   0.0000       0.200323         5.4511 
 146   0.0000       0.200488         5.4556 
 147   0.0000       0.204126         5.5545 
 148   0.0000       0.208878         5.6839 
 149   0.0000       0.210157         5.7187 
 150   0.0000       0.215917         5.8754 
 151   0.0000       0.216760         5.8983 
 152   0.0000       0.218104         5.9349 
 153   0.0000       0.232146         6.3170 
 154   0.0000       0.234263         6.3746 
 155   0.0000       0.238957         6.5023 
 156   0.0000       0.243016         6.6128 
 157   0.0000       0.247300         6.7294 
 158   0.0000       0.249891         6.7999 
 159   0.0000       0.251843         6.8530 
 160   0.0000       0.258677         7.0390 
 161   0.0000       0.260620         7.0918 
 162   0.0000       0.263065         7.1584 
 163   0.0000       0.266276         7.2457 
 164   0.0000       0.267293         7.2734 
 165   0.0000       0.274197         7.4613 
 166   0.0000       0.277410         7.5487 
 167   0.0000       0.280913         7.6440 
 168   0.0000       0.283940         7.7264 
 169   0.0000       0.287031         7.8105 
 170   0.0000       0.296753         8.0750 
 171   0.0000       0.299966         8.1625 
 172   0.0000       0.300997         8.1906 
 173   0.0000       0.305777         8.3206 
 174   0.0000       0.309537         8.4229 
 175   0.0000       0.314470         8.5572 
 176   0.0000       0.319879         8.7043 
 177   0.0000       0.338410         9.2086 
 178   0.0000       0.349065         9.4985 
 179   0.0000       0.356479         9.7003 
 180   0.0000       0.365149         9.9362 
 181   0.0000       0.376302        10.2397 
 182   0.0000       0.382526        10.4091 
 183   0.0000       0.404585        11.0093 
 184   0.0000       0.421417        11.4673 
 185   0.0000       0.461748        12.5648 
 186   0.0000       0.476130        12.9562 
 187   0.0000       0.487117        13.2551 
 188   0.0000       0.506304        13.7772 
 189   0.0000       0.516795        14.0627 
 190   0.0000       0.519947        14.1485 
 191   0.0000       0.531552        14.4643 
 192   0.0000       0.537245        14.6192 
 193   0.0000       0.566026        15.4023 
 194   0.0000       0.568543        15.4709 
 195   0.0000       0.571667        15.5559 
 196   0.0000       0.577530        15.7154 
 197   0.0000       0.580981        15.8093 
 198   0.0000       0.587597        15.9893 
 199   0.0000       0.601757        16.3746 
 200   0.0000       0.614609        16.7244 
 201   0.0000       0.622254        16.9324 
 202   0.0000       0.629904        17.1406 
 203   0.0000       0.632936        17.2231 
 204   0.0000       0.645765        17.5721 
 205   0.0000       0.654285        17.8040 
 206   0.0000       0.654763        17.8170 
 207   0.0000       0.667043        18.1511 
 208   0.0000       0.667897        18.1744 
 209   0.0000       0.669260        18.2115 
 210   0.0000       0.677488        18.4354 
 211   0.0000       0.687711        18.7136 
 212   0.0000       0.688060        18.7231 
 213   0.0000       0.696206        18.9447 
 214   0.0000       0.706465        19.2239 
 215   0.0000       0.712014        19.3749 
 216   0.0000       0.713555        19.4168 
 217   0.0000       0.715770        19.4771 
 218   0.0000       0.721000        19.6194 
 219   0.0000       0.727863        19.8062 
 220   0.0000       0.731220        19.8975 
 221   0.0000       0.733773        19.9670 
 222   0.0000       0.738155        20.0862 
 223   0.0000       0.745232        20.2788 
 224   0.0000       0.746160        20.3040 
 225   0.0000       0.750292        20.4165 
 226   0.0000       0.757833        20.6217 
 227   0.0000       0.761524        20.7221 
 228   0.0000       0.762593        20.7512 
 229   0.0000       0.766039        20.8450 
 230   0.0000       0.772762        21.0279 
 231   0.0000       0.773547        21.0493 
 232   0.0000       0.779746        21.2180 
 233   0.0000       0.787049        21.4167 
 234   0.0000       0.790576        21.5127 
 235   0.0000       0.794873        21.6296 
 236   0.0000       0.800249        21.7759 
 237   0.0000       0.805936        21.9306 
 238   0.0000       0.812189        22.1008 
 239   0.0000       0.813249        22.1296 
 240   0.0000       0.822164        22.3722 
 241   0.0000       0.825812        22.4715 
 242   0.0000       0.841298        22.8929 
 243   0.0000       0.841891        22.9090 
 244   0.0000       0.849671        23.1207 
 245   0.0000       0.855041        23.2669 
 246   0.0000       0.859800        23.3963 
 247   0.0000       0.861800        23.4508 
 248   0.0000       0.866431        23.5768 
 249   0.0000       0.871324        23.7099 
 250   0.0000       0.874122        23.7861 
 251   0.0000       0.874679        23.8012 
 252   0.0000       0.876409        23.8483 
 253   0.0000       0.880367        23.9560 
 254   0.0000       0.882422        24.0119 
 255   0.0000       0.884339        24.0641 
 256   0.0000       0.886715        24.1287 
 257   0.0000       0.887498        24.1500 
 258   0.0000       0.892507        24.2864 
 259   0.0000       0.894769        24.3479 
 260   0.0000       0.899426        24.4746 
 261   0.0000       0.902347        24.5541 
 262   0.0000       0.906427        24.6651 
 263   0.0000       0.909941        24.7608 
 264   0.0000       0.912143        24.8207 
 265   0.0000       0.919013        25.0076 
 266   0.0000       0.921635        25.0790 
 267   0.0000       0.927672        25.2432 
 268   0.0000       0.931022        25.3344 
 269   0.0000       0.935354        25.4523 
 270   0.0000       0.939953        25.5774 
 271   0.0000       0.945705        25.7340 
 272   0.0000       0.950162        25.8552 
 273   0.0000       0.952492        25.9186 
 274   0.0000       0.953016        25.9329 
 275   0.0000       0.965619        26.2758 
 276   0.0000       0.967369        26.3234 
 277   0.0000       0.973388        26.4872 
 278   0.0000       0.975445        26.5432 
 279   0.0000       0.980252        26.6740 
 280   0.0000       0.985499        26.8168 
 281   0.0000       1.001292        27.2465 
 282   0.0000       1.008178        27.4339 
 283   0.0000       1.013065        27.5669 
 284   0.0000       1.023653        27.8550 
 285   0.0000       1.029065        28.0023 
 286   0.0000       1.041685        28.3457 
 287   0.0000       1.053374        28.6638 
 288   0.0000       1.057319        28.7711 
 289   0.0000       1.068170        29.0664 
 290   0.0000       1.073116        29.2010 
 291   0.0000       1.076321        29.2882 
 292   0.0000       1.080289        29.3961 
 293   0.0000       1.094613        29.7859 
 294   0.0000       1.103509        30.0280 
 295   0.0000       1.119935        30.4750 
 296   0.0000       1.125492        30.6262 
 297   0.0000       1.132722        30.8229 
 298   0.0000       1.134584        30.8736 
 299   0.0000       1.145612        31.1737 
 300   0.0000       1.159102        31.5408 
 301   0.0000       1.165991        31.7282 
 302   0.0000       1.192757        32.4566 
 303   0.0000       1.211276        32.9605 
 304   0.0000       1.234504        33.5926 
 305   0.0000       1.238592        33.7038 
 306   0.0000       1.247503        33.9463 
 307   0.0000       1.280353        34.8402 
 308   0.0000       1.284144        34.9433 
 309   0.0000       1.302639        35.4466 
 310   0.0000       1.324508        36.0417 
 311   0.0000       1.334413        36.3112 
 312   0.0000       1.367464        37.2106 
 313   0.0000       1.375961        37.4418 
 314   0.0000       1.410409        38.3792 
 315   0.0000       1.513995        41.1979 
 316   0.0000       1.527402        41.5627 
 317   0.0000       1.570442        42.7339 
 318   0.0000       1.591579        43.3091 
 319   0.0000       1.675002        45.5791 
 320   0.0000       6.202225       168.7711 
 321   0.0000       6.232220       169.5873 
 322   0.0000       6.261125       170.3739 
 323   0.0000       6.271514       170.6566 
 324   0.0000       6.274828       170.7468 
 325   0.0000       6.289934       171.1578 
 326   0.0000       6.298114       171.3804 
 327   0.0000       6.302854       171.5094 
 328   0.0000       6.317112       171.8974 
 329   0.0000       6.335031       172.3850 
 330   0.0000       6.339986       172.5198 
 331   0.0000       6.351110       172.8225 
 332   0.0000       6.360209       173.0701 
 333   0.0000       6.373551       173.4331 
 334   0.0000       6.386449       173.7841 
 335   0.0000       6.401633       174.1973 
 336   0.0000       6.407357       174.3530 
 337   0.0000       6.414485       174.5470 
 338   0.0000       6.421470       174.7371 
 339   0.0000       6.423710       174.7980 
 340   0.0000       6.434498       175.0916 
 341   0.0000       6.443402       175.3339 
 342   0.0000       6.454084       175.6245 
 343   0.0000       6.454782       175.6435 
 344   0.0000       6.469210       176.0362 
 345   0.0000       6.480550       176.3447 
 346   0.0000       6.486030       176.4938 
 347   0.0000       6.498357       176.8293 
 348   0.0000       6.509725       177.1386 
 349   0.0000       6.517471       177.3494 
 350   0.0000       6.525966       177.5805 
 351   0.0000       6.530529       177.7047 
 352   0.0000       6.537519       177.8949 
 353   0.0000       6.542361       178.0267 
 354   0.0000       6.549235       178.2138 
 355   0.0000       6.552740       178.3091 
 356   0.0000       6.566127       178.6734 
 357   0.0000       6.570639       178.7962 
 358   0.0000       6.575410       178.9260 
 359   0.0000       6.577045       178.9705 
 360   0.0000       6.584553       179.1748 
 361   0.0000       6.587722       179.2610 
 362   0.0000       6.590313       179.3315 
 363   0.0000       6.591745       179.3705 
 364   0.0000       6.596751       179.5067 
 365   0.0000       6.603675       179.6951 
 366   0.0000       6.609036       179.8410 
 367   0.0000       6.612045       179.9229 
 368   0.0000       6.615236       180.0097 
 369   0.0000       6.618141       180.0888 
 370   0.0000       6.619477       180.1251 
 371   0.0000       6.628375       180.3673 
 372   0.0000       6.631653       180.4565 
 373   0.0000       6.634444       180.5324 
 374   0.0000       6.638202       180.6346 
[...]
     69 H        0.000      0.000      0.000      0.000      0.000      0.000
     70 H        0.000      0.000      0.000     -0.000      0.001      0.020
     71 H        0.000      0.000      0.000      0.000      0.001      0.008
     72 H        0.000      0.000      0.000      0.000      0.002      0.034
                 25 H       27 H       28 H       30 H       31 H       33 H  
      3 H        0.074     -0.003      0.002      0.000      0.000      0.089
      4 H        2.261     -0.110      0.068      0.000      0.000      2.526
      8 H        0.115      0.000      0.000      0.000      0.000      0.106
      9 H       -0.257      0.015      0.000      0.000      0.000     -0.305
     10 H        0.000      0.000      0.000      0.000      0.000      0.000
     11 H        0.000      0.000      0.000      0.000      0.000      0.000
     13 H       -0.037      0.000      0.000      0.000      0.000      0.000
     16 H       -0.257      0.014     -0.005     -0.032     -0.002     -0.300
     17 H       -0.242      0.013      0.000      0.000      0.000     -0.299
     19 H        0.930     -0.046      0.079      0.066      0.005      0.971
     21 H       -2.801      0.190      0.665     -0.233     -0.028     -2.345
     24 H      -13.328      4.343      2.347      0.637     -0.500     -0.128
     25 H        0.000     12.953      5.210     -0.643     -0.355     -2.093
     27 H       12.953      0.000    -13.584      4.045     12.983      0.061
     28 H        5.210    -13.584      0.000      2.582      4.169      0.286
     30 H       -0.643      4.045      2.582      0.000    -12.994      0.038
     31 H       -0.355     12.983      4.169    -12.994      0.000     -0.326
     33 H       -2.093      0.061      0.286      0.038     -0.326      0.000
     35 H       -0.026      0.001     -0.001      0.000      0.000     -0.034
     37 H        0.276      0.004     -0.036      0.514     -0.036      6.459
     38 H        0.163      0.001     -0.028     -0.012      0.125     12.212
     40 H       -0.013      0.019      0.141     -0.002     -0.033     -0.249
     41 H        0.009      0.021     -0.026      0.014      0.081     -0.429
     42 H       -0.018      0.013     -0.011     -0.259     -0.375     -0.204
     45 H       -0.060     -0.121     -0.146     -0.147      1.830     -0.474
     46 H       -0.016     -0.224      0.001     -0.208     -0.480     -0.218
     47 H        0.015      0.048      0.063     -0.334      0.017      0.863
     48 H       -0.014      0.030      0.023      0.029      0.009      0.001
     52 H        0.001      0.001      0.002     -0.003      0.001      0.002
     53 H        0.000     -0.000      0.000      0.000     -0.001     -0.003
     57 H        0.000      0.000      0.000     -0.004      0.001      0.004
     58 H        0.000      0.000      0.000      0.000      0.000      0.000
     61 H        0.000      0.000      0.000      0.000     -0.000     -0.000
     62 H        0.000      0.000      0.000      0.000      0.000      0.000
     63 H        0.000      0.000      0.000      0.000     -0.000     -0.000
     64 H        0.000      0.000      0.000      0.000     -0.000     -0.000
     65 H        0.000      0.000      0.000      0.000     -0.000     -0.000
     66 H        0.000      0.000      0.000      0.000      0.000     -0.000
     67 H        0.000      0.000      0.000      0.000      0.000      0.000
     68 H        0.000      0.000      0.000      0.000      0.000      0.000
     69 H        0.000      0.000      0.000      0.000      0.000      0.000
     70 H        0.004     -0.010     -0.009     -0.438     -0.075      0.003
     71 H        0.000     -0.001     -0.003      0.074      0.014     -0.001
     72 H        0.000     -0.010     -0.011      0.084     -0.043      0.003
                 35 H       37 H       38 H       40 H       41 H       42 H  
      3 H       -0.266     -0.001     -0.001      0.000      0.000      0.000
      4 H       -0.644     -0.045     -0.014      0.000      0.000      0.000
      8 H       -0.033     -0.002     -0.002      0.000     -0.000      0.000
      9 H       -0.155      0.006      0.002      0.001      0.001      0.000
     10 H       -0.402     -0.000     -0.000      0.000      0.000      0.000
     11 H       -0.143     -0.002     -0.000      0.000      0.000      0.000
     13 H       12.498      0.000      0.000      0.000      0.000      0.000
     16 H       -0.003      0.005      0.003      0.001      0.001     -0.001
     17 H       -0.002      0.005      0.003     -0.000      0.001      0.000
     19 H        0.046     -0.020      0.079      0.015     -0.004      0.004
     21 H       -0.015      0.063     -0.581     -0.012      0.062     -0.024
     24 H       -0.001     -0.057     -0.081     -0.019      0.067     -0.023
     25 H       -0.026      0.276      0.163     -0.013      0.009     -0.018
     27 H        0.001      0.004      0.001      0.019      0.021      0.013
     28 H       -0.001     -0.036     -0.028      0.141     -0.026     -0.011
     30 H        0.000      0.514     -0.012     -0.002      0.014     -0.259
     31 H        0.000     -0.036      0.125     -0.033      0.081     -0.375
     33 H       -0.034      6.459     12.212     -0.249     -0.429     -0.204
     35 H        0.000      0.000     -0.000      0.000      0.000      0.000
     37 H        0.000      0.000    -12.265      9.502      2.604     -0.261
     38 H       -0.000    -12.265      0.000      6.838     11.574     -0.466
     40 H        0.000      9.502      6.838      0.000    -13.595      9.611
     41 H        0.000      2.604     11.574    -13.595      0.000      8.615
     42 H        0.000     -0.261     -0.466      9.611      8.615      0.000
     45 H       -0.000      0.063     -0.068     -0.106     -0.056     -0.083
     46 H        0.000      0.062      0.035     -0.087      0.008      1.108
     47 H        0.000     -0.172      0.009      0.053      0.042     -0.407
     48 H        0.000      0.096     -0.008     -0.202     -0.429     10.343
     52 H        0.000     -0.001      0.003      0.072     -0.019     -0.280
     53 H        0.000      0.003      0.007     -0.121      0.030      0.081
     57 H        0.000     -0.004     -0.003      0.158     -0.017     -0.071
     58 H        0.000     -0.001     -0.001      0.031      0.011     -0.006
     61 H        0.000     -0.000      0.000     -0.000      0.000     -0.000
     62 H        0.000     -0.000      0.000     -0.003      0.001      0.008
     63 H        0.000      0.000      0.000     -0.003      0.001     -0.000
     64 H        0.000      0.002      0.003     -0.012     -0.024      0.002
     65 H        0.000      0.002      0.003     -0.157     -0.109      0.004
     66 H        0.000     -0.000      0.000     -0.010     -0.013      0.001
     67 H        0.000     -0.000     -0.000     -0.000     -0.001     -0.001
     68 H        0.000      0.000     -0.000      0.000     -0.001     -0.001
     69 H        0.000      0.000      0.000     -0.001     -0.003      0.000
     70 H        0.000     -0.006      0.004      0.085      0.021     -0.199
     71 H        0.000     -0.020      0.036      0.028     -0.057     -0.351
     72 H        0.000      0.068      0.008     -0.024      0.007     -0.432
                 45 H       46 H       47 H       48 H       52 H       53 H  
      3 H        0.001     -0.000     -0.001      0.000      0.000      0.000
      4 H        0.027     -0.017     -0.019      0.000      0.000      0.000
      8 H        0.001     -0.001      0.000      0.000      0.000      0.000
      9 H       -0.003      0.002      0.000      0.000      0.000      0.000
     10 H        0.000     -0.000      0.000      0.000      0.000      0.000
     11 H        0.000      0.000      0.000      0.000      0.000      0.000
     13 H        0.000      0.000      0.000      0.000      0.000      0.000
     16 H       -0.003     -0.000      0.002     -0.002      0.000      0.000
     17 H       -0.004     -0.000      0.001     -0.002      0.000      0.000
     19 H        0.010     -0.010     -0.009      0.005      0.000      0.000
     21 H       -0.018      0.044      0.014     -0.015      0.001     -0.001
     24 H       -0.022     -0.022     -0.016      0.002      0.000      0.000
     25 H       -0.060     -0.016      0.015     -0.014      0.001      0.000
     27 H       -0.121     -0.224      0.048      0.030      0.001     -0.000
     28 H       -0.146      0.001      0.063      0.023      0.002      0.000
     30 H       -0.147     -0.208     -0.334      0.029     -0.003      0.000
     31 H        1.830     -0.480      0.017      0.009      0.001     -0.001
     33 H       -0.474     -0.218      0.863      0.001      0.002     -0.003
     35 H       -0.000      0.000      0.000      0.000      0.000      0.000
     37 H        0.063      0.062     -0.172      0.096     -0.001      0.003
     38 H       -0.068      0.035      0.009     -0.008      0.003      0.007
     40 H       -0.106     -0.087      0.053     -0.202      0.072     -0.121
     41 H       -0.056      0.008      0.042     -0.429     -0.019      0.030
     42 H       -0.083      1.108     -0.407     10.343     -0.280      0.081
     45 H        0.000    -13.570    -13.052     -0.181      0.072     -0.002
     46 H      -13.570      0.000    -12.908     -0.115      0.246     -0.002
     47 H      -13.052    -12.908      0.000     -0.071      0.076     -0.002
     48 H       -0.181     -0.115     -0.071      0.000      9.678     -0.643
     52 H        0.072      0.246      0.076      9.678      0.000     16.511
     53 H       -0.002     -0.002     -0.002     -0.643     16.511      0.000
     57 H        0.000      0.000      0.001      0.126     -2.748      4.503
     58 H       -0.000      0.000      0.000     -0.009      0.204     -0.407
     61 H        0.000      0.000      0.000      0.109     -0.267     -0.581
     62 H        0.000      0.000      0.000      0.263     -0.170      0.877
     63 H        0.000      0.000      0.000      0.059     -0.092     -0.509
     64 H       -0.000      0.000     -0.000      0.000     -0.004      0.027
     65 H       -0.000     -0.000      0.000     -0.003      0.029     -0.001
     66 H       -0.000      0.000     -0.000     -0.003      0.032     -0.033
     67 H       -0.000      0.000     -0.000     -0.000     -0.009     -0.010
     68 H       -0.000      0.000      0.000     -0.005      0.153     -0.039
     69 H       -0.000     -0.000     -0.000     -0.003      0.105     -0.171
     70 H       -0.017     -0.050     -0.198      4.397     -0.077     -0.390
     71 H        0.037     -0.032     -0.037     12.641     -0.270      0.099
     72 H       -0.012     -0.028     -0.015      2.330     -0.152      0.105
                 57 H       58 H       61 H       62 H       63 H       64 H  
      3 H        0.000      0.000      0.000      0.000      0.000      0.000
      4 H        0.000      0.000      0.000      0.000      0.000      0.000
      8 H        0.000      0.000      0.000      0.000      0.000      0.000
      9 H        0.000      0.000      0.000      0.000      0.000      0.000
     10 H        0.000      0.000      0.000      0.000      0.000      0.000
     11 H        0.000      0.000      0.000      0.000      0.000      0.000
     13 H        0.000      0.000      0.000      0.000      0.000      0.000
     16 H        0.000      0.000      0.000      0.000      0.000      0.000
     17 H        0.000      0.000      0.000      0.000      0.000      0.000
     19 H        0.000      0.000      0.000      0.000      0.000      0.000
     21 H        0.000      0.000      0.000      0.000      0.000      0.000
     24 H        0.000      0.000      0.000      0.000      0.000      0.000
     25 H        0.000      0.000      0.000      0.000      0.000      0.000
     27 H        0.000      0.000      0.000      0.000      0.000      0.000
     28 H        0.000      0.000      0.000      0.000      0.000      0.000
     30 H       -0.004      0.000      0.000      0.000      0.000      0.000
     31 H        0.001      0.000     -0.000      0.000     -0.000     -0.000
     33 H        0.004      0.000     -0.000      0.000     -0.000     -0.000
     35 H        0.000      0.000      0.000      0.000      0.000      0.000
     37 H       -0.004     -0.001     -0.000     -0.000      0.000      0.002
     38 H       -0.003     -0.001      0.000      0.000      0.000      0.003
     40 H        0.158      0.031     -0.000     -0.003     -0.003     -0.012
     41 H       -0.017      0.011      0.000      0.001      0.001     -0.024
     42 H       -0.071     -0.006     -0.000      0.008     -0.000      0.002
     45 H        0.000     -0.000      0.000      0.000      0.000     -0.000
     46 H        0.000      0.000      0.000      0.000      0.000      0.000
     47 H        0.001      0.000      0.000      0.000      0.000     -0.000
     48 H        0.126     -0.009      0.109      0.263      0.059      0.000
     52 H       -2.748      0.204     -0.267     -0.170     -0.092     -0.004
     53 H        4.503     -0.407     -0.581      0.877     -0.509      0.027
     57 H        0.000      3.287     13.090      3.193      4.034     -0.422
     58 H        3.287      0.000     -0.259     -0.334     -0.129      3.539
     61 H       13.090     -0.259      0.000    -12.686    -12.720     -0.304
     62 H        3.193     -0.334    -12.686      0.000    -12.961      0.013
     63 H        4.034     -0.129    -12.720    -12.961      0.000     -0.098
     64 H       -0.422      3.539     -0.304      0.013     -0.098      0.000
     65 H       -0.439     13.087      0.039      0.048      0.069    -12.373
     66 H        0.701      3.180     -0.106      0.055     -0.095    -13.006
     67 H       -0.359      2.413      0.019      0.046      0.016      2.900
     68 H       -0.191      4.785     -0.042     -0.001      0.525     -0.183
     69 H       -0.272     13.167      0.039      0.049     -0.055     -0.191
     70 H        0.818     -0.021     -0.010     -0.018     -0.008     -0.000
     71 H       -0.114      0.002     -0.002      0.004      0.003     -0.000
     72 H       -0.018     -0.001     -0.002     -0.002      0.000     -0.001
                 65 H       66 H       67 H       68 H       69 H       70 H  
      3 H        0.000      0.000      0.000      0.000      0.000      0.000
      4 H        0.000      0.000      0.000      0.000      0.000      0.000
      8 H        0.000      0.000      0.000      0.000      0.000      0.000
      9 H        0.000      0.000      0.000      0.000      0.000      0.000
     10 H        0.000      0.000      0.000      0.000      0.000      0.000
     11 H        0.000      0.000      0.000      0.000      0.000      0.000
     13 H        0.000      0.000      0.000      0.000      0.000      0.000
     16 H        0.000      0.000      0.000      0.000      0.000      0.000
     17 H        0.000      0.000      0.000      0.000      0.000      0.000
     19 H        0.000      0.000      0.000      0.000      0.000     -0.000
     21 H       -0.000      0.000      0.000      0.000      0.000      0.001
     24 H        0.000      0.000      0.000      0.000      0.000      0.020
     25 H        0.000      0.000      0.000      0.000      0.000      0.004
     27 H        0.000      0.000      0.000      0.000      0.000     -0.010
     28 H        0.000      0.000      0.000      0.000      0.000     -0.009
     30 H        0.000      0.000      0.000      0.000      0.000     -0.438
     31 H       -0.000      0.000      0.000      0.000      0.000     -0.075
     33 H       -0.000     -0.000      0.000      0.000      0.000      0.003
     35 H        0.000      0.000      0.000      0.000      0.000      0.000
     37 H        0.002     -0.000     -0.000      0.000      0.000     -0.006
     38 H        0.003      0.000     -0.000     -0.000      0.000      0.004
     40 H       -0.157     -0.010     -0.000      0.000     -0.001      0.085
     41 H       -0.109     -0.013     -0.001     -0.001     -0.003      0.021
     42 H        0.004      0.001     -0.001     -0.001      0.000     -0.199
     45 H       -0.000     -0.000     -0.000     -0.000     -0.000     -0.017
     46 H       -0.000      0.000      0.000      0.000     -0.000     -0.050
     47 H        0.000     -0.000     -0.000      0.000     -0.000     -0.198
     48 H       -0.003     -0.003     -0.000     -0.005     -0.003      4.397
     52 H        0.029      0.032     -0.009      0.153      0.105     -0.077
     53 H       -0.001     -0.033     -0.010     -0.039     -0.171     -0.390
     57 H       -0.439      0.701     -0.359     -0.191     -0.272      0.818
     58 H       13.087      3.180      2.413      4.785     13.167     -0.021
     61 H        0.039     -0.106      0.019     -0.042      0.039     -0.010
     62 H        0.048      0.055      0.046     -0.001      0.049     -0.018
     63 H        0.069     -0.095      0.016      0.525     -0.055     -0.008
     64 H      -12.373    -13.006      2.900     -0.183     -0.191     -0.000
     65 H        0.000    -12.768     -0.293     -0.217     -0.320      0.008
     66 H      -12.768      0.000      0.085     -0.222     -0.192      0.000
     67 H       -0.293      0.085      0.000    -12.767    -11.991      0.001
     68 H       -0.217     -0.222    -12.767      0.000    -13.138      0.000
     69 H       -0.320     -0.192    -11.991    -13.138      0.000     -0.002
     70 H        0.008      0.000      0.001      0.000     -0.002      0.000
     71 H       -0.000      0.001     -0.000      0.000      0.000    -12.418
     72 H        0.002     -0.000     -0.000     -0.000      0.001    -13.229
                 71 H       72 H  
      3 H        0.000      0.000
      4 H        0.000      0.000
      8 H        0.000      0.000
      9 H        0.000      0.000
     10 H        0.000      0.000
     11 H        0.000      0.000
     13 H        0.000      0.000
     16 H        0.000      0.000
     17 H        0.000      0.000
     19 H        0.000      0.000
     21 H        0.001      0.002
     24 H        0.008      0.034
     25 H        0.000      0.000
     27 H       -0.001     -0.010
     28 H       -0.003     -0.011
     30 H        0.074      0.084
     31 H        0.014     -0.043
     33 H       -0.001      0.003
     35 H        0.000      0.000
     37 H       -0.020      0.068
     38 H        0.036      0.008
     40 H        0.028     -0.024
     41 H       -0.057      0.007
     42 H       -0.351     -0.432
     45 H        0.037     -0.012
     46 H       -0.032     -0.028
     47 H       -0.037     -0.015
     48 H       12.641      2.330
     52 H       -0.270     -0.152
     53 H        0.099      0.105
     57 H       -0.114     -0.018
     58 H        0.002     -0.001
     61 H       -0.002     -0.002
     62 H        0.004     -0.002
     63 H        0.003      0.000
     64 H       -0.000     -0.001
     65 H       -0.000      0.002
     66 H        0.001     -0.000
     67 H       -0.000     -0.000
     68 H        0.000     -0.000
     69 H        0.000      0.001
     70 H      -12.418    -13.229
     71 H        0.000    -12.586
     72 H      -12.586      0.000

Maximum memory used throughout the entire EPRNMR-calculation: 988.6 MB

Timings for individual modules:

Sum of individual times         ...      388.923 sec (=   6.482 min)
GTO integral calculation        ...        0.670 sec (=   0.011 min)   0.2 %
SCF iterations                  ...      105.704 sec (=   1.762 min)  27.2 %
EPR/NMR calculation             ...      282.549 sec (=   4.709 min)  72.6 %
                             ****ORCA TERMINATED NORMALLY****
TOTAL RUN TIME: 0 days 0 hours 6 minutes 29 seconds 348 msec
