
                                 *****************
                                 * O   R   C   A *
                                 *****************

                                            #,                                       
                                            ###                                      
                                            ####                                     
                                            #####                                    
                                            ######                                   
                                           ########,                                 
                                     ,,################,,,,,                         
                               ,,#################################,,                 
                          ,,##########################################,,             
                       ,#########################################, ''#####,          
                    ,#############################################,,   '####,        
                  ,##################################################,,,,####,       
                ,###########''''           ''''###############################       
              ,#####''   ,,,,##########,,,,          '''####'''          '####       
            ,##' ,,,,###########################,,,                        '##       
           ' ,,###''''                  '''############,,,                           
         ,,##''                                '''############,,,,        ,,,,,,###''
      ,#''                                            '''#######################'''  
     '                                                          ''''####''''         
             ,#######,   #######,   ,#######,      ##                                
            ,#'     '#,  ##    ##  ,#'     '#,    #''#        ######   ,####,        
            ##       ##  ##   ,#'  ##            #'  '#       #        #'  '#        
            ##       ##  #######   ##           ,######,      #####,   #    #        
            '#,     ,#'  ##    ##  '#,     ,#' ,#      #,         ##   #,  ,#        
             '#######'   ##     ##  '#######'  #'      '#     #####' # '####'        



                  #######################################################
                  #                        -***-                        #
                  #          Department of theory and spectroscopy      #
                  #    Directorship and core code : Frank Neese         #
                  #        Max Planck Institute fuer Kohlenforschung    #
                  #                Kaiser Wilhelm Platz 1               #
                  #                 D-45470 Muelheim/Ruhr               #
                  #                      Germany                        #
                  #                                                     #
                  #                  All rights reserved                #
                  #                        -***-                        #
                  #######################################################


                         Program Version 5.0.2 -  RELEASE  -


 With contributions from (in alphabetic order):
   Daniel Aravena         : Magnetic Suceptibility
   Michael Atanasov       : Ab Initio Ligand Field Theory (pilot matlab implementation)
   Alexander A. Auer      : GIAO ZORA, VPT2 properties, NMR spectrum
   Ute Becker             : Parallelization
   Giovanni Bistoni       : ED, misc. LED, open-shell LED, HFLD
   Martin Brehm           : Molecular dynamics
   Dmytro Bykov           : SCF Hessian
   Vijay G. Chilkuri      : MRCI spin determinant printing, contributions to CSF-ICE
   Dipayan Datta          : RHF DLPNO-CCSD density
   Achintya Kumar Dutta   : EOM-CC, STEOM-CC
   Dmitry Ganyushin       : Spin-Orbit,Spin-Spin,Magnetic field MRCI
   Miquel Garcia          : C-PCM and meta-GGA Hessian, CC/C-PCM, Gaussian charge scheme
   Yang Guo               : DLPNO-NEVPT2, F12-NEVPT2, CIM, IAO-localization
   Andreas Hansen         : Spin unrestricted coupled pair/coupled cluster methods
   Benjamin Helmich-Paris : MC-RPA, TRAH-SCF, COSX integrals
   Lee Huntington         : MR-EOM, pCC
   Robert Izsak           : Overlap fitted RIJCOSX, COSX-SCS-MP3, EOM
   Marcus Kettner         : VPT2
   Christian Kollmar      : KDIIS, OOCD, Brueckner-CCSD(T), CCSD density, CASPT2, CASPT2-K
   Simone Kossmann        : Meta GGA functionals, TD-DFT gradient, OOMP2, MP2 Hessian
   Martin Krupicka        : Initial AUTO-CI
   Lucas Lang             : DCDCAS
   Marvin Lechner         : AUTO-CI (C++ implementation), FIC-MRCC
   Dagmar Lenk            : GEPOL surface, SMD
   Dimitrios Liakos       : Extrapolation schemes; Compound Job, initial MDCI parallelization
   Dimitrios Manganas     : Further ROCIS development; embedding schemes
   Dimitrios Pantazis     : SARC Basis sets
   Anastasios Papadopoulos: AUTO-CI, single reference methods and gradients
   Taras Petrenko         : DFT Hessian,TD-DFT gradient, ASA, ECA, R-Raman, ABS, FL, XAS/XES, NRVS
   Peter Pinski           : DLPNO-MP2, DLPNO-MP2 Gradient
   Christoph Reimann      : Effective Core Potentials
   Marius Retegan         : Local ZFS, SOC
   Christoph Riplinger    : Optimizer, TS searches, QM/MM, DLPNO-CCSD(T), (RO)-DLPNO pert. Triples
   Tobias Risthaus        : Range-separated hybrids, TD-DFT gradient, RPA, STAB
   Michael Roemelt        : Original ROCIS implementation
   Masaaki Saitow         : Open-shell DLPNO-CCSD energy and density
   Barbara Sandhoefer     : DKH picture change effects
   Avijit Sen             : IP-ROCIS
   Kantharuban Sivalingam : CASSCF convergence, NEVPT2, FIC-MRCI
   Bernardo de Souza      : ESD, SOC TD-DFT
   Georgi Stoychev        : AutoAux, RI-MP2 NMR, DLPNO-MP2 response
   Willem Van den Heuvel  : Paramagnetic NMR
   Boris Wezisla          : Elementary symmetry handling
   Frank Wennmohs         : Technical directorship


 We gratefully acknowledge several colleagues who have allowed us to
 interface, adapt or use parts of their codes:
   Stefan Grimme, W. Hujo, H. Kruse, P. Pracht,  : VdW corrections, initial TS optimization,
                  C. Bannwarth, S. Ehlert          DFT functionals, gCP, sTDA/sTD-DF
   Ed Valeev, F. Pavosevic, A. Kumar             : LibInt (2-el integral package), F12 methods
   Garnet Chan, S. Sharma, J. Yang, R. Olivares  : DMRG
   Ulf Ekstrom                                   : XCFun DFT Library
   Mihaly Kallay                                 : mrcc  (arbitrary order and MRCC methods)
   Jiri Pittner, Ondrej Demel                    : Mk-CCSD
   Frank Weinhold                                : gennbo (NPA and NBO analysis)
   Christopher J. Cramer and Donald G. Truhlar   : smd solvation model
   Lars Goerigk                                  : TD-DFT with DH, B97 family of functionals
   V. Asgeirsson, H. Jonsson                     : NEB implementation
   FAccTs GmbH                                   : IRC, NEB, NEB-TS, DLPNO-Multilevel, CI-OPT
                                                   MM, QMMM, 2- and 3-layer-ONIOM, Crystal-QMMM,
                                                   LR-CPCM, SF, NACMEs, symmetry and pop. for TD-DFT,
                                                   nearIR, NL-DFT gradient (VV10), updates on ESD,
                                                   ML-optimized integration grids
   S Lehtola, MJT Oliveira, MAL Marques          : LibXC Library
   Liviu Ungur et al                             : ANISO software


 Your calculation uses the libint2 library for the computation of 2-el integrals
 For citations please refer to: http://libint.valeyev.net

 Your ORCA version has been built with support for libXC version: 5.1.0
 For citations please refer to: https://tddft.org/programs/libxc/

 This ORCA versions uses:
   CBLAS   interface :  Fast vector & matrix operations
   LAPACKE interface :  Fast linear algebra routines
   SCALAPACK package :  Parallel linear algebra routines
   Shared memory     :  Shared parallel matrices
   BLAS/LAPACK       :  OpenBLAS 0.3.15  USE64BITINT DYNAMIC_ARCH NO_AFFINITY Zen SINGLE_THREADED
        Core in use  :  Zen
   Copyright (c) 2011-2014, The OpenBLAS Project


Your calculation utilizes the atom-pairwise dispersion correction
based on tight binding partial charges (D4)
Cite in your paper:
E.Caldeweyher, C.Bannwarth, S.Grimme, J.Chem.Phys., (2017), 147, 034112.
E.Caldeweyher, S.Ehlert, A.Hansen, H.Neugebauer, S.Grimme, J.Chem.Phys., (2018), in progress.
   

================================================================================

----- Orbital basis set information -----
Your calculation utilizes the basis: pcSseg-1
   F. Jensen, J. Chem. Theory Comput. 11, 132 (2015).

----- AuxJ basis set information -----
Your calculation utilizes the auxiliary basis: def2/J
   F. Weigend, Phys. Chem. Chem. Phys. 8, 1057 (2006).

================================================================================
                                        WARNINGS
                       Please study these warnings very carefully!
================================================================================



WARNING: Found flag for RIJCOSX approximation but no HF exchange needed!
  ===> : RIJCOSX  will be disabled and Split-RI-J is turned on

INFO   : the flag for use of the SHARK integral package has been found!

================================================================================
                                       INPUT FILE
================================================================================
NAME = inpS
|  1> ! revTPSS
|  2> ! D4
|  3> ! pcSseg-1
|  4> ! def2/J RIJCOSX
|  5> ! DEFGRID2
|  6> ! scfconv7
|  7> ! smallprint printgap noloewdin
|  8> ! NOSOSCF
|  9> %MaxCore 4000
| 10> %output
| 11>        print[P_BondOrder_M] 1
| 12>        print[P_Mayer] 1
| 13>        print[P_basis] 2
| 14> end
| 15> %pal
| 16>     nprocs 4
| 17> end
| 18> ! CPCM(chloroform)
| 19> *xyz 0 1
| 20> C   -5.0041899600   0.2135301100  -0.5091239400
| 21> C   -6.4535318900  -0.1732168500  -0.6870003700
| 22> C   -7.3639808100   0.7780977500   0.0999740400
| 23> H   -6.6211802100  -1.2065932400  -0.3629322700
| 24> H   -6.7309100200  -0.1017069300  -1.7492189100
| 25> C   -4.7155304400   1.6278886400  -0.8348792200
| 26> C   -5.6459820300   2.6239133300  -0.1786672300
| 27> C   -7.1196821800   2.2236252700  -0.3363056100
| 28> H   -5.4737493800   3.6267151200  -0.5839428400
| 29> H   -5.4051895300   2.6661932100   0.8945247300
| 30> H   -7.4165851800   2.3211870900  -1.3894868600
| 31> H   -7.7570168500   2.8957755500   0.2498676300
| 32> O   -7.1712420000   0.6105660300   1.5144435800
| 33> H   -8.4131952800   0.5136307100  -0.0805666200
| 34> C   -4.0956779200  -0.6692055600  -0.0299170200
| 35> C   -3.7409010800   2.0009808500  -1.6715057700
| 36> H   -3.0937210800   1.2692485100  -2.1477144400
| 37> H   -3.5760486800   3.0500439100  -1.9059098900
| 38> C   -2.7126132900  -0.3849324100   0.2770541400
| 39> H   -4.4595424500  -1.6768811500   0.1675688600
| 40> C   -1.7688336600  -1.2810601800   0.6356113300
| 41> H   -2.4201993100   0.6608990400   0.2147844800
| 42> C   -1.9647274300  -2.7719451700   0.7401065300
| 43> C   -0.9563208600  -3.5357611500  -0.1409575300
| 44> H   -2.9827712900  -3.0773905000   0.4836865100
| 45> H   -1.7932241600  -3.0637930500   1.7883628100
| 46> C    0.4935335100  -3.0913683000   0.0963008700
| 47> H   -1.2219464000  -3.3896236800  -1.1956056900
| 48> H   -1.0480467900  -4.6106952800   0.0573561800
| 49> C    0.6579339800  -1.5725655200  -0.0508650900
| 50> H    1.1479445800  -3.6319869100  -0.5955467100
| 51> H    0.7974237200  -3.3768836200   1.1147263700
| 52> C   -0.3519840300  -0.8952560300   0.9309062300
| 53> H   -0.1085220200  -1.3273481800   1.9187944800
| 54> C    0.0793328000   0.5680618400   0.9595705300
| 55> H   -6.2196363600   0.5336339200   1.6728908300
| 56> C    1.6219448300   0.4941154000   0.8535964000
| 57> H   -0.2620454400   1.0797995800   1.8654947400
| 58> H   -0.3359962400   1.1136349500   0.1049632400
| 59> C    1.9891993000  -0.9741491600   0.4834203600
| 60> H    2.1098804000   0.7870338200   1.7885573500
| 61> H    1.9957865200   1.1792237300   0.0837066200
| 62> H    2.2289083800  -1.5206058300   1.4104219500
| 63> C    3.2418735000  -1.0329300200  -0.4147024200
| 64> C    0.4005847000  -1.1262355000  -1.4968151300
| 65> H    0.6217087100  -0.0630551800  -1.6350993700
| 66> H   -0.6434270900  -1.2824852300  -1.7853223000
| 67> H    1.0307986800  -1.6898348100  -2.1935329800
| 68> H    3.0269914600  -0.4787969700  -1.3402810000
| 69> C    3.6618479200  -2.4641335800  -0.7821291200
| 70> C    4.3907168000  -0.3469134900   0.2781365200
| 71> C    5.0314602600   0.7225123300  -0.1939765500
| 72> H    4.6992097800  -0.8002346100   1.2229108900
| 73> H    4.6890630700   1.1349584300  -1.1454984900
| 74> C    6.1972336700   1.4373305100   0.4365089600
| 75> C    6.7516318400   0.7383417400   1.6778103100
| 76> C    5.8804265200   2.9356691800   0.7124795200
| 77> H    7.0012677300   1.4478000400  -0.3190666700
| 78> H    6.7986687400   3.3595954600   1.1468726000
| 79> C    4.7456119300   3.1240907800   1.7208264400
| 80> C    5.5791042200   3.7070133500  -0.5754971600
| 81> H    6.0000096900   0.6450616300   2.4684923900
| 82> H    7.5964958500   1.3052937500   2.0835118200
| 83> H    7.1033973000  -0.2701062500   1.4353467900
| 84> H    4.9627818300   2.6453360600   2.6810040700
| 85> H    3.8129960700   2.6972182300   1.3336172500
| 86> H    4.5760649200   4.1898459200   1.9110427100
| 87> H    6.3507715500   3.5360584900  -1.3352085900
| 88> H    5.5335700300   4.7830995300  -0.3747999000
| 89> H    4.6125087000   3.4122390700  -0.9996030300
| 90> H    2.9299101000  -2.9493297700  -1.4328384800
| 91> H    3.7763356800  -3.0785398200   0.1194832400
| 92> H    4.6227242900  -2.4531569600  -1.3076899100
| 93> *
| 94> %eprnmr
| 95>  Nuclei = all H { shift }
| 96>  origin giao
| 97>  giao_2el giao_2el_same_as_scf
| 98>  giao_1el giao_1el_analytic
| 99> end
|100> 
|101>                          ****END OF INPUT****
================================================================================

                       ****************************
                       * Single Point Calculation *
                       ****************************

---------------------------------
CARTESIAN COORDINATES (ANGSTROEM)
---------------------------------
  C     -5.004190    0.213530   -0.509124
  C     -6.453532   -0.173217   -0.687000
  C     -7.363981    0.778098    0.099974
  H     -6.621180   -1.206593   -0.362932
  H     -6.730910   -0.101707   -1.749219
  C     -4.715530    1.627889   -0.834879
  C     -5.645982    2.623913   -0.178667
  C     -7.119682    2.223625   -0.336306
  H     -5.473749    3.626715   -0.583943
  H     -5.405190    2.666193    0.894525
  H     -7.416585    2.321187   -1.389487
  H     -7.757017    2.895776    0.249868
  O     -7.171242    0.610566    1.514444
  H     -8.413195    0.513631   -0.080567
  C     -4.095678   -0.669206   -0.029917
  C     -3.740901    2.000981   -1.671506
  H     -3.093721    1.269249   -2.147714
  H     -3.576049    3.050044   -1.905910
  C     -2.712613   -0.384932    0.277054
  H     -4.459542   -1.676881    0.167569
  C     -1.768834   -1.281060    0.635611
  H     -2.420199    0.660899    0.214784
  C     -1.964727   -2.771945    0.740107
  C     -0.956321   -3.535761   -0.140958
  H     -2.982771   -3.077390    0.483687
  H     -1.793224   -3.063793    1.788363
  C      0.493534   -3.091368    0.096301
  H     -1.221946   -3.389624   -1.195606
  H     -1.048047   -4.610695    0.057356
  C      0.657934   -1.572566   -0.050865
  H      1.147945   -3.631987   -0.595547
  H      0.797424   -3.376884    1.114726
  C     -0.351984   -0.895256    0.930906
  H     -0.108522   -1.327348    1.918794
  C      0.079333    0.568062    0.959571
  H     -6.219636    0.533634    1.672891
  C      1.621945    0.494115    0.853596
  H     -0.262045    1.079800    1.865495
  H     -0.335996    1.113635    0.104963
  C      1.989199   -0.974149    0.483420
  H      2.109880    0.787034    1.788557
  H      1.995787    1.179224    0.083707
  H      2.228908   -1.520606    1.410422
  C      3.241873   -1.032930   -0.414702
  C      0.400585   -1.126235   -1.496815
  H      0.621709   -0.063055   -1.635099
  H     -0.643427   -1.282485   -1.785322
  H      1.030799   -1.689835   -2.193533
  H      3.026991   -0.478797   -1.340281
  C      3.661848   -2.464134   -0.782129
  C      4.390717   -0.346913    0.278137
  C      5.031460    0.722512   -0.193977
  H      4.699210   -0.800235    1.222911
  H      4.689063    1.134958   -1.145498
  C      6.197234    1.437331    0.436509
  C      6.751632    0.738342    1.677810
  C      5.880427    2.935669    0.712480
  H      7.001268    1.447800   -0.319067
  H      6.798669    3.359595    1.146873
  C      4.745612    3.124091    1.720826
  C      5.579104    3.707013   -0.575497
  H      6.000010    0.645062    2.468492
  H      7.596496    1.305294    2.083512
  H      7.103397   -0.270106    1.435347
  H      4.962782    2.645336    2.681004
  H      3.812996    2.697218    1.333617
  H      4.576065    4.189846    1.911043
  H      6.350772    3.536058   -1.335209
  H      5.533570    4.783100   -0.374800
  H      4.612509    3.412239   -0.999603
  H      2.929910   -2.949330   -1.432838
  H      3.776336   -3.078540    0.119483
  H      4.622724   -2.453157   -1.307690

----------------------------
CARTESIAN COORDINATES (A.U.)
----------------------------
  NO LB      ZA    FRAG     MASS         X           Y           Z
   0 C     6.0000    0    12.011   -9.456549    0.403513   -0.962105
   1 C     6.0000    0    12.011  -12.195408   -0.327332   -1.298243
   2 C     6.0000    0    12.011  -13.915907    1.470392    0.188924
   3 H     1.0000    0     1.008  -12.512217   -2.280131   -0.685843
   4 H     1.0000    0     1.008  -12.719577   -0.192198   -3.305545
   5 C     6.0000    0    12.011   -8.911061    3.076264   -1.577693
   6 C     6.0000    0    12.011  -10.669360    4.958478   -0.337632
   7 C     6.0000    0    12.011  -13.454249    4.202043   -0.635526
   8 H     1.0000    0     1.008  -10.343887    6.853498   -1.103492
   9 H     1.0000    0     1.008  -10.214328    5.038375    1.690407
  10 H     1.0000    0     1.008  -14.015315    4.386408   -2.625750
  11 H     1.0000    0     1.008  -14.658637    5.472223    0.472181
  12 O     8.0000    0    15.999  -13.551683    1.153803    2.861884
  13 H     1.0000    0     1.008  -15.898635    0.970621   -0.152249
  14 C     6.0000    0    12.011   -7.739710   -1.264615   -0.056535
  15 C     6.0000    0    12.011   -7.069279    3.781306   -3.158688
  16 H     1.0000    0     1.008   -5.846286    2.398532   -4.058592
  17 H     1.0000    0     1.008   -6.757753    5.763748   -3.601648
  18 C     6.0000    0    12.011   -5.126096   -0.727417    0.523556
  19 H     1.0000    0     1.008   -8.427314   -3.168846    0.316659
  20 C     6.0000    0    12.011   -3.342611   -2.420853    1.201131
  21 H     1.0000    0     1.008   -4.573514    1.248918    0.405884
  22 C     6.0000    0    12.011   -3.712797   -5.238217    1.398599
  23 C     6.0000    0    12.011   -1.807185   -6.681620   -0.266371
  24 H     1.0000    0     1.008   -5.636621   -5.815425    0.914035
  25 H     1.0000    0     1.008   -3.388703   -5.789730    3.379516
  26 C     6.0000    0    12.011    0.932643   -5.841839    0.181982
  27 H     1.0000    0     1.008   -2.309144   -6.405460   -2.259367
  28 H     1.0000    0     1.008   -1.980521   -8.712951    0.108387
  29 C     6.0000    0    12.011    1.243315   -2.971718   -0.096121
  30 H     1.0000    0     1.008    2.169301   -6.863461   -1.125420
  31 H     1.0000    0     1.008    1.506912   -6.381385    2.106528
  32 C     6.0000    0    12.011   -0.665153   -1.691789    1.759158
  33 H     1.0000    0     1.008   -0.205077   -2.508325    3.625996
  34 C     6.0000    0    12.011    0.149917    1.073481    1.813326
  35 H     1.0000    0     1.008  -11.753409    1.008422    3.161306
  36 C     6.0000    0    12.011    3.065032    0.933743    1.613063
  37 H     1.0000    0     1.008   -0.495194    2.040525    3.525274
  38 H     1.0000    0     1.008   -0.634941    2.104465    0.198352
  39 C     6.0000    0    12.011    3.759042   -1.840875    0.913532
  40 H     1.0000    0     1.008    3.987096    1.487278    3.379884
  41 H     1.0000    0     1.008    3.771490    2.228410    0.158183
  42 H     1.0000    0     1.008    4.212026   -2.873529    2.665311
  43 C     6.0000    0    12.011    6.126253   -1.951955   -0.783674
  44 C     6.0000    0    12.011    0.756995   -2.128277   -2.828571
  45 H     1.0000    0     1.008    1.174859   -0.119157   -3.089890
  46 H     1.0000    0     1.008   -1.215901   -2.423546   -3.373770
  47 H     1.0000    0     1.008    1.947927   -3.193325   -4.145177
  48 H     1.0000    0     1.008    5.720185   -0.904795   -2.532764
  49 C     6.0000    0    12.011    6.919890   -4.656538   -1.478010
  50 C     6.0000    0    12.011    8.297252   -0.655571    0.525602
  51 C     6.0000    0    12.011    9.508082    1.365350   -0.366563
  52 H     1.0000    0     1.008    8.880220   -1.512224    2.310967
  53 H     1.0000    0     1.008    8.861045    2.144761   -2.164678
  54 C     6.0000    0    12.011   11.711074    2.716161    0.824882
  55 C     6.0000    0    12.011   12.758735    1.395264    3.170602
  56 C     6.0000    0    12.011   11.112396    5.547611    1.346391
  57 H     1.0000    0     1.008   13.230479    2.735946   -0.602949
  58 H     1.0000    0     1.008   12.847622    6.348715    2.167275
  59 C     6.0000    0    12.011    8.967907    5.903676    3.251891
  60 C     6.0000    0    12.011   10.542979    7.005240   -1.087532
  61 H     1.0000    0     1.008   11.338375    1.218990    4.664775
  62 H     1.0000    0     1.008   14.355297    2.466648    3.937267
  63 H     1.0000    0     1.008   13.423476   -0.510427    2.712412
  64 H     1.0000    0     1.008    9.378299    4.998961    5.066363
  65 H     1.0000    0     1.008    7.205518    5.097004    2.520171
  66 H     1.0000    0     1.008    8.647509    7.917661    3.611347
  67 H     1.0000    0     1.008   12.001219    6.682182   -2.523179
  68 H     1.0000    0     1.008   10.456932    9.038748   -0.708269
  69 H     1.0000    0     1.008    8.716378    6.448197   -1.888976
  70 H     1.0000    0     1.008    5.536728   -5.573426   -2.707672
  71 H     1.0000    0     1.008    7.136240   -5.817597    0.225791
  72 H     1.0000    0     1.008    8.735683   -4.635795   -2.471176

--------------------------------
INTERNAL COORDINATES (ANGSTROEM)
--------------------------------
 C      0   0   0     0.000000000000     0.00000000     0.00000000
 C      1   0   0     1.510564551906     0.00000000     0.00000000
 C      2   1   0     1.534029147734   110.50347115     0.00000000
 H      2   1   3     1.095898196023   110.69407127   237.86753304
 H      2   1   3     1.100163861604   109.81338487   118.76842331
 C      1   2   3     1.479814472263   113.95007095   306.25260951
 C      6   1   2     1.512752299698   114.44540317    49.66698635
 C      3   2   1     1.529565809209   110.17871541    56.71851662
 H      7   6   1     1.095227755225   110.21921989   188.79197265
 H      7   6   1     1.100685967621   108.28150052    72.14338065
 H      8   3   2     1.098572002867   108.31304939    64.42127466
 H      8   3   2     1.096166295678   109.51798853   181.40752597
 O      3   2   1     1.437337540620   110.66984045   292.71021091
 H      3   2   1     1.096990769887   109.49452741   177.19566716
 C      1   2   3     1.354346950412   121.22601549   123.25541885
 C      6   1   2     1.337551558147   123.12221188   231.63307209
 H     16   6   1     1.086760722139   121.34584675   359.01739425
 H     16   6   1     1.087499383501   120.95444932   178.40156697
 C     15   1   2     1.444960306597   126.08737155   185.01563263
 H     15   1   2     1.089407253360   116.29348379     3.03284862
 C     19  15   1     1.349936379489   126.51337067   186.62507809
 H     19  15   1     1.087725548135   115.74141347     7.05468515
 C     21  19  15     1.507325999695   125.74245630     2.27124559
 C     23  21  19     1.541613615517   111.43403052   123.86082202
 H     23  21  19     1.093371564089   112.39954829     0.29200327
 H     23  21  19     1.101557890100   107.92596279   242.40750714
 C     24  23  21     1.534879229031   112.71158005    51.07434851
 H     24  23  21     1.097358569033   108.96301328   288.93342413
 H     24  23  21     1.096916294731   109.11776355   173.02402522
 C     27  24  23     1.534746630182   111.89361786   306.52392553
 H     27  24  23     1.095068675458   108.89882010   183.00711705
 H     27  24  23     1.100481147834   109.19479452    66.55114710
 C     21  19  15     1.497834034249   122.86814272   179.72674005
 H     33  21  19     1.105396114926   106.48990520   128.08668718
 C     33  21  19     1.525829295366   121.20616870     5.40079450
 H     13   3   2     0.967769277597   107.59217165    42.68772206
 C     35  33  21     1.548015008751   103.56761985   196.95908437
 H     35  33  21     1.095040315034   112.06107774    74.93535283
 H     35  33  21     1.095674153179   110.83812403   315.32122608
 C     30  27  24     1.554294191661   116.09081386   166.31727756
 H     37  35  33     1.094547531755   111.89897162   249.81524278
 H     37  35  33     1.096294352063   110.97977327   131.25679331
 H     40  30  27     1.102455116131   106.52509985   321.40674080
 C     40  30  27     1.542489017401   118.73502458    82.24061134
 C     30  27  24     1.534995327956   111.10736905   294.14447581
 H     45  30  27     1.094701215705   111.56307751   186.21636761
 H     45  30  27     1.094354139630   111.51629539    66.19641428
 H     45  30  27     1.095549910013   110.67293640   306.04791558
 H     44  40  30     1.099969743207   108.18569911    60.30673937
 C     44  40  30     1.536139486988   113.37838297   299.59765891
 C     44  40  30     1.506812995752   109.51828601   177.61165084
 C     51  44  40     1.333084587294   124.67024798   240.99127099
 H     51  44  40     1.092367413811   115.09121037    62.04795354
 H     52  51  44     1.092127109556   117.44051487     0.73719258
 C     52  51  44     1.505823579388   127.20286372   181.12258381
 C     55  52  51     1.528650278186   113.80988610     6.39287459
 C     55  52  51     1.556131514460   111.94487666   238.51930894
 H     55  52  51     1.103392456630   106.37525096   124.23326913
 H     57  55  52     1.100717771918   105.72286538   181.24981807
 C     57  55  52     1.529728853130   112.73854566    63.30510977
 C     57  55  52     1.531225288876   112.08156403   298.17960402
 H     56  55  52     1.094904190752   112.11043272   299.81894379
 H     56  55  52     1.095364547652   110.10954454   179.77868760
 H     56  55  52     1.095214520500   110.96195570    60.12470988
 H     60  57  55     1.094673434656   112.15648217    58.07345318
 H     60  57  55     1.096322704813   110.50540997   297.56564704
 H     60  57  55     1.095793062767   110.42626398   178.18454859
 H     61  57  55     1.096292611131   111.45855371   309.95835082
 H     61  57  55     1.095588526509   110.41814404   189.89124124
 H     61  57  55     1.095930912239   111.31996331    70.74096663
 H     50  44  40     1.092964311553   111.89562821    67.33005001
 H     50  44  40     1.097044813417   110.71690773   306.67600771
 H     50  44  40     1.095270755839   110.19921921   187.30263547

---------------------------
INTERNAL COORDINATES (A.U.)
---------------------------
 C      0   0   0     0.000000000000     0.00000000     0.00000000
 C      1   0   0     2.854553310712     0.00000000     0.00000000
 C      2   1   0     2.898894970670   110.50347115     0.00000000
 H      2   1   3     2.070947461141   110.69407127   237.86753304
 H      2   1   3     2.079008400870   109.81338487   118.76842331
 C      1   2   3     2.796444081590   113.95007095   306.25260951
 C      6   1   2     2.858687554890   114.44540317    49.66698635
 C      3   2   1     2.890460483215   110.17871541    56.71851662
 H      7   6   1     2.069680511644   110.21921989   188.79197265
 H      7   6   1     2.079995038254   108.28150052    72.14338065
 H      8   3   2     2.076000223811   108.31304939    64.42127466
 H      8   3   2     2.071454096066   109.51798853   181.40752597
 O      3   2   1     2.716174313775   110.66984045   292.71021091
 H      3   2   1     2.073012126526   109.49452741   177.19566716
 C      1   2   3     2.559344826591   121.22601549   123.25541885
 C      6   1   2     2.527606134898   123.12221188   231.63307209
 H     16   6   1     2.053680137946   121.34584675   359.01739425
 H     16   6   1     2.055076005625   120.95444932   178.40156697
 C     15   1   2     2.730579253854   126.08737155   185.01563263
 H     15   1   2     2.058681357158   116.29348379     3.03284862
 C     19  15   1     2.551010055452   126.51337067   186.62507809
 H     19  15   1     2.055503394844   115.74141347     7.05468515
 C     21  19  15     2.848433333962   125.74245630     2.27124559
 C     23  21  19     2.913227537651   111.43403052   123.86082202
 H     23  21  19     2.066172818746   112.39954829     0.29200327
 H     23  21  19     2.081642732948   107.92596279   242.40750714
 C     24  23  21     2.900501391512   112.71158005    51.07434851
 H     24  23  21     2.073707166184   108.96301328   288.93342413
 H     24  23  21     2.072871388878   109.11776355   173.02402522
 C     27  24  23     2.900250816002   111.89361786   306.52392553
 H     27  24  23     2.069379894451   108.89882010   183.00711705
 H     27  24  23     2.079607984950   109.19479452    66.55114710
 C     21  19  15     2.830496118797   122.86814272   179.72674005
 H     33  21  19     2.088895926710   106.48990520   128.08668718
 C     33  21  19     2.883399495356   121.20616870     5.40079450
 H     13   3   2     1.828818895482   107.59217165    42.68772206
 C     35  33  21     2.925324417739   103.56761985   196.95908437
 H     35  33  21     2.069326301017   112.06107774    74.93535283
 H     35  33  21     2.070524081524   110.83812403   315.32122608
 C     30  27  24     2.937190353784   116.09081386   166.31727756
 H     37  35  33     2.068395075577   111.89897162   249.81524278
 H     37  35  33     2.071696087564   110.97977327   131.25679331
 H     40  30  27     2.083338244429   106.52509985   321.40674080
 C     40  30  27     2.914881807469   118.73502458    82.24061134
 C     30  27  24     2.900720786685   111.10736905   294.14447581
 H     45  30  27     2.068685496153   111.56307751   186.21636761
 H     45  30  27     2.068029617424   111.51629539    66.19641428
 H     45  30  27     2.070289295966   110.67293640   306.04791558
 H     44  40  30     2.078641570262   108.18569911    60.30673937
 C     44  40  30     2.902882933910   113.37838297   299.59765891
 C     44  40  30     2.847463897006   109.51828601   177.61165084
 C     51  44  40     2.519164783337   124.67024798   240.99127099
 H     51  44  40     2.064275249723   115.09121037    62.04795354
 H     52  51  44     2.063821140491   117.44051487     0.73719258
 C     52  51  44     2.845594171045   127.20286372   181.12258381
 C     55  52  51     2.888730380314   113.80988610     6.39287459
 C     55  52  51     2.940662390693   111.94487666   238.51930894
 H     55  52  51     2.085109561266   106.37525096   124.23326913
 H     57  55  52     2.080055139666   105.72286538   181.24981807
 C     57  55  52     2.890768591572   112.73854566    63.30510977
 C     57  55  52     2.893596445311   112.08156403   298.17960402
 H     56  55  52     2.069069063403   112.11043272   299.81894379
 H     56  55  52     2.069939011869   110.10954454   179.77868760
 H     56  55  52     2.069655501640   110.96195570    60.12470988
 H     60  57  55     2.068632997578   112.15648217    58.07345318
 H     60  57  55     2.071749666496   110.50540997   297.56564704
 H     60  57  55     2.070748788081   110.42626398   178.18454859
 H     61  57  55     2.071692797678   111.45855371   309.95835082
 H     61  57  55     2.070362270568   110.41814404   189.89124124
 H     61  57  55     2.071009285831   111.31996331    70.74096663
 H     50  44  40     2.065403222985   111.89562821    67.33005001
 H     50  44  40     2.073114253997   110.71690773   306.67600771
 H     50  44  40     2.069761771029   110.19921921   187.30263547

---------------------
BASIS SET INFORMATION
---------------------
There are 3 groups of distinct atoms

 Group   1 Type C   : 8s5p1d contracted to 3s3p1d pattern {521/311/1}
 Group   2 Type H   : 4s2p contracted to 2s1p pattern {31/2}
 Group   3 Type O   : 8s5p1d contracted to 3s3p1d pattern {521/311/1}

Atom   0C    basis set group =>   1
Atom   1C    basis set group =>   1
Atom   2C    basis set group =>   1
Atom   3H    basis set group =>   2
Atom   4H    basis set group =>   2
Atom   5C    basis set group =>   1
Atom   6C    basis set group =>   1
Atom   7C    basis set group =>   1
Atom   8H    basis set group =>   2
Atom   9H    basis set group =>   2
Atom  10H    basis set group =>   2
Atom  11H    basis set group =>   2
Atom  12O    basis set group =>   3
Atom  13H    basis set group =>   2
Atom  14C    basis set group =>   1
Atom  15C    basis set group =>   1
Atom  16H    basis set group =>   2
Atom  17H    basis set group =>   2
Atom  18C    basis set group =>   1
Atom  19H    basis set group =>   2
Atom  20C    basis set group =>   1
Atom  21H    basis set group =>   2
Atom  22C    basis set group =>   1
Atom  23C    basis set group =>   1
Atom  24H    basis set group =>   2
Atom  25H    basis set group =>   2
Atom  26C    basis set group =>   1
Atom  27H    basis set group =>   2
Atom  28H    basis set group =>   2
Atom  29C    basis set group =>   1
Atom  30H    basis set group =>   2
Atom  31H    basis set group =>   2
Atom  32C    basis set group =>   1
Atom  33H    basis set group =>   2
Atom  34C    basis set group =>   1
Atom  35H    basis set group =>   2
Atom  36C    basis set group =>   1
Atom  37H    basis set group =>   2
Atom  38H    basis set group =>   2
Atom  39C    basis set group =>   1
Atom  40H    basis set group =>   2
Atom  41H    basis set group =>   2
Atom  42H    basis set group =>   2
Atom  43C    basis set group =>   1
Atom  44C    basis set group =>   1
Atom  45H    basis set group =>   2
Atom  46H    basis set group =>   2
Atom  47H    basis set group =>   2
Atom  48H    basis set group =>   2
Atom  49C    basis set group =>   1
Atom  50C    basis set group =>   1
Atom  51C    basis set group =>   1
Atom  52H    basis set group =>   2
Atom  53H    basis set group =>   2
Atom  54C    basis set group =>   1
Atom  55C    basis set group =>   1
Atom  56C    basis set group =>   1
Atom  57H    basis set group =>   2
Atom  58H    basis set group =>   2
Atom  59C    basis set group =>   1
Atom  60C    basis set group =>   1
Atom  61H    basis set group =>   2
Atom  62H    basis set group =>   2
Atom  63H    basis set group =>   2
Atom  64H    basis set group =>   2
Atom  65H    basis set group =>   2
Atom  66H    basis set group =>   2
Atom  67H    basis set group =>   2
Atom  68H    basis set group =>   2
Atom  69H    basis set group =>   2
Atom  70H    basis set group =>   2
Atom  71H    basis set group =>   2
Atom  72H    basis set group =>   2

-------------------------
BASIS SET IN INPUT FORMAT
-------------------------

 # Basis set for element : H 
 NewGTO H 
 S 3 
   1      12.2518000000      0.0372173893
   2       1.8687100000      0.2538082070
   3       0.4182080000      0.7973867639
 S 1 
   1       0.1061000000      1.0000000000
 P 2 
   1       9.0000000000      0.0402678705
   2       1.0000000000      0.9880231245
  end;

 # Basis set for element : C 
 NewGTO C 
 S 5 
   1    1243.2000000000      0.0056300977
   2     187.1450000000      0.0419506039
   3      42.5126000000      0.1846643605
   4      11.7393000000      0.4665574214
   5       3.5054800000      0.4482347783
 S 2 
   1       5.3908900000     -0.1481148174
   2       0.4933410000      1.0519817143
 S 1 
   1       0.1497410000      1.0000000000
 P 3 
   1      59.6736000000      0.0113906672
   2       9.1805600000      0.1672414929
   3       1.9365800000      0.9041087436
 P 1 
   1       0.5262960000      1.0000000000
 P 1 
   1       0.1363190000      1.0000000000
 D 1 
   1       0.8000000000      1.0000000000
  end;

 # Basis set for element : O 
 NewGTO O 
 S 5 
   1    2288.6400000000      0.0054511382
   2     344.4160000000      0.0407189228
   3      78.2538000000      0.1813694209
   4      21.7195000000      0.4655368202
   5       6.5590700000      0.4512113212
 S 2 
   1      10.4656000000     -0.1502112012
   2       0.9643510000      1.0528679834
 S 1 
   1       0.2851270000      1.0000000000
 P 3 
   1     110.8840000000      0.0113058003
   2      17.0590000000      0.1699226452
   3       3.6899900000      0.9008060328
 P 1 
   1       0.9929960000      1.0000000000
 P 1 
   1       0.2449240000      1.0000000000
 D 1 
   1       1.0000000000      1.0000000000
  end;

---------------------------------
AUXILIARY/J BASIS SET INFORMATION
---------------------------------
There are 3 groups of distinct atoms

 Group   1 Type C   : 12s5p4d2f1g contracted to 6s4p3d1f1g pattern {711111/2111/211/2/1}
 Group   2 Type H   : 5s2p1d contracted to 3s1p1d pattern {311/2/1}
 Group   3 Type O   : 12s5p4d2f1g contracted to 6s4p3d1f1g pattern {711111/2111/211/2/1}

Atom   0C    basis set group =>   1
Atom   1C    basis set group =>   1
Atom   2C    basis set group =>   1
Atom   3H    basis set group =>   2
Atom   4H    basis set group =>   2
Atom   5C    basis set group =>   1
Atom   6C    basis set group =>   1
Atom   7C    basis set group =>   1
Atom   8H    basis set group =>   2
Atom   9H    basis set group =>   2
Atom  10H    basis set group =>   2
Atom  11H    basis set group =>   2
Atom  12O    basis set group =>   3
Atom  13H    basis set group =>   2
Atom  14C    basis set group =>   1
Atom  15C    basis set group =>   1
Atom  16H    basis set group =>   2
Atom  17H    basis set group =>   2
Atom  18C    basis set group =>   1
Atom  19H    basis set group =>   2
Atom  20C    basis set group =>   1
Atom  21H    basis set group =>   2
Atom  22C    basis set group =>   1
Atom  23C    basis set group =>   1
Atom  24H    basis set group =>   2
Atom  25H    basis set group =>   2
Atom  26C    basis set group =>   1
Atom  27H    basis set group =>   2
Atom  28H    basis set group =>   2
Atom  29C    basis set group =>   1
Atom  30H    basis set group =>   2
Atom  31H    basis set group =>   2
Atom  32C    basis set group =>   1
Atom  33H    basis set group =>   2
Atom  34C    basis set group =>   1
Atom  35H    basis set group =>   2
Atom  36C    basis set group =>   1
Atom  37H    basis set group =>   2
Atom  38H    basis set group =>   2
Atom  39C    basis set group =>   1
Atom  40H    basis set group =>   2
Atom  41H    basis set group =>   2
Atom  42H    basis set group =>   2
Atom  43C    basis set group =>   1
Atom  44C    basis set group =>   1
Atom  45H    basis set group =>   2
Atom  46H    basis set group =>   2
Atom  47H    basis set group =>   2
Atom  48H    basis set group =>   2
Atom  49C    basis set group =>   1
Atom  50C    basis set group =>   1
Atom  51C    basis set group =>   1
Atom  52H    basis set group =>   2
Atom  53H    basis set group =>   2
Atom  54C    basis set group =>   1
Atom  55C    basis set group =>   1
Atom  56C    basis set group =>   1
Atom  57H    basis set group =>   2
Atom  58H    basis set group =>   2
Atom  59C    basis set group =>   1
Atom  60C    basis set group =>   1
Atom  61H    basis set group =>   2
Atom  62H    basis set group =>   2
Atom  63H    basis set group =>   2
Atom  64H    basis set group =>   2
Atom  65H    basis set group =>   2
Atom  66H    basis set group =>   2
Atom  67H    basis set group =>   2
Atom  68H    basis set group =>   2
Atom  69H    basis set group =>   2
Atom  70H    basis set group =>   2
Atom  71H    basis set group =>   2
Atom  72H    basis set group =>   2

-------------------------------------
AUXILIARY/J BASIS SET IN INPUT FORMAT
-------------------------------------

 # Auxiliary/J basis set for element : H 
 NewAuxJGTO H 
 S 3 
   1      15.6752927000      0.1007184237
   2       3.6063578000      0.3404257499
   3       1.2080016000      0.6491996172
 S 1 
   1       0.4726794000      1.0000000000
 S 1 
   1       0.2018100000      1.0000000000
 P 2 
   1       2.0281365000      0.5596620919
   2       0.5358730000      0.5596620919
 D 1 
   1       2.2165124000      1.0000000000
  end;

 # Auxiliary/J basis set for element : C 
 NewAuxJGTO C 
 S 7 
   1    1861.0916331000      0.0134602335
   2     642.9939764000      0.0299160374
   3     235.1105725000      0.1008649584
   4      90.7028894000      0.2370970548
   5      36.7794552000      0.3924037254
   6      15.6046273000      0.3195862154
   7       6.8907294000      0.0530104441
 S 1 
   1       3.1478850000     -1.0000000000
 S 1 
   1       1.4777287000      1.0000000000
 S 1 
   1       0.7076466000      1.0000000000
 S 1 
   1       0.3430122000      1.0000000000
 S 1 
   1       0.1669453000      1.0000000000
 P 2 
   1      13.5472892000     -0.6769313712
   2       5.4669419000     -0.3779500978
 P 1 
   1       2.1751721000      1.0000000000
 P 1 
   1       0.8582194000      1.0000000000
 P 1 
   1       0.3376720000      1.0000000000
 D 2 
   1       5.9287253000     -0.3533329857
   2       1.9809209000     -0.7456525731
 D 1 
   1       0.8055417000     -1.0000000000
 D 1 
   1       0.3531244000     -1.0000000000
 F 2 
   1       1.6755626000      0.6311076882
   2       0.5997536000      0.4968166032
 G 1 
   1       1.0024600000     -1.0000000000
  end;

 # Auxiliary/J basis set for element : O 
 NewAuxJGTO O 
 S 7 
   1    2876.8216605000      0.0168151159
   2    1004.7443032000      0.0340137548
   3     369.7579954000      0.1194951309
   4     142.9442404000      0.2664627624
   5      57.8366425000      0.4202764046
   6      24.3864983000      0.2765077335
   7      10.6622662000      0.0057008815
 S 1 
   1       4.8070437000     -1.0000000000
 S 1 
   1       2.2210770000      1.0000000000
 S 1 
   1       1.0447795000      1.0000000000
 S 1 
   1       0.4968425000      1.0000000000
 S 1 
   1       0.2371384000      1.0000000000
 P 2 
   1      64.2613382000     -0.2731534179
   2      16.3006076000     -0.8168011598
 P 1 
   1       4.3550542000      1.0000000000
 P 1 
   1       1.2019554000      1.0000000000
 P 1 
   1       0.3354196000      1.0000000000
 D 2 
   1       9.2146611000     -0.4661230638
   2       2.8435251000     -0.6600908911
 D 1 
   1       0.9955759000     -1.0000000000
 D 1 
   1       0.3649441000     -1.0000000000
 F 2 
   1       2.6420115000      0.5931563945
   2       0.7345613000      0.5931563945
 G 1 
   1       1.3931000000     -1.0000000000
  end;



           ************************************************************
           *        Program running with 4 parallel MPI-processes     *
           *              working on a common directory               *
           ************************************************************
------------------------------------------------------------------------------
                           ORCA GTO INTEGRAL CALCULATION
                           -- RI-GTO INTEGRALS CHOSEN --
------------------------------------------------------------------------------
------------------------------------------------------------------------------
                   ___                                                        
                  /   \      - P O W E R E D   B Y -                         
                 /     \                                                     
                 |  |  |   _    _      __       _____    __    __             
                 |  |  |  | |  | |    /  \     |  _  \  |  |  /  |          
                  \  \/   | |  | |   /    \    | | | |  |  | /  /          
                 / \  \   | |__| |  /  /\  \   | |_| |  |  |/  /          
                |  |  |   |  __  | /  /__\  \  |    /   |      \           
                |  |  |   | |  | | |   __   |  |    \   |  |\   \          
                \     /   | |  | | |  |  |  |  | |\  \  |  | \   \       
                 \___/    |_|  |_| |__|  |__|  |_| \__\ |__|  \__/        
                                                                              
                      - O R C A' S   B I G   F R I E N D -                    
                                      &                                       
                       - I N T E G R A L  F E E D E R -                       
                                                                              
 v1 FN, 2020, v2 2021                                                         
------------------------------------------------------------------------------


Reading SHARK input file inpS.SHARKINP.tmp ... ok
----------------------
SHARK INTEGRAL PACKAGE
----------------------

Number of atoms                             ...     73
Number of basis functions                   ...    713
Number of shells                            ...    335
Maximum angular momentum                    ...      2
Integral batch strategy                     ... SHARK/LIBINT Hybrid
RI-J (if used) integral strategy            ... SPLIT-RIJ (Revised 2003 algorithm where possible)
Printlevel                                  ...      1
Contraction scheme used                     ... SEGMENTED contraction
Coulomb Range Separation                    ... NOT USED
Exchange Range Separation                   ... NOT USED
Finite Nucleus Model                        ... NOT USED
Auxiliary Coulomb fitting basis             ... AVAILABLE
   # of basis functions in Aux-J            ...   1905
   # of shells in Aux-J                     ...    655
   Maximum angular momentum in Aux-J        ...      4
Auxiliary J/K fitting basis                 ... NOT available
Auxiliary Correlation fitting basis         ... NOT available
Auxiliary 'external' fitting basis          ... NOT available
Integral threshold                          ...     3.000000e-11
Primitive cut-off                           ...     1.000000e-12
Primitive pair pre-selection threshold      ...     1.000000e-12

Calculating pre-screening integrals         ... done (  0.0 sec) Dimension = 335
Organizing shell pair data                  ... done (  0.2 sec)
Shell pair information
Total number of shell pairs                 ...     56280
Shell pairs after pre-screening             ...     32280
Total number of primitive shell pairs       ...    225367
Primitive shell pairs kept                  ...     75812
          la=0 lb=0:   9908 shell pairs
          la=1 lb=0:  13277 shell pairs
          la=1 lb=1:   4308 shell pairs
          la=2 lb=0:   2811 shell pairs
          la=2 lb=1:   1781 shell pairs
          la=2 lb=2:    195 shell pairs

Calculating one electron integrals          ... done (  0.1 sec)
Calculating RI/J V-Matrix + Cholesky decomp.... done (  0.1 sec)
Calculating Nuclear repulsion               ... done (  0.0 sec) ENN=   2811.893949506710 Eh

SHARK setup successfully completed in   0.6 seconds

Maximum memory used throughout the entire GTOINT-calculation: 61.7 MB


           ************************************************************
           *        Program running with 4 parallel MPI-processes     *
           *              working on a common directory               *
           ************************************************************
-------------------------------------------------------------------------------
                                 ORCA SCF
-------------------------------------------------------------------------------

------------
SCF SETTINGS
------------
Hamiltonian:
 Density Functional     Method          .... DFT(GTOs)
 Exchange Functional    Exchange        .... revTPSS
 Correlation Functional Correlation     .... revTPSS
 LDA part of GGA corr.  LDAOpt          .... PW91-LDA
 Gradients option       PostSCFGGA      .... off
   Density functional embedding theory  .... OFF
 RI-approximation to the Coulomb term is turned on
   Number of AuxJ basis functions       .... 1905


General Settings:
 Integral files         IntName         .... inpS
 Hartree-Fock type      HFTyp           .... RHF
 Total Charge           Charge          ....    0
 Multiplicity           Mult            ....    1
 Number of Electrons    NEL             ....  220
 Basis Dimension        Dim             ....  713
 Nuclear Repulsion      ENuc            ....   2811.8939495067 Eh

Convergence Acceleration:
 DIIS                   CNVDIIS         .... on
   Start iteration      DIISMaxIt       ....    12
   Startup error        DIISStart       ....  0.200000
   # of expansion vecs  DIISMaxEq       ....     5
   Bias factor          DIISBfac        ....   1.050
   Max. coefficient     DIISMaxC        ....  10.000
 Trust-Rad. Augm. Hess. CNVTRAH         .... auto
   Auto Start mean grad. ratio tolernc. ....  1.125000
   Auto Start start iteration           ....    20
   Auto Start num. interpolation iter.  ....    10
   Max. Number of Micro iterations      ....    16
   Max. Number of Macro iterations      .... Maxiter - #DIIS iter
   Number of Davidson start vectors     ....     2
   Converg. threshold I  (grad. norm)   ....   1.000e-04
   Converg. threshold II (energy diff.) ....   1.000e-07
   Grad. Scal. Fac. for Micro threshold ....   0.100
   Minimum threshold for Micro iter.    ....   0.010
   NR start threshold (gradient norm)   ....   0.001
   Initial trust radius                 ....   0.400
   Minimum AH scaling param. (alpha)    ....   1.000
   Maximum AH scaling param. (alpha)    .... 1000.000
   Orbital update algorithm             .... Taylor
   White noise on init. David. guess    .... on
   Maximum white noise                  ....   0.010
   Quad. conv. algorithm                .... NR
 SOSCF                  CNVSOSCF        .... off
 Level Shifting         CNVShift        .... on
   Level shift para.    LevelShift      ....    0.2500
   Turn off err/grad.   ShiftErr        ....    0.0010
 Zerner damping         CNVZerner       .... off
 Static damping         CNVDamp         .... on
   Fraction old density DampFac         ....    0.7000
   Max. Damping (<1)    DampMax         ....    0.9800
   Min. Damping (>=0)   DampMin         ....    0.0000
   Turn off err/grad.   DampErr         ....    0.1000
 Fernandez-Rico         CNVRico         .... off

SCF Procedure:
 Maximum # iterations   MaxIter         ....   125
 SCF integral mode      SCFMode         .... Direct
   Integral package                     .... SHARK and LIBINT hybrid scheme
 Reset frequency        DirectResetFreq ....    20
 Integral Threshold     Thresh          ....  3.000e-11 Eh
 Primitive CutOff       TCut            ....  1.000e-12 Eh

Convergence Tolerance:
 Convergence Check Mode ConvCheckMode   .... Total+1el-Energy
 Convergence forced     ConvForced      .... 0
 Energy Change          TolE            ....  1.000e-07 Eh
 1-El. energy change                    ....  1.000e-04 Eh
 DIIS Error             TolErr          ....  1.000e-07


Diagonalization of the overlap matrix:
Smallest eigenvalue                        ... 5.187e-04
Time for diagonalization                   ...    0.069 sec
Threshold for overlap eigenvalues          ... 1.000e-08
Number of eigenvalues below threshold      ... 0
Time for construction of square roots      ...    0.065 sec
Total time needed                          ...    0.135 sec

Time for model grid setup =    0.804 sec

------------------------------
INITIAL GUESS: MODEL POTENTIAL
------------------------------
Loading Hartree-Fock densities                     ... done
Calculating cut-offs                               ... done
Initializing the effective Hamiltonian             ... done
Setting up the integral package (SHARK)            ... done
Starting the Coulomb interaction                   ... done (   0.7 sec)
Reading the grid                                   ... done
Mapping shells                                     ... done
Starting the XC term evaluation                    ... done (   0.3 sec)
  promolecular density results
     # of electrons  =    219.981206417
     EX              =   -164.430824635
     EC              =     -7.327277925
     EX+EC           =   -171.758102560
Transforming the Hamiltonian                       ... done (   0.0 sec)
Diagonalizing the Hamiltonian                      ... done (   0.1 sec)
Back transforming the eigenvectors                 ... done (   0.0 sec)
Now organizing SCF variables                       ... done
                      ------------------
                      INITIAL GUESS DONE (   2.0 sec)
                      ------------------
-------------------
DFT GRID GENERATION
-------------------

General Integration Accuracy     IntAcc      ... 4.388
Radial Grid Type                 RadialGrid  ... OptM3 with GC (2021)
Angular Grid (max. ang.)         AngularGrid ... 4 (Lebedev-302)
Angular grid pruning method      GridPruning ... 4 (adaptive)
Weight generation scheme         WeightScheme... Becke
Basis function cutoff            BFCut       ... 1.0000e-11
Integration weight cutoff        WCut        ... 1.0000e-14
Angular grids for H and He will be reduced by one unit
Partially contracted basis set               ... off
Rotationally invariant grid construction     ... off

Total number of grid points                  ...   309806
Total number of batches                      ...     4876
Average number of points per batch           ...       63
Average number of grid points per atom       ...     4244
Time for grid setup =    3.058 sec


--------------------
CPCM SOLVATION MODEL
--------------------
CPCM parameters:
  Epsilon                                         ...       4.9000
  Refrac                                          ...       1.4500
  Rsolv                                           ...       1.3000
  Surface type                                    ... GAUSSIAN VDW
  Epsilon function type                           ...         CPCM
Radii:
 Radius for C  used is    3.8550 Bohr (=   2.0400 Ang.)
 Radius for H  used is    2.4944 Bohr (=   1.3200 Ang.)
 Radius for O  used is    3.4469 Bohr (=   1.8240 Ang.)
Calculating surface                               ...        done! (  0.0s)
GEPOL surface points                              ...         3631
GEPOL Volume                                      ...    3606.1324
GEPOL Surface-area                                ...    1778.9450
Calculating surface distance matrix               ...        done! (  0.1s)
Performing Cholesky decomposition & store         ...        done! (  0.5s)
Overall time for CPCM initialization              ...                 0.6s
--------------
SCF ITERATIONS
--------------
ITER       Energy         Delta-E        Max-DP      RMS-DP      [F,P]     Damp
               ***  Starting incremental Fock matrix formation  ***

  HOMO= 109 E= -1.909 eV LUMO=  7.775 eV gap=   9.685 eV
  0  -1167.5239316679   0.000000000000 0.05538972  0.00083008  0.2635179 0.7000

  HOMO= 109 E= -3.430 eV LUMO=  6.673 eV gap=  10.102 eV
  1  -1167.8980577434  -0.374126075476 0.02893083  0.00061312  0.1017356 0.7000
                               ***Turning on DIIS***

  HOMO= 109 E= -4.407 eV LUMO=  5.788 eV gap=  10.195 eV
  2  -1168.0444860073  -0.146428263905 0.04783583  0.00101051  0.0319845 0.0000

  HOMO= 109 E= -5.028 eV LUMO=  5.205 eV gap=  10.233 eV
  3  -1168.2423585877  -0.197872580448 0.02325191  0.00047353  0.0544024 0.0000

  HOMO= 109 E= -5.051 eV LUMO=  5.181 eV gap=  10.232 eV
  4  -1168.3093551871  -0.066996599365 0.00747334  0.00015072  0.0104146 0.0000

  HOMO= 109 E= -5.006 eV LUMO=  5.233 eV gap=  10.240 eV
  5  -1168.3124028090  -0.003047621891 0.00346953  0.00005698  0.0103471 0.0000

  HOMO= 109 E= -4.987 eV LUMO=  5.250 eV gap=  10.237 eV
  6  -1168.3126719096  -0.000269100589 0.00127261  0.00001910  0.0030965 0.0000

  HOMO= 109 E= -4.989 eV LUMO= -1.555 eV gap=   3.434 eV
  7  -1168.3126923125  -0.000020402966 0.00072901  0.00001161  0.0004492 0.0000

  HOMO= 109 E= -4.987 eV LUMO= -1.553 eV gap=   3.434 eV
  8  -1168.3126951439  -0.000002831395 0.00026929  0.00000297  0.0003702 0.0000

  HOMO= 109 E= -4.985 eV LUMO= -1.551 eV gap=   3.434 eV
  9  -1168.3126958358  -0.000000691881 0.00016206  0.00000151  0.0002508 0.0000

  HOMO= 109 E= -4.985 eV LUMO= -1.551 eV gap=   3.434 eV
 10  -1168.3126960769  -0.000000241145 0.00006431  0.00000069  0.0001001 0.0000

  HOMO= 109 E= -4.985 eV LUMO= -1.552 eV gap=   3.434 eV
 11  -1168.3126961049  -0.000000027994 0.00002459  0.00000027  0.0000260 0.0000

  HOMO= 109 E= -4.985 eV LUMO= -1.551 eV gap=   3.434 eV
 12  -1168.3126960928   0.000000012121 0.00001172  0.00000012  0.0000170 0.0000

  HOMO= 109 E= -4.985 eV LUMO= -1.551 eV gap=   3.434 eV
 13  -1168.3126961089  -0.000000016092 0.00000603  0.00000005  0.0000077 0.0000
                 **** Energy Check signals convergence ****

               *****************************************************
               *                     SUCCESS                       *
               *           SCF CONVERGED AFTER  14 CYCLES          *
               *****************************************************


----------------
TOTAL SCF ENERGY
----------------

Total Energy       :        -1168.31269612 Eh          -31791.40471 eV

Components:
Nuclear Repulsion  :         2811.89394951 Eh           76515.52434 eV
Electronic Energy  :        -3980.20664562 Eh         -108306.92905 eV
One Electron Energy:        -7169.96505882 Eh         -195104.66818 eV
Two Electron Energy:         3189.75841320 Eh           86797.73913 eV
CPCM Dielectric    :           -0.00892837 Eh              -0.24295 eV

Virial components:
Potential Energy   :        -2330.41610427 Eh          -63413.84609 eV
Kinetic Energy     :         1162.10340815 Eh           31622.44139 eV
Virial Ratio       :            2.00534315


DFT components:
N(Alpha)           :      110.000165624991 electrons
N(Beta)            :      110.000165624991 electrons
N(Total)           :      220.000331249981 electrons
E(X)               :     -169.584343442723 Eh       
E(C)               :       -7.444136793778 Eh       
E(XC)              :     -177.028480236501 Eh       
DFET-embed. en.    :        0.000000000000 Eh       
CPCM Solvation Model Properties:
Surface-charge          :           -0.04493725
Charge-correction       :           -0.00007029 Eh              -0.00191 eV
Free-energy (cav+disp)  :  This term is not implemented in the current solvation scheme

---------------
SCF CONVERGENCE
---------------

  Last Energy change         ...   -8.2462e-09  Tolerance :   1.0000e-07
  Last MAX-Density change    ...    2.9339e-06  Tolerance :   1.0000e-05
  Last RMS-Density change    ...    2.8246e-08  Tolerance :   1.0000e-06
  Last DIIS Error            ...    3.5340e-06  Tolerance :   1.0000e-07

             **** THE GBW FILE WAS UPDATED (inpS.gbw) ****
             **** DENSITY inpS.scfp WAS UPDATED ****
             **** ENERGY FILE WAS UPDATED (inpS.en.tmp) ****
             **** THE GBW FILE WAS UPDATED (inpS.gbw) ****
             **** DENSITY inpS.scfp WAS UPDATED ****
----------------
ORBITAL ENERGIES
----------------

  NO   OCC          E(Eh)            E(eV) 
   0   2.0000     -18.903721      -514.3964 
   1   2.0000     -10.057180      -273.6698 
   2   2.0000     -10.016441      -272.5612 
   3   2.0000     -10.014618      -272.5116 
   4   2.0000     -10.012213      -272.4462 
   5   2.0000     -10.012099      -272.4431 
   6   2.0000     -10.011955      -272.4392 
   7   2.0000     -10.010250      -272.3928 
   8   2.0000     -10.009808      -272.3807 
   9   2.0000     -10.009648      -272.3764 
  10   2.0000     -10.009642      -272.3762 
  11   2.0000     -10.008115      -272.3346 
  12   2.0000     -10.007555      -272.3194 
  13   2.0000     -10.006300      -272.2853 
  14   2.0000     -10.006297      -272.2852 
  15   2.0000     -10.005552      -272.2649 
  16   2.0000     -10.005124      -272.2533 
  17   2.0000     -10.001007      -272.1412 
  18   2.0000     -10.000823      -272.1362 
  19   2.0000      -9.999457      -272.0991 
  20   2.0000      -9.999431      -272.0984 
  21   2.0000      -9.998354      -272.0690 
  22   2.0000      -9.997338      -272.0414 
  23   2.0000      -9.997300      -272.0404 
  24   2.0000      -9.996562      -272.0203 
  25   2.0000      -9.996524      -272.0192 
  26   2.0000      -9.995896      -272.0021 
  27   2.0000      -9.995322      -271.9865 
  28   2.0000      -9.993640      -271.9408 
  29   2.0000      -0.954403       -25.9706 
  30   2.0000      -0.807701       -21.9787 
  31   2.0000      -0.789423       -21.4813 
  32   2.0000      -0.770365       -20.9627 
  33   2.0000      -0.756845       -20.5948 
  34   2.0000      -0.734375       -19.9834 
  35   2.0000      -0.727829       -19.8052 
  36   2.0000      -0.708840       -19.2885 
  37   2.0000      -0.708791       -19.2872 
  38   2.0000      -0.693668       -18.8757 
  39   2.0000      -0.676118       -18.3981 
  40   2.0000      -0.658440       -17.9171 
  41   2.0000      -0.653943       -17.7947 
  42   2.0000      -0.635967       -17.3055 
  43   2.0000      -0.629094       -17.1185 
  44   2.0000      -0.625224       -17.0132 
  45   2.0000      -0.619161       -16.8482 
  46   2.0000      -0.591482       -16.0951 
  47   2.0000      -0.588718       -16.0198 
  48   2.0000      -0.558394       -15.1947 
  49   2.0000      -0.547649       -14.9023 
  50   2.0000      -0.541142       -14.7252 
  51   2.0000      -0.535224       -14.5642 
  52   2.0000      -0.526230       -14.3194 
  53   2.0000      -0.514899       -14.0111 
  54   2.0000      -0.490932       -13.3589 
  55   2.0000      -0.476942       -12.9783 
  56   2.0000      -0.472453       -12.8561 
  57   2.0000      -0.463355       -12.6085 
  58   2.0000      -0.451269       -12.2796 
  59   2.0000      -0.442036       -12.0284 
  60   2.0000      -0.434670       -11.8280 
  61   2.0000      -0.426426       -11.6036 
  62   2.0000      -0.423591       -11.5265 
  63   2.0000      -0.416951       -11.3458 
  64   2.0000      -0.411547       -11.1988 
  65   2.0000      -0.405359       -11.0304 
  66   2.0000      -0.404771       -11.0144 
  67   2.0000      -0.401100       -10.9145 
  68   2.0000      -0.397803       -10.8248 
  69   2.0000      -0.392807       -10.6888 
  70   2.0000      -0.388985       -10.5848 
  71   2.0000      -0.382572       -10.4103 
  72   2.0000      -0.378755       -10.3064 
  73   2.0000      -0.374131       -10.1806 
  74   2.0000      -0.371559       -10.1106 
  75   2.0000      -0.365974        -9.9587 
  76   2.0000      -0.361768        -9.8442 
  77   2.0000      -0.357329        -9.7234 
  78   2.0000      -0.354884        -9.6569 
  79   2.0000      -0.350519        -9.5381 
  80   2.0000      -0.345720        -9.4075 
  81   2.0000      -0.344548        -9.3756 
  82   2.0000      -0.342142        -9.3101 
  83   2.0000      -0.336173        -9.1477 
  84   2.0000      -0.330204        -8.9853 
  85   2.0000      -0.325778        -8.8649 
  86   2.0000      -0.323266        -8.7965 
  87   2.0000      -0.320518        -8.7217 
  88   2.0000      -0.314016        -8.5448 
  89   2.0000      -0.312481        -8.5031 
  90   2.0000      -0.309082        -8.4106 
  91   2.0000      -0.306533        -8.3412 
  92   2.0000      -0.302431        -8.2296 
  93   2.0000      -0.295904        -8.0519 
  94   2.0000      -0.290139        -7.8951 
  95   2.0000      -0.288388        -7.8474 
  96   2.0000      -0.285828        -7.7778 
  97   2.0000      -0.282705        -7.6928 
  98   2.0000      -0.281952        -7.6723 
  99   2.0000      -0.278261        -7.5719 
 100   2.0000      -0.276272        -7.5177 
 101   2.0000      -0.274191        -7.4611 
 102   2.0000      -0.271828        -7.3968 
 103   2.0000      -0.268842        -7.3156 
 104   2.0000      -0.259861        -7.0712 
 105   2.0000      -0.249380        -6.7860 
 106   2.0000      -0.230174        -6.2634 
 107   2.0000      -0.228632        -6.2214 
 108   2.0000      -0.212874        -5.7926 
 109   2.0000      -0.183206        -4.9853 
 110   0.0000      -0.057015        -1.5515 
 111   0.0000      -0.014185        -0.3860 
 112   0.0000      -0.006714        -0.1827 
 113   0.0000       0.030518         0.8304 
 114   0.0000       0.038745         1.0543 
 115   0.0000       0.039765         1.0821 
 116   0.0000       0.045137         1.2282 
 117   0.0000       0.047944         1.3046 
 118   0.0000       0.052892         1.4393 
 119   0.0000       0.060133         1.6363 
 120   0.0000       0.061036         1.6609 
 121   0.0000       0.066252         1.8028 
 122   0.0000       0.068398         1.8612 
 123   0.0000       0.075136         2.0446 
 124   0.0000       0.077590         2.1113 
 125   0.0000       0.080529         2.1913 
 126   0.0000       0.084389         2.2963 
 127   0.0000       0.086890         2.3644 
 128   0.0000       0.091066         2.4780 
 129   0.0000       0.091444         2.4883 
 130   0.0000       0.097963         2.6657 
 131   0.0000       0.101594         2.7645 
 132   0.0000       0.103027         2.8035 
 133   0.0000       0.104809         2.8520 
 134   0.0000       0.107772         2.9326 
 135   0.0000       0.110809         3.0153 
 136   0.0000       0.112806         3.0696 
 137   0.0000       0.115654         3.1471 
 138   0.0000       0.120435         3.2772 
 139   0.0000       0.123007         3.3472 
 140   0.0000       0.125486         3.4146 
 141   0.0000       0.128632         3.5003 
 142   0.0000       0.130771         3.5585 
 143   0.0000       0.137146         3.7319 
 144   0.0000       0.140629         3.8267 
 145   0.0000       0.142169         3.8686 
 146   0.0000       0.143773         3.9123 
 147   0.0000       0.145510         3.9595 
 148   0.0000       0.148335         4.0364 
 149   0.0000       0.151437         4.1208 
 150   0.0000       0.153324         4.1722 
 151   0.0000       0.159189         4.3317 
 152   0.0000       0.161201         4.3865 
 153   0.0000       0.164387         4.4732 
 154   0.0000       0.165165         4.4944 
 155   0.0000       0.170478         4.6389 
 156   0.0000       0.177039         4.8175 
 157   0.0000       0.178261         4.8507 
 158   0.0000       0.180300         4.9062 
 159   0.0000       0.183057         4.9812 
 160   0.0000       0.186344         5.0707 
 161   0.0000       0.194402         5.2899 
 162   0.0000       0.195578         5.3220 
 163   0.0000       0.197529         5.3750 
 164   0.0000       0.203571         5.5395 
 165   0.0000       0.205625         5.5953 
 166   0.0000       0.205936         5.6038 
 167   0.0000       0.211375         5.7518 
 168   0.0000       0.213244         5.8027 
 169   0.0000       0.217202         5.9104 
 170   0.0000       0.220167         5.9911 
 171   0.0000       0.222410         6.0521 
 172   0.0000       0.227878         6.2009 
 173   0.0000       0.233328         6.3492 
 174   0.0000       0.237284         6.4568 
 175   0.0000       0.245197         6.6721 
 176   0.0000       0.246774         6.7151 
 177   0.0000       0.254133         6.9153 
 178   0.0000       0.263196         7.1619 
 179   0.0000       0.266630         7.2554 
 180   0.0000       0.275317         7.4918 
 181   0.0000       0.278400         7.5756 
 182   0.0000       0.289394         7.8748 
 183   0.0000       0.295777         8.0485 
 184   0.0000       0.296855         8.0778 
 185   0.0000       0.326813         8.8930 
 186   0.0000       0.335144         9.1197 
 187   0.0000       0.340235         9.2583 
 188   0.0000       0.348256         9.4765 
 189   0.0000       0.350729         9.5438 
 190   0.0000       0.356437         9.6991 
 191   0.0000       0.357628         9.7315 
 192   0.0000       0.368704        10.0329 
 193   0.0000       0.373001        10.1499 
 194   0.0000       0.376130        10.2350 
 195   0.0000       0.382470        10.4075 
 196   0.0000       0.384447        10.4613 
 197   0.0000       0.390100        10.6152 
 198   0.0000       0.392687        10.6856 
 199   0.0000       0.399495        10.8708 
 200   0.0000       0.402330        10.9480 
 201   0.0000       0.407442        11.0871 
 202   0.0000       0.411115        11.1870 
 203   0.0000       0.417268        11.3544 
 204   0.0000       0.420339        11.4380 
 205   0.0000       0.426804        11.6139 
 206   0.0000       0.439748        11.9662 
 207   0.0000       0.447967        12.1898 
 208   0.0000       0.452116        12.3027 
 209   0.0000       0.459638        12.5074 
 210   0.0000       0.464098        12.6288 
 211   0.0000       0.469815        12.7843 
 212   0.0000       0.474046        12.8995 
 213   0.0000       0.474915        12.9231 
 214   0.0000       0.477580        12.9956 
 215   0.0000       0.481749        13.1090 
 216   0.0000       0.483814        13.1652 
 217   0.0000       0.496135        13.5005 
 218   0.0000       0.498316        13.5599 
 219   0.0000       0.501108        13.6358 
 220   0.0000       0.503468        13.7001 
 221   0.0000       0.509598        13.8669 
 222   0.0000       0.511593        13.9212 
 223   0.0000       0.513504        13.9732 
 224   0.0000       0.524568        14.2742 
 225   0.0000       0.530945        14.4478 
 226   0.0000       0.533060        14.5053 
 227   0.0000       0.535756        14.5787 
 228   0.0000       0.541083        14.7236 
 229   0.0000       0.542849        14.7717 
 230   0.0000       0.546908        14.8821 
 231   0.0000       0.552654        15.0385 
 232   0.0000       0.554509        15.0890 
 233   0.0000       0.562036        15.2938 
 234   0.0000       0.565863        15.3979 
 235   0.0000       0.568462        15.4686 
 236   0.0000       0.570057        15.5120 
 237   0.0000       0.572579        15.5807 
 238   0.0000       0.573781        15.6134 
 239   0.0000       0.580118        15.7858 
 240   0.0000       0.583319        15.8729 
 241   0.0000       0.586148        15.9499 
 242   0.0000       0.589443        16.0395 
 243   0.0000       0.594446        16.1757 
 244   0.0000       0.595233        16.1971 
 245   0.0000       0.596794        16.2396 
 246   0.0000       0.599437        16.3115 
 247   0.0000       0.600140        16.3307 
 248   0.0000       0.603321        16.4172 
 249   0.0000       0.605321        16.4716 
 250   0.0000       0.607403        16.5283 
 251   0.0000       0.607928        16.5426 
 252   0.0000       0.610061        16.6006 
 253   0.0000       0.612855        16.6766 
 254   0.0000       0.612967        16.6797 
 255   0.0000       0.616564        16.7776 
 256   0.0000       0.621384        16.9087 
 257   0.0000       0.624749        17.0003 
 258   0.0000       0.626328        17.0432 
 259   0.0000       0.633151        17.2289 
 260   0.0000       0.634376        17.2622 
 261   0.0000       0.639022        17.3887 
 262   0.0000       0.639496        17.4016 
 263   0.0000       0.644551        17.5391 
 264   0.0000       0.646459        17.5911 
 265   0.0000       0.651324        17.7234 
 266   0.0000       0.652189        17.7470 
 267   0.0000       0.654172        17.8009 
 268   0.0000       0.656451        17.8629 
 269   0.0000       0.660546        17.9744 
 270   0.0000       0.662904        18.0385 
 271   0.0000       0.667046        18.1512 
 272   0.0000       0.671017        18.2593 
 273   0.0000       0.676850        18.4180 
 274   0.0000       0.679273        18.4840 
 275   0.0000       0.681864        18.5545 
 276   0.0000       0.683883        18.6094 
 277   0.0000       0.687161        18.6986 
 278   0.0000       0.689397        18.7594 
 279   0.0000       0.692200        18.8357 
 280   0.0000       0.696571        18.9547 
 281   0.0000       0.697988        18.9932 
 282   0.0000       0.700067        19.0498 
 283   0.0000       0.707870        19.2621 
 284   0.0000       0.711404        19.3583 
 285   0.0000       0.719522        19.5792 
 286   0.0000       0.722806        19.6686 
 287   0.0000       0.729878        19.8610 
 288   0.0000       0.733603        19.9624 
 289   0.0000       0.737303        20.0630 
 290   0.0000       0.741690        20.1824 
 291   0.0000       0.743684        20.2367 
 292   0.0000       0.750102        20.4113 
 293   0.0000       0.755219        20.5506 
 294   0.0000       0.761377        20.7181 
 295   0.0000       0.767889        20.8953 
 296   0.0000       0.775442        21.1009 
 297   0.0000       0.778070        21.1724 
 298   0.0000       0.785685        21.3796 
 299   0.0000       0.794793        21.6274 
 300   0.0000       0.801854        21.8195 
 301   0.0000       0.807723        21.9793 
 302   0.0000       0.813925        22.1480 
 303   0.0000       0.832570        22.6554 
 304   0.0000       0.839737        22.8504 
 305   0.0000       0.869426        23.6583 
 306   0.0000       0.872603        23.7447 
 307   0.0000       0.875418        23.8213 
 308   0.0000       0.893805        24.3217 
 309   0.0000       0.910952        24.7883 
 310   0.0000       0.931016        25.3342 
 311   0.0000       0.936578        25.4856 
 312   0.0000       0.949592        25.8397 
 313   0.0000       0.966802        26.3080 
 314   0.0000       0.986233        26.8368 
 315   0.0000       0.989753        26.9326 
 316   0.0000       1.001241        27.2451 
 317   0.0000       1.026920        27.9439 
 318   0.0000       1.029110        28.0035 
 319   0.0000       1.035795        28.1854 
 320   0.0000       1.042786        28.3756 
 321   0.0000       1.063416        28.9370 
 322   0.0000       1.064520        28.9671 
 323   0.0000       1.091367        29.6976 
 324   0.0000       1.097823        29.8733 
 325   0.0000       1.111154        30.2360 
 326   0.0000       1.130769        30.7698 
 327   0.0000       1.148493        31.2521 
 328   0.0000       1.159806        31.5599 
 329   0.0000       1.180034        32.1104 
 330   0.0000       1.191549        32.4237 
 331   0.0000       1.213266        33.0146 
 332   0.0000       1.225689        33.3527 
 333   0.0000       1.256353        34.1871 
 334   0.0000       1.259746        34.2794 
 335   0.0000       1.263956        34.3940 
 336   0.0000       1.277432        34.7607 
 337   0.0000       1.283633        34.9294 
 338   0.0000       1.296180        35.2708 
 339   0.0000       1.307540        35.5800 
 340   0.0000       1.318186        35.8697 
 341   0.0000       1.335464        36.3398 
 342   0.0000       1.344358        36.5818 
 343   0.0000       1.347477        36.6667 
 344   0.0000       1.359642        36.9978 
 345   0.0000       1.371261        37.3139 
 346   0.0000       1.391485        37.8642 
 347   0.0000       1.402755        38.1709 
 348   0.0000       1.407866        38.3100 
 349   0.0000       1.412724        38.4422 
 350   0.0000       1.414568        38.4924 
 351   0.0000       1.437857        39.1261 
 352   0.0000       1.441702        39.2307 
 353   0.0000       1.452640        39.5284 
 354   0.0000       1.461434        39.7676 
 355   0.0000       1.473156        40.0866 
 356   0.0000       1.478794        40.2400 
 357   0.0000       1.486176        40.4409 
 358   0.0000       1.503904        40.9233 
 359   0.0000       1.507916        41.0325 
 360   0.0000       1.510876        41.1130 
 361   0.0000       1.521833        41.4112 
 362   0.0000       1.528546        41.5939 
 363   0.0000       1.548218        42.1292 
 364   0.0000       1.560717        42.4693 
 365   0.0000       1.564425        42.5702 
 366   0.0000       1.572410        42.7874 
 367   0.0000       1.587626        43.2015 
 368   0.0000       1.594698        43.3939 
 369   0.0000       1.600857        43.5615 
 370   0.0000       1.609358        43.7929 
 371   0.0000       1.611117        43.8407 
 372   0.0000       1.625677        44.2369 
 373   0.0000       1.630061        44.3562 
 374   0.0000       1.640652        44.6444 
 375   0.0000       1.646690        44.8087 
 376   0.0000       1.662121        45.2286 
 377   0.0000       1.666429        45.3458 
 378   0.0000       1.682253        45.7764 
 379   0.0000       1.685142        45.8550 
 380   0.0000       1.689950        45.9859 
 381   0.0000       1.692280        46.0493 
 382   0.0000       1.698082        46.2071 
 383   0.0000       1.707843        46.4728 
 384   0.0000       1.713571        46.6287 
 385   0.0000       1.716330        46.7037 
 386   0.0000       1.728324        47.0301 
 387   0.0000       1.731457        47.1154 
 388   0.0000       1.735943        47.2374 
 389   0.0000       1.739617        47.3374 
 390   0.0000       1.744887        47.4808 
 391   0.0000       1.751825        47.6696 
 392   0.0000       1.754317        47.7374 
 393   0.0000       1.761477        47.9322 
 394   0.0000       1.765401        48.0390 
 395   0.0000       1.771363        48.2012 
 396   0.0000       1.776119        48.3307 
 397   0.0000       1.785929        48.5976 
 398   0.0000       1.788363        48.6638 
 399   0.0000       1.789872        48.7049 
 400   0.0000       1.802717        49.0544 
 401   0.0000       1.807690        49.1898 
 402   0.0000       1.812852        49.3302 
 403   0.0000       1.820962        49.5509 
 404   0.0000       1.826804        49.7099 
 405   0.0000       1.836916        49.9850 
 406   0.0000       1.841308        50.1045 
 407   0.0000       1.843291        50.1585 
 408   0.0000       1.850903        50.3656 
 409   0.0000       1.856170        50.5089 
 410   0.0000       1.870344        50.8947 
 411   0.0000       1.875296        51.0294 
 412   0.0000       1.880793        51.1790 
 413   0.0000       1.884297        51.2743 
 414   0.0000       1.893290        51.5190 
 415   0.0000       1.896916        51.6177 
 416   0.0000       1.900670        51.7199 
 417   0.0000       1.908676        51.9377 
 418   0.0000       1.913894        52.0797 
 419   0.0000       1.918867        52.2150 
 420   0.0000       1.925104        52.3847 
 421   0.0000       1.929939        52.5163 
 422   0.0000       1.937747        52.7288 
 423   0.0000       1.950562        53.0775 
 424   0.0000       1.952342        53.1259 
 425   0.0000       1.964960        53.4693 
 426   0.0000       1.966216        53.5035 
 427   0.0000       1.971598        53.6499 
 428   0.0000       1.973187        53.6931 
 429   0.0000       1.977702        53.8160 
 430   0.0000       1.984894        54.0117 
 431   0.0000       1.987035        54.0700 
 432   0.0000       1.993697        54.2513 
 433   0.0000       1.995549        54.3017 
 434   0.0000       1.999772        54.4166 
 435   0.0000       2.001457        54.4624 
 436   0.0000       2.005669        54.5770 
 437   0.0000       2.011057        54.7236 
 438   0.0000       2.015310        54.8394 
 439   0.0000       2.021385        55.0047 
 440   0.0000       2.029418        55.2233 
 441   0.0000       2.030677        55.2575 
 442   0.0000       2.037247        55.4363 
 443   0.0000       2.040446        55.5234 
[...]

 --------------
 Nucleus  47H :
 --------------

Diamagnetic contribution to the shielding tensor (ppm) : 
            33.310         -3.064        -5.589
            -4.977         34.592         8.412
            -6.363          8.368        46.958

Paramagnetic contribution to the shielding tensor (ppm): 
            -1.976          1.647         3.319
             3.448         -7.080        -5.998
             3.328         -5.281       -11.888

Total shielding tensor (ppm): 
            31.333         -1.417        -2.271
            -1.529         27.512         2.414
            -3.035          3.086        35.070


 Diagonalized sT*s matrix:
 
 sDSO            30.525           31.360           52.975  iso=      38.287
 sPSO            -3.994           -1.403          -15.547  iso=      -6.981
        ---------------  ---------------  ---------------
 Total           26.531           29.958           37.427  iso=      31.305

 --------------
 Nucleus  48H :
 --------------

Diamagnetic contribution to the shielding tensor (ppm) : 
            37.064         -0.030        -2.848
            -7.389         37.259         0.918
            -2.652         -0.556        42.717

Paramagnetic contribution to the shielding tensor (ppm): 
            -5.531          1.637         3.078
             9.298         -8.387        -2.054
             2.106         -1.137       -13.324

Total shielding tensor (ppm): 
            31.533          1.607         0.230
             1.909         28.872        -1.137
            -0.546         -1.693        29.393


 Diagonalized sT*s matrix:
 
 sDSO            41.572           39.940           35.528  iso=      39.013
 sPSO           -14.291          -10.034           -2.916  iso=      -9.080
        ---------------  ---------------  ---------------
 Total           27.281           29.906           32.612  iso=      29.933

 --------------
 Nucleus  52H :
 --------------

Diamagnetic contribution to the shielding tensor (ppm) : 
            39.019          0.595         2.018
             2.614         34.449       -12.753
             6.741         -9.681        43.176

Paramagnetic contribution to the shielding tensor (ppm): 
            -8.888          3.155        -1.203
             0.868         -6.732        14.020
            -4.589         11.892       -21.208

Total shielding tensor (ppm): 
            30.131          3.750         0.815
             3.482         27.717         1.267
             2.152          2.211        21.968


 Diagonalized sT*s matrix:
 
 sDSO            47.099           31.610           37.936  iso=      38.881
 sPSO           -25.645           -6.421           -4.761  iso=     -12.276
        ---------------  ---------------  ---------------
 Total           21.453           25.188           33.174  iso=      26.605

 --------------
 Nucleus  53H :
 --------------

Diamagnetic contribution to the shielding tensor (ppm) : 
            35.180          1.134         0.915
             0.546         37.965        -5.122
             5.529         -7.578        43.784

Paramagnetic contribution to the shielding tensor (ppm): 
            -8.835          3.312        -1.301
             3.829         -9.688         6.048
            -5.442          8.803       -20.279

Total shielding tensor (ppm): 
            26.345          4.447        -0.386
             4.375         28.277         0.926
             0.087          1.225        23.506


 Diagonalized sT*s matrix:
 
 sDSO            44.204           35.472           37.253  iso=      38.976
 sPSO           -21.938          -11.504           -5.360  iso=     -12.934
        ---------------  ---------------  ---------------
 Total           22.267           23.968           31.893  iso=      26.043

 --------------
 Nucleus  57H :
 --------------

Diamagnetic contribution to the shielding tensor (ppm) : 
            40.579          3.878        -6.512
             3.055         14.598        -3.932
            -7.431         -1.819        33.575

Paramagnetic contribution to the shielding tensor (ppm): 
            -8.487         -3.770         2.463
            -4.282         12.588         4.127
             3.611          0.831        -3.918

Total shielding tensor (ppm): 
            32.092          0.108        -4.049
            -1.227         27.186         0.194
            -3.820         -0.988        29.656


 Diagonalized sT*s matrix:
 
 sDSO            24.171           19.934           44.647  iso=      29.584
 sPSO             2.112            7.720           -9.650  iso=       0.061
        ---------------  ---------------  ---------------
 Total           26.283           27.654           34.997  iso=      29.645

 --------------
 Nucleus  58H :
 --------------

Diamagnetic contribution to the shielding tensor (ppm) : 
            36.453         10.095         3.932
            15.811         21.966         3.730
             6.702          3.105        26.309

Paramagnetic contribution to the shielding tensor (ppm): 
            -3.549         -6.898        -1.145
           -12.041          8.453        -3.288
            -3.381         -2.762         1.430

Total shielding tensor (ppm): 
            32.903          3.197         2.787
             3.770         30.419         0.442
             3.321          0.343        27.739


 Diagonalized sT*s matrix:
 
 sDSO            21.621           17.049           46.058  iso=      28.243
 sPSO             4.312           11.824           -9.803  iso=       2.111
        ---------------  ---------------  ---------------
 Total           25.933           28.873           36.255  iso=      30.354

 --------------
 Nucleus  61H :
 --------------

Diamagnetic contribution to the shielding tensor (ppm) : 
            35.096          2.996        -5.171
             3.344         20.956        -6.939
             2.649         -9.980        39.420

Paramagnetic contribution to the shielding tensor (ppm): 
            -4.966         -2.602         4.070
            -2.747          7.645         5.268
            -4.005          7.981        -6.478

Total shielding tensor (ppm): 
            30.131          0.394        -1.101
             0.597         28.600        -1.671
            -1.356         -1.999        32.942


 Diagonalized sT*s matrix:
 
 sDSO            17.575           34.588           43.309  iso=      31.824
 sPSO            10.352           -4.902           -9.250  iso=      -1.266
        ---------------  ---------------  ---------------
 Total           27.928           29.686           34.060  iso=      30.558

 --------------
 Nucleus  62H :
 --------------

Diamagnetic contribution to the shielding tensor (ppm) : 
            37.258          6.782         8.343
             7.201         10.145         0.978
            10.049          0.816        24.708

Paramagnetic contribution to the shielding tensor (ppm): 
            -2.503         -5.107        -3.304
            -5.565         18.636        -0.958
            -4.700         -0.278         4.633

Total shielding tensor (ppm): 
            34.755          1.676         5.040
             1.637         28.782         0.019
             5.349          0.538        29.341


 Diagonalized sT*s matrix:
 
 sDSO            18.024           10.780           43.308  iso=      24.037
 sPSO             8.015           17.893           -5.142  iso=       6.922
        ---------------  ---------------  ---------------
 Total           26.039           28.673           38.166  iso=      30.959

 --------------
 Nucleus  63H :
 --------------

Diamagnetic contribution to the shielding tensor (ppm) : 
            33.874         -5.311         2.948
           -12.550         24.108       -11.953
             2.534         -5.348        21.504

Paramagnetic contribution to the shielding tensor (ppm): 
            -3.032          1.461        -0.806
             8.778         10.619        11.915
            -1.071          4.813         4.925

Total shielding tensor (ppm): 
            30.842         -3.850         2.142
            -3.772         34.727        -0.038
             1.463         -0.536        26.429


 Diagonalized sT*s matrix:
 
 sDSO            22.897           19.809           36.781  iso=      26.495
 sPSO             2.739            9.358            0.415  iso=       4.171
        ---------------  ---------------  ---------------
 Total           25.636           29.167           37.196  iso=      30.666

 --------------
 Nucleus  64H :
 --------------

Diamagnetic contribution to the shielding tensor (ppm) : 
            27.329         -0.780        -1.597
             9.040         32.388         1.508
             5.048         -4.458        40.977

Paramagnetic contribution to the shielding tensor (ppm): 
             0.309         -0.139         0.413
           -10.271         -3.464        -1.940
            -5.121          3.141        -5.151

Total shielding tensor (ppm): 
            27.638         -0.919        -1.183
            -1.231         28.925        -0.433
            -0.073         -1.317        35.826


 Diagonalized sT*s matrix:
 
 sDSO            32.538           27.111           41.045  iso=      33.565
 sPSO            -5.618            2.393           -5.081  iso=      -2.768
        ---------------  ---------------  ---------------
 Total           26.920           29.504           35.964  iso=      30.796

 --------------
 Nucleus  65H :
 --------------

Diamagnetic contribution to the shielding tensor (ppm) : 
            40.103          2.112        -2.598
            14.921         38.860         7.144
             4.878          8.853        33.812

Paramagnetic contribution to the shielding tensor (ppm): 
            -3.806          1.531         3.440
           -11.499         -8.153        -4.882
            -4.669         -6.479        -7.180

Total shielding tensor (ppm): 
            36.297          3.642         0.842
             3.422         30.707         2.263
             0.209          2.374        26.632


 Diagonalized sT*s matrix:
 
 sDSO            27.836           37.110           47.830  iso=      37.592
 sPSO            -2.359           -7.153           -9.627  iso=      -6.380
        ---------------  ---------------  ---------------
 Total           25.477           29.957           38.202  iso=      31.212

 --------------
 Nucleus  66H :
 --------------

Diamagnetic contribution to the shielding tensor (ppm) : 
            24.737         -5.304        -1.850
             6.404         44.837         4.424
             6.169          7.899        28.618

Paramagnetic contribution to the shielding tensor (ppm): 
             3.571          3.217         0.176
            -7.899         -9.064        -1.001
            -8.056         -3.949         0.680

Total shielding tensor (ppm): 
            28.308         -2.087        -1.674
            -1.496         35.773         3.423
            -1.887          3.950        29.298


 Diagonalized sT*s matrix:
 
 sDSO            27.830           25.585           44.778  iso=      32.731
 sPSO            -1.011            2.954           -6.756  iso=      -1.604
        ---------------  ---------------  ---------------
 Total           26.819           28.538           38.022  iso=      31.126

 --------------
 Nucleus  67H :
 --------------

Diamagnetic contribution to the shielding tensor (ppm) : 
            29.483          3.646        -8.799
             9.056         22.007        -0.984
            -9.356         -3.123        32.922

Paramagnetic contribution to the shielding tensor (ppm): 
             0.560         -2.774         4.802
            -7.845          6.337        -1.749
             4.176          1.361         0.827

Total shielding tensor (ppm): 
            30.043          0.873        -3.998
             1.211         28.344        -2.733
            -5.180         -1.761        33.749


 Diagonalized sT*s matrix:
 
 sDSO            24.470           18.283           41.658  iso=      28.137
 sPSO             2.316            9.568           -4.160  iso=       2.575
        ---------------  ---------------  ---------------
 Total           26.787           27.851           37.498  iso=      30.712

 --------------
 Nucleus  68H :
 --------------

Diamagnetic contribution to the shielding tensor (ppm) : 
            22.200          1.017         0.970
            10.050         41.410        -3.299
            -2.579         -2.020        20.795

Paramagnetic contribution to the shielding tensor (ppm): 
             4.360         -1.219        -1.332
            -9.566         -3.971         1.610
             2.649         -0.215         7.222

Total shielding tensor (ppm): 
            26.559         -0.203        -0.362
             0.485         37.439        -1.690
             0.069         -2.235        28.017


 Diagonalized sT*s matrix:
 
 sDSO            22.026           20.518           41.861  iso=      28.135
 sPSO             4.519            7.119           -4.027  iso=       2.537
        ---------------  ---------------  ---------------
 Total           26.545           27.637           37.834  iso=      30.672

 --------------
 Nucleus  69H :
 --------------

Diamagnetic contribution to the shielding tensor (ppm) : 
            34.576          1.549         5.449
            11.742         33.501        -2.726
             7.721         -7.614        35.169

Paramagnetic contribution to the shielding tensor (ppm): 
            -2.694         -0.138        -1.634
           -10.486         -3.498         0.871
            -3.675          6.536        -4.860

Total shielding tensor (ppm): 
            31.881          1.411         3.815
             1.256         30.003        -1.856
             4.046         -1.078        30.309


 Diagonalized sT*s matrix:
 
 sDSO            22.834           39.067           41.345  iso=      34.415
 sPSO             3.252           -8.065           -6.239  iso=      -3.684
        ---------------  ---------------  ---------------
 Total           26.086           31.001           35.105  iso=      30.731

 --------------
 Nucleus  70H :
 --------------

Diamagnetic contribution to the shielding tensor (ppm) : 
            31.146          0.936         3.901
            -7.999         37.473        10.526
            -2.227          8.626        37.004

Paramagnetic contribution to the shielding tensor (ppm): 
             0.907         -0.457        -3.507
             9.707         -6.756        -5.266
             3.063         -3.974        -9.129

Total shielding tensor (ppm): 
            32.053          0.479         0.394
             1.708         30.717         5.260
             0.835          4.652        27.876


 Diagonalized sT*s matrix:
 
 sDSO            28.033           35.237           42.353  iso=      35.208
 sPSO            -3.896           -3.709           -7.373  iso=      -4.993
        ---------------  ---------------  ---------------
 Total           24.137           31.529           34.980  iso=      30.215

 --------------
 Nucleus  71H :
 --------------

Diamagnetic contribution to the shielding tensor (ppm) : 
            28.054         -7.027        -0.038
           -12.997         38.141        -2.471
            -3.012         -6.799        34.999

Paramagnetic contribution to the shielding tensor (ppm): 
             2.396          4.506         0.882
            10.990         -4.647        -1.016
             3.468          4.556        -6.162

Total shielding tensor (ppm): 
            30.450         -2.521         0.844
            -2.006         33.494        -3.487
             0.456         -2.243        28.837


 Diagonalized sT*s matrix:
 
 sDSO            29.689           26.304           45.201  iso=      33.731
 sPSO            -2.280            3.209           -9.342  iso=      -2.804
        ---------------  ---------------  ---------------
 Total           27.410           29.514           35.858  iso=      30.927

 --------------
 Nucleus  72H :
 --------------

Diamagnetic contribution to the shielding tensor (ppm) : 
            36.100         -7.825        -8.546
           -15.062         24.380         2.485
           -14.224          2.908        30.921

Paramagnetic contribution to the shielding tensor (ppm): 
            -1.831          6.006         3.861
            13.013          5.452         0.172
             9.872         -0.228        -2.192

Total shielding tensor (ppm): 
            34.268         -1.818        -4.684
            -2.049         29.832         2.657
            -4.352          2.680        28.729


 Diagonalized sT*s matrix:
 
 sDSO            25.015           16.717           49.668  iso=      30.467
 sPSO             0.620           12.551          -11.742  iso=       0.476
        ---------------  ---------------  ---------------
 Total           25.635           29.268           37.926  iso=      30.943



--------------------------------
CHEMICAL SHIELDING SUMMARY (ppm)
--------------------------------


  Nucleus  Element    Isotropic     Anisotropy
  -------  -------  ------------   ------------
      3       H           29.366          6.473 
      4       H           29.050          7.403 
      8       H           29.572          7.903 
      9       H           29.338          5.422 
     10       H           30.104          8.311 
     11       H           29.859         10.229 
     13       H           27.736          7.794 
     16       H           26.788          4.721 
     17       H           26.508          4.853 
     19       H           25.406         10.318 
     21       H           25.601         14.578 
     24       H           28.913         10.052 
     25       H           30.038          9.619 
     27       H           30.237          7.034 
     28       H           30.108         11.896 
     30       H           29.752          8.051 
     31       H           30.415          7.129 
     33       H           29.744          4.424 
     35       H           30.165         14.701 
     37       H           30.397         10.346 
     38       H           30.239          9.650 
     40       H           30.086         10.084 
     41       H           30.544          9.854 
     42       H           30.523          5.014 
     45       H           31.254          7.188 
     46       H           31.012          8.027 
     47       H           31.305          9.183 
     48       H           29.933          4.019 
     52       H           26.605          9.853 
     53       H           26.043          8.775 
     57       H           29.645          8.029 
     58       H           30.354          8.852 
     61       H           30.558          5.253 
     62       H           30.959         10.810 
     63       H           30.666          9.794 
     64       H           30.796          7.752 
     65       H           31.212         10.486 
     66       H           31.126         10.344 
     67       H           30.712         10.179 
     68       H           30.672         10.742 
     69       H           30.731          6.562 
     70       H           30.215          7.147 
     71       H           30.927          7.397 
     72       H           30.943         10.474 



Maximum memory used throughout the entire EPRNMR-calculation: 141.6 MB

Timings for individual modules:

Sum of individual times         ...      149.607 sec (=   2.493 min)
GTO integral calculation        ...        0.766 sec (=   0.013 min)   0.5 %
SCF iterations                  ...       99.325 sec (=   1.655 min)  66.4 %
EPR/NMR calculation             ...       49.516 sec (=   0.825 min)  33.1 %
                             ****ORCA TERMINATED NORMALLY****
TOTAL RUN TIME: 0 days 0 hours 2 minutes 30 seconds 100 msec
