
                                 *****************
                                 * O   R   C   A *
                                 *****************

                                            #,                                       
                                            ###                                      
                                            ####                                     
                                            #####                                    
                                            ######                                   
                                           ########,                                 
                                     ,,################,,,,,                         
                               ,,#################################,,                 
                          ,,##########################################,,             
                       ,#########################################, ''#####,          
                    ,#############################################,,   '####,        
                  ,##################################################,,,,####,       
                ,###########''''           ''''###############################       
              ,#####''   ,,,,##########,,,,          '''####'''          '####       
            ,##' ,,,,###########################,,,                        '##       
           ' ,,###''''                  '''############,,,                           
         ,,##''                                '''############,,,,        ,,,,,,###''
      ,#''                                            '''#######################'''  
     '                                                          ''''####''''         
             ,#######,   #######,   ,#######,      ##                                
            ,#'     '#,  ##    ##  ,#'     '#,    #''#        ,####,   ,####,        
            ##       ##  ##   ,#'  ##            #'  '#       #'       #'  '#        
            ##       ##  #######   ##           ,######,      #####,   #    #        
            '#,     ,#'  ##    ##  '#,     ,#' ,#      #,     #,   #   #,  ,#        
             '#######'   ##     ##  '#######'  #'      '#     '####' # '####'        



                #########################################################
                #                        -***-                          #
                #          Department of theory and spectroscopy        #
                #                                                       #
                #                      Frank Neese                      #
                #                                                       #
                #     Directorship, Architecture, Infrastructure        #
                #                    SHARK, DRIVERS                     #
                #        Core code/Algorithms in most modules           #
                #                                                       #
                #        Max Planck Institute fuer Kohlenforschung      #
                #                Kaiser Wilhelm Platz 1                 #
                #                 D-45470 Muelheim/Ruhr                 #
                #                      Germany                          #
                #                                                       #
                #                  All rights reserved                  #
                #                        -***-                          #
                #########################################################


                         Program Version 6.0.0  -   RELEASE  -


 With contributions from (in alphabetic order):
   Daniel Aravena         : Magnetic Suceptibility
   Michael Atanasov       : Ab Initio Ligand Field Theory (pilot matlab implementation)
   Alexander A. Auer      : GIAO ZORA, VPT2 properties, NMR spectrum
   Ute Becker             : All parallelization in ORCA, NUMFREQ, NUMCALC
   Giovanni Bistoni       : ED, misc. LED, open-shell LED, HFLD
   Martin Brehm           : Molecular dynamics
   Dmytro Bykov           : pre 5.0 version of the SCF Hessian
   Marcos Casanova-Páez   : Triplet and SCS-CIS(D). UHF-(DLPNO)-IP/EA/STEOM-CCSD. UHF-CVS-IP/STEOM-CCSD
   Vijay G. Chilkuri      : MRCI spin determinant printing, contributions to CSF-ICE
   Pauline Colinet        : FMM embedding
   Dipayan Datta          : RHF DLPNO-CCSD density
   Achintya Kumar Dutta   : EOM-CC, STEOM-CC
   Nicolas Foglia         : Exact transition moments, OPA infrastructure, MCD improvements
   Dmitry Ganyushin       : Spin-Orbit,Spin-Spin,Magnetic field MRCI
   Miquel Garcia          : C-PCM and meta-GGA Hessian, CCSD/C-PCM, Gaussian charge scheme
   Tiago L. C. Gouveia    : GS-ROHF, GS-ROCIS
   Yang Guo               : DLPNO-NEVPT2, F12-NEVPT2, CIM, IAO-localization
   Andreas Hansen         : Spin unrestricted coupled pair/coupled cluster methods
   Ingolf Harden          : AUTO-CI MPn and infrastructure 
   Benjamin Helmich-Paris : MC-RPA, TRAH-(SCF,CASSCF), AVAS, COSX integrals, SCF dyn. polar.
   Lee Huntington         : MR-EOM, pCC
   Robert Izsak           : Overlap fitted RIJCOSX, COSX-SCS-MP3, EOM
   Riya Kayal             : Wick's Theorem for AUTO-CI, AUTO-CI UHF-CCSDT
   Emily Kempfer          : AUTO-CI, RHF CISDT and CCSDT
   Christian Kollmar      : KDIIS, OOCD, Brueckner-CCSD(T), CCSD density, CASPT2, CASPT2-K, improved NEVPT2
   Axel Koslowski         : Symmetry handling
   Simone Kossmann        : Meta GGA functionals, TD-DFT gradient, OOMP2, (MP2 Hessian; deprecated post 5.0)
   Lucas Lang             : DCDCAS
   Marvin Lechner         : AUTO-CI (C++ implementation), FIC-MRCC
   Spencer Leger          : CASSCF response
   Dagmar Lenk            : GEPOL surface, SMD, ORCA-2-JSON
   Dimitrios Liakos       : Extrapolation schemes; Compound Job, initial MDCI parallelization
   Dimitrios Manganas     : Further ROCIS development; embedding schemes. LFT, Crystal Embedding
   Dimitrios Pantazis     : SARC Basis sets
   Anastasios Papadopoulos: AUTO-CI, single reference methods and gradients
   Taras Petrenko         : pre 6.0 DFT Hessian and TD-DFT gradient, (ASA, deprecated), ECA, 1-Electron XAS/XES, NRVS
   Peter Pinski           : DLPNO-MP2, DLPNO-MP2 Gradient
   Christoph Reimann      : Effective Core Potentials
   Marius Retegan         : Local ZFS, SOC
   Christoph Riplinger    : Optimizer, TS searches, QM/MM, DLPNO-CCSD(T), (RO)-DLPNO pert. Triples
   Michael Roemelt        : Original ROCIS implementation
   Masaaki Saitow         : Open-shell DLPNO-CCSD energy and density
   Barbara Sandhoefer     : DKH picture change effects
   Kantharuban Sivalingam : CASSCF convergence/infrastructure, NEVPT2 and variants, FIC-MRCI
   Bernardo de Souza      : ESD, SOC TD-DFT
   Georgi Stoychev        : AutoAux, RI-MP2 NMR, DLPNO-MP2 response, X2C
   Van Anh Tran           : RI-MP2 g-tensors
   Willem Van den Heuvel  : Paramagnetic NMR
   Zikuan Wang            : NOTCH, Electric field optimization 
   Frank Wennmohs         : Technical directorship and infrastructure
   Hang Xu                : AUTO-CI-Response properties 


 We gratefully acknowledge several colleagues who have allowed us to
 interface, adapt or use parts of their codes:
   Stefan Grimme, W. Hujo, H. Kruse, P. Pracht,  : VdW corrections, initial TS optimization,
                  C. Bannwarth, S. Ehlert,         DFT functionals, gCP, sTDA/sTD-DF
                  L. Wittmann, M. Mueller
   Ed Valeev, F. Pavosevic, A. Kumar             : LibInt (2-el integral package), F12 methods
   Garnet Chan, S. Sharma, J. Yang, R. Olivares  : DMRG
   Ulf Ekstrom                                   : XCFun DFT Library
   Mihaly Kallay                                 : mrcc  (arbitrary order and MRCC methods)
   Frank Weinhold                                : gennbo (NPA and NBO analysis)
   Simon Mueller                                 : openCOSMO-RS
   Christopher J. Cramer and Donald G. Truhlar   : smd solvation model
   Lars Goerigk                                  : TD-DFT with DH, B97 family of functionals
   V. Asgeirsson, H. Jonsson                     : NEB implementation
   FAccTs GmbH                                   : IRC, NEB, NEB-TS, DLPNO-Multilevel, CI-OPT
                                                   MM, QMMM, 2- and 3-layer-ONIOM, Crystal-QMMM,
                                                   LR-CPCM, SF, NACMEs, symmetry and pop. for TD-DFT,
                                                   nearIR, NL-DFT gradient (VV10), updates on ESD,
                                                   ML-optimized integration grids, MBIS, APM,
                                                   GOAT, DOCKER, SOLVATOR, interface openCOSMO-RS
   S Lehtola, MJT Oliveira, MAL Marques          : LibXC Library
   Liviu Ungur et al                             : ANISO software


 Your calculation uses the libint2 library for the computation of 2-el integrals
 For citations please refer to: http://libint.valeyev.net

 Your ORCA version has been built with support for libXC version: 6.2.2
 For citations please refer to: https://libxc.gitlab.io

 This ORCA versions uses:
   CBLAS   interface :  Fast vector & matrix operations
   LAPACKE interface :  Fast linear algebra routines
   SCALAPACK package :  Parallel linear algebra routines
   Shared memory     :  Shared parallel matrices
   BLAS/LAPACK       :  OpenBLAS 0.3.27  USE64BITINT DYNAMIC_ARCH NO_AFFINITY Zen SINGLE_THREADED
        Core in use  :  Zen
   Copyright (c) 2011-2014, The OpenBLAS Project


NOTE: MaxCore=8000 MB was set to SCF,MP2,MDCI,CIPSI,MRCI and CIS
      => If you want to overwrite this, your respective input block should be placed after the MaxCore statement
Your calculation utilizes the atom-pairwise dispersion correction
based on EEQ partial charges (D4)


================================================================================

----- Orbital basis set information -----
Your calculation utilizes the basis: def2-SVP
   F. Weigend and R. Ahlrichs, Phys. Chem. Chem. Phys. 7, 3297 (2005).

----- AuxJ basis set information -----
Your calculation utilizes the auxiliary basis: def2/J
   F. Weigend, Phys. Chem. Chem. Phys. 8, 1057 (2006).

================================================================================
                                        WARNINGS
                       Please study these warnings very carefully!
================================================================================

WARNING: Old DensityContainer found on disk!
         Will remove this file - 
         If you want to keep old densities, please start your calculation with a different basename. 


================================================================================
                                       INPUT FILE
================================================================================
NAME = inpS
|  1> ! wb97x-d4
|  2> ! def2-svp
|  3> ! def2/J RIJCOSX
|  4> ! DEFGRID2
|  5> ! scfconv7
|  6> ! smallprint printgap noloewdin
|  7> ! NOSOSCF
|  8> %MaxCore 8000
|  9> %output
| 10>        print[P_BondOrder_M] 1
| 11>        print[P_Mayer] 1
| 12>        print[P_basis] 2
| 13> end
| 14> %pal
| 15>     nprocs 4
| 16> end
| 17> ! CPCM(chloroform)
| 18> *xyz 0 1
| 19> C   -4.9485479300   0.2760527700   0.4379437600
| 20> C   -6.3677465100  -0.1512026600   0.1459411200
| 21> C   -6.9695601500   0.6356804800  -1.0246347700
| 22> H   -6.9983490400   0.0458312100   1.0297037800
| 23> H   -6.4128324900  -1.2255759900  -0.0634426700
| 24> C   -4.7708980800   1.7372810100   0.5757037400
| 25> C   -5.4135265500   2.5521036800  -0.5238576600
| 26> C   -6.8709295400   2.1340634300  -0.7623598500
| 27> H   -4.8484812800   2.3865309500  -1.4537844900
| 28> H   -5.3509512100   3.6199449600  -0.2894049500
| 29> H   -7.2908331000   2.6864744900  -1.6111344200
| 30> H   -7.4742465200   2.3767586300   0.1255004700
| 31> O   -8.3188693500   0.2271794600  -1.2848583700
| 32> H   -6.4174941900   0.3895513700  -1.9425737300
| 33> C   -3.9501707400  -0.6357387600   0.5117417500
| 34> C   -4.1371779200   2.3072669200   1.6070136600
| 35> H   -3.7038159100   1.7106680000   2.4049093600
| 36> H   -4.0478095400   3.3885495500   1.6800839100
| 37> C   -2.5435191600  -0.3569369200   0.6862407600
| 38> H   -4.2412202600  -1.6775151000   0.3845303700
| 39> C   -1.5590123200  -1.2687941100   0.8384413000
| 40> H   -2.2632340700   0.6939096400   0.6816520900
| 41> C   -1.7487425300  -2.7623877100   0.9173032800
| 42> C   -0.8482497600  -3.5072475400  -0.0855551100
| 43> H   -2.7915751400  -3.0570722800   0.7719301200
| 44> H   -1.4686877200  -3.0833699000   1.9335782100
| 45> C    0.6211960700  -3.0722548600   0.0010137000
| 46> H   -1.2255516400  -3.3359540200  -1.1016136100
| 47> H   -0.9223843300  -4.5864254600   0.0963745500
| 48> C    0.7760622900  -1.5511125900  -0.1371784400
| 49> H    1.1931472300  -3.6035480500  -0.7663714700
| 50> H    1.0325748700  -3.3759047200   0.9755148400
| 51> C   -0.1149393300  -0.8906142000   0.9625324700
| 52> H    0.2421809600  -1.3365739200   1.9094498800
| 53> C    0.3166711000   0.5720840200   0.9652157800
| 54> H   -8.8425836800   0.4335331000  -0.4990934800
| 55> C    1.8370871500   0.5026587400   0.6784837200
| 56> H    0.0854104100   1.0684168600   1.9135344700
| 57> H   -0.1970552200   1.1302545600   0.1746628200
| 58> C    2.1591711000  -0.9657220100   0.2647470600
| 59> H    2.4276307100   0.7971426500   1.5517017200
| 60> H    2.1079539600   1.1920338700  -0.1303502800
| 61> H    2.4826616300  -1.5183083100   1.1616235100
| 62> C    3.3268964000  -1.0432386700  -0.7486048300
| 63> C    0.3634699100  -1.0780693900  -1.5373026500
| 64> H   -0.7075364100  -1.2240178100  -1.7078654700
| 65> H    0.9072143100  -1.6336606700  -2.3092164200
| 66> H    0.5748143000  -0.0140099600  -1.6829386600
| 67> H    3.0243400100  -0.4561641700  -1.6316865800
| 68> C    3.6399902100  -2.4669958600  -1.2067436500
| 69> C    4.5276825000  -0.3463848600  -0.1528788100
| 70> C    5.6702964300  -0.9156492300   0.2336651500
| 71> H    4.4203454800   0.7299246800  -0.0048662100
| 72> H    5.8163024500  -1.9878042400   0.0953808900
| 73> C    6.8140261600  -0.1741589900   0.8715034500
| 74> C    8.1228419700  -0.4875519000   0.1328667900
| 75> C    6.8834206800  -0.4555377000   2.3982783800
| 76> H    6.6119263700   0.9026461700   0.7683648200
| 77> H    5.8825645400  -0.2134550100   2.7871426600
| 78> C    7.8874337900   0.4634362500   3.0990189500
| 79> C    7.1722299500  -1.9198739600   2.7378670600
| 80> H    8.0400337400  -0.1951893100  -0.9192181400
| 81> H    8.3469498700  -1.5597494000   0.1609624700
| 82> H    8.9737878000   0.0491640300   0.5641837900
| 83> H    7.8052523900   0.3612224900   4.1869158000
| 84> H    7.7121208000   1.5146944400   2.8427552000
| 85> H    8.9185112900   0.2140951000   2.8239312300
| 86> H    8.1750915600  -2.2143728900   2.4076796400
| 87> H    6.4482676800  -2.5984422800   2.2747551600
| 88> H    7.1261303700  -2.0720342900   3.8219284300
| 89> H    4.5511648900  -2.4844210100  -1.8143182100
| 90> H    2.8281919400  -2.8712932700  -1.8146226000
| 91> H    3.7885004800  -3.1378073300  -0.3522931800
| 92> *
| 93> %eprnmr
| 94>  Nuclei = all C { shift }
| 95>  origin giao
| 96>  giao_2el giao_2el_same_as_scf
| 97>  giao_1el giao_1el_analytic
| 98> end
| 99> 
|100>                          ****END OF INPUT****
================================================================================

                       ****************************
                       * Single Point Calculation *
                       ****************************

---------------------------------
CARTESIAN COORDINATES (ANGSTROEM)
---------------------------------
  C     -4.948548    0.276053    0.437944
  C     -6.367747   -0.151203    0.145941
  C     -6.969560    0.635680   -1.024635
  H     -6.998349    0.045831    1.029704
  H     -6.412832   -1.225576   -0.063443
  C     -4.770898    1.737281    0.575704
  C     -5.413527    2.552104   -0.523858
  C     -6.870930    2.134063   -0.762360
  H     -4.848481    2.386531   -1.453784
  H     -5.350951    3.619945   -0.289405
  H     -7.290833    2.686474   -1.611134
  H     -7.474247    2.376759    0.125500
  O     -8.318869    0.227179   -1.284858
  H     -6.417494    0.389551   -1.942574
  C     -3.950171   -0.635739    0.511742
  C     -4.137178    2.307267    1.607014
  H     -3.703816    1.710668    2.404909
  H     -4.047810    3.388550    1.680084
  C     -2.543519   -0.356937    0.686241
  H     -4.241220   -1.677515    0.384530
  C     -1.559012   -1.268794    0.838441
  H     -2.263234    0.693910    0.681652
  C     -1.748743   -2.762388    0.917303
  C     -0.848250   -3.507248   -0.085555
  H     -2.791575   -3.057072    0.771930
  H     -1.468688   -3.083370    1.933578
  C      0.621196   -3.072255    0.001014
  H     -1.225552   -3.335954   -1.101614
  H     -0.922384   -4.586425    0.096375
  C      0.776062   -1.551113   -0.137178
  H      1.193147   -3.603548   -0.766371
  H      1.032575   -3.375905    0.975515
  C     -0.114939   -0.890614    0.962532
  H      0.242181   -1.336574    1.909450
  C      0.316671    0.572084    0.965216
  H     -8.842584    0.433533   -0.499093
  C      1.837087    0.502659    0.678484
  H      0.085410    1.068417    1.913534
  H     -0.197055    1.130255    0.174663
  C      2.159171   -0.965722    0.264747
  H      2.427631    0.797143    1.551702
  H      2.107954    1.192034   -0.130350
  H      2.482662   -1.518308    1.161624
  C      3.326896   -1.043239   -0.748605
  C      0.363470   -1.078069   -1.537303
  H     -0.707536   -1.224018   -1.707865
  H      0.907214   -1.633661   -2.309216
  H      0.574814   -0.014010   -1.682939
  H      3.024340   -0.456164   -1.631687
  C      3.639990   -2.466996   -1.206744
  C      4.527682   -0.346385   -0.152879
  C      5.670296   -0.915649    0.233665
  H      4.420345    0.729925   -0.004866
  H      5.816302   -1.987804    0.095381
  C      6.814026   -0.174159    0.871503
  C      8.122842   -0.487552    0.132867
  C      6.883421   -0.455538    2.398278
  H      6.611926    0.902646    0.768365
  H      5.882565   -0.213455    2.787143
  C      7.887434    0.463436    3.099019
  C      7.172230   -1.919874    2.737867
  H      8.040034   -0.195189   -0.919218
  H      8.346950   -1.559749    0.160962
  H      8.973788    0.049164    0.564184
  H      7.805252    0.361222    4.186916
  H      7.712121    1.514694    2.842755
  H      8.918511    0.214095    2.823931
  H      8.175092   -2.214373    2.407680
  H      6.448268   -2.598442    2.274755
  H      7.126130   -2.072034    3.821928
  H      4.551165   -2.484421   -1.814318
  H      2.828192   -2.871293   -1.814623
  H      3.788500   -3.137807   -0.352293

----------------------------
CARTESIAN COORDINATES (A.U.)
----------------------------
  NO LB      ZA    FRAG     MASS         X           Y           Z
   0 C     6.0000    0    12.011   -9.351400    0.521664    0.827594
   1 C     6.0000    0    12.011  -12.033297   -0.285732    0.275789
   2 C     6.0000    0    12.011  -13.170560    1.201262   -1.936279
   3 H     1.0000    0     1.008  -13.224963    0.086608    1.945858
   4 H     1.0000    0     1.008  -12.118497   -2.316003   -0.119889
   5 C     6.0000    0    12.011   -9.015691    3.282985    1.087922
   6 C     6.0000    0    12.011  -10.230083    4.822777   -0.989948
   7 C     6.0000    0    12.011  -12.984175    4.032795   -1.440651
   8 H     1.0000    0     1.008   -9.162302    4.509890   -2.747255
   9 H     1.0000    0     1.008  -10.111832    6.840705   -0.546896
  10 H     1.0000    0     1.008  -13.777678    5.076701   -3.044603
  11 H     1.0000    0     1.008  -14.124279    4.491423    0.237162
  12 O     8.0000    0    15.999  -15.720385    0.429307   -2.428030
  13 H     1.0000    0     1.008  -12.127306    0.736145   -3.670932
  14 C     6.0000    0    12.011   -7.464741   -1.201372    0.967052
  15 C     6.0000    0    12.011   -7.818133    4.360103    3.036816
  16 H     1.0000    0     1.008   -6.999198    3.232694    4.544620
  17 H     1.0000    0     1.008   -7.649251    6.403431    3.174898
  18 C     6.0000    0    12.011   -4.806555   -0.674513    1.296807
  19 H     1.0000    0     1.008   -8.014745   -3.170044    0.726657
  20 C     6.0000    0    12.011   -2.946106   -2.397673    1.584424
  21 H     1.0000    0     1.008   -4.276893    1.311299    1.288136
  22 C     6.0000    0    12.011   -3.304644   -5.220156    1.733452
  23 C     6.0000    0    12.011   -1.602960   -6.627737   -0.161676
  24 H     1.0000    0     1.008   -5.275312   -5.777029    1.458737
  25 H     1.0000    0     1.008   -2.775418   -5.826725    3.653933
  26 C     6.0000    0    12.011    1.173890   -5.805720    0.001916
  27 H     1.0000    0     1.008   -2.315957   -6.304039   -2.081748
  28 H     1.0000    0     1.008   -1.743054   -8.667088    0.182122
  29 C     6.0000    0    12.011    1.466545   -2.931178   -0.259230
  30 H     1.0000    0     1.008    2.254722   -6.809719   -1.448232
  31 H     1.0000    0     1.008    1.951284   -6.379535    1.843456
  32 C     6.0000    0    12.011   -0.217204   -1.683017    1.818923
  33 H     1.0000    0     1.008    0.457656   -2.525759    3.608337
  34 C     6.0000    0    12.011    0.598422    1.081082    1.823993
  35 H     1.0000    0     1.008  -16.710061    0.819259   -0.943150
  36 C     6.0000    0    12.011    3.471592    0.949887    1.282148
  37 H     1.0000    0     1.008    0.161402    2.019015    3.616056
  38 H     1.0000    0     1.008   -0.372380    2.135872    0.330065
  39 C     6.0000    0    12.011    4.080242   -1.824950    0.500299
  40 H     1.0000    0     1.008    4.587557    1.506381    2.932291
  41 H     1.0000    0     1.008    3.983456    2.252618   -0.246326
  42 H     1.0000    0     1.008    4.691551   -2.869187    2.195150
  43 C     6.0000    0    12.011    6.286923   -1.971435   -1.414658
  44 C     6.0000    0    12.011    0.686859   -2.037256   -2.905081
  45 H     1.0000    0     1.008   -1.337050   -2.313058   -3.227398
  46 H     1.0000    0     1.008    1.714387   -3.087171   -4.363787
  47 H     1.0000    0     1.008    1.086242   -0.026475   -3.180293
  48 H     1.0000    0     1.008    5.715174   -0.862025   -3.083441
  49 C     6.0000    0    12.011    6.878585   -4.661947   -2.280415
  50 C     6.0000    0    12.011    8.556080   -0.654573   -0.288899
  51 C     6.0000    0    12.011   10.715307   -1.730326    0.441563
  52 H     1.0000    0     1.008    8.353242    1.379358   -0.009196
  53 H     1.0000    0     1.008   10.991219   -3.756406    0.180244
  54 C     6.0000    0    12.011   12.876643   -0.329113    1.646903
  55 C     6.0000    0    12.011   15.349947   -0.921340    0.251082
  56 C     6.0000    0    12.011   13.007780   -0.860841    4.532089
  57 H     1.0000    0     1.008   12.494730    1.705754    1.451999
  58 H     1.0000    0     1.008   11.116436   -0.403372    5.266936
  59 C     6.0000    0    12.011   14.905090    0.875768    5.856297
  60 C     6.0000    0    12.011   13.553550   -3.628036    5.173819
  61 H     1.0000    0     1.008   15.193462   -0.368854   -1.737071
  62 H     1.0000    0     1.008   15.773449   -2.947499    0.304175
  63 H     1.0000    0     1.008   16.958001    0.092907    1.066153
  64 H     1.0000    0     1.008   14.749789    0.682612    7.912124
  65 H     1.0000    0     1.008   14.573796    2.862358    5.372029
  66 H     1.0000    0     1.008   16.853544    0.404581    5.336457
  67 H     1.0000    0     1.008   15.448684   -4.184558    4.549855
  68 H     1.0000    0     1.008   12.185460   -4.910344    4.298664
  69 H     1.0000    0     1.008   13.466435   -3.915577    7.222398
  70 H     1.0000    0     1.008    8.600455   -4.694875   -3.428565
  71 H     1.0000    0     1.008    5.344508   -5.425958   -3.429140
  72 H     1.0000    0     1.008    7.159228   -5.929597   -0.665738

--------------------------------
INTERNAL COORDINATES (ANGSTROEM)
--------------------------------
 C      0   0   0     0.000000000000     0.00000000     0.00000000
 C      1   0   0     1.510608272752     0.00000000     0.00000000
 C      2   1   0     1.533496869105   111.78470434     0.00000000
 H      2   1   3     1.103412133330   109.36543402   241.46135576
 H      2   1   3     1.095514659565   110.67021595   122.92096160
 C      1   2   3     1.478419849254   114.23313344    50.27179211
 C      6   1   2     1.511933400111   114.44511507   312.17202824
 C      3   2   1     1.524358093015   110.34407100   305.13628712
 H      7   6   1     1.100660890203   108.37116668   290.04605499
 H      7   6   1     1.095065635327   110.21456008   172.84137804
 H      8   3   2     1.096309832844   109.71284162   179.20184155
 H      8   3   2     1.100539997587   108.66908447   296.67744760
 O      3   2   1     1.433605497528   111.20546370   180.40871108
 H      3   2   1     1.099076110770   108.99565981    65.22627620
 C      1   2   3     1.354092667073   120.84864347   232.42190513
 C      6   1   2     1.337940704919   123.35355984   129.92278403
 H     16   6   1     1.086448549695   121.40523992     0.68040161
 H     16   6   1     1.087427282497   120.95281781   181.35040713
 C     15   1   2     1.444593035424   126.48166979   175.19931908
 H     15   1   2     1.089123730748   116.14788563   357.91749647
 C     19  15   1     1.350519254708   126.38024428   175.81237996
 H     19  15   1     1.087593343227   115.90682742   355.09686584
 C     21  19  15     1.507659977063   125.66515008   357.08427032
 C     23  21  19     1.539944267032   111.80984809   127.85246883
 H     23  21  19     1.093376515169   112.33835040     3.70934719
 H     23  21  19     1.101941466798   107.74783849   246.53150184
 C     24  23  21     1.534921443535   112.70622527    50.76721954
 H     24  23  21     1.097302626474   109.05291639   288.68180916
 H     24  23  21     1.096913542022   109.16811267   172.70196113
 C     27  24  23     1.535237577457   111.85692412   306.17384975
 H     27  24  23     1.094660030467   108.85168615   182.62713182
 H     27  24  23     1.100494537210   109.24534285    66.17197847
 C     21  19  15     1.497920379475   122.79598304   177.62867752
 H     33  21  19     1.105923846724   106.28595921   124.09159240
 C     33  21  19     1.525051096268   121.00636167     1.89850752
 H     13   3   2     0.966584184924   107.55178023    62.71798346
 C     35  33  21     1.548773743590   103.56290973   196.48920420
 H     35  33  21     1.095050744306   112.11546473    74.56325099
 H     35  33  21     1.095647327450   110.77173829   314.91858648
 C     30  27  24     1.554739920052   116.07400990   166.11843221
 H     37  35  33     1.094519138723   111.70970747   248.88142552
 H     37  35  33     1.096731205984   110.53711822   130.33385445
 H     40  30  27     1.101991428511   106.42380528   320.49442783
 C     40  30  27     1.548054670160   118.87952105    80.71657146
 C     30  27  24     1.534389176359   111.12942030   294.26132100
 H     45  30  27     1.094279285350   111.36378624    66.37175150
 H     45  30  27     1.095532067654   110.67923866   306.27227398
 H     45  30  27     1.094576981836   111.66560802   186.34403287
 H     44  40  30     1.102737600186   106.89314567    62.18198863
 C     44  40  30     1.528071807321   113.42004860   303.03372117
 C     44  40  30     1.510755434003   108.56200901   177.00395147
 C     51  44  40     1.333808362920   126.74844792   112.23217019
 H     51  44  40     1.091728533801   115.47150758   294.07917324
 H     52  51  44     1.090851346384   119.82835429     2.30017740
 C     52  51  44     1.504913010193   124.30496405   182.49484115
 C     55  52  51     1.535186651857   110.08569629   231.35631479
 C     55  52  51     1.554037086019   111.16943043   104.79612863
 H     55  52  51     1.100450478086   107.62750747   348.99546733
 H     57  55  52     1.100696356873   105.46593807   306.07778156
 C     57  55  52     1.530879744550   111.73428832   189.44256098
 C     57  55  52     1.530690023608   113.55323236    63.73840833
 H     56  55  52     1.095087113850   110.07660871    59.25049703
 H     56  55  52     1.095728614705   111.21010301   300.17322448
 H     56  55  52     1.094626488625   111.90559644   179.15921063
 H     60  57  55     1.095774151675   110.44232849   170.96032021
 H     60  57  55     1.096152150054   111.33387913    50.94333146
 H     60  57  55     1.095885520383   111.44291312   290.21613874
 H     61  57  55     1.096122603046   111.27367383    65.70700600
 H     61  57  55     1.095010942965   111.97829178   304.57344902
 H     61  57  55     1.095658245635   110.14652408   184.71142168
 H     50  44  40     1.095303510122   110.58418775   187.50386355
 H     50  44  40     1.091782782774   111.07624030    67.99618430
 H     50  44  40     1.096416405506   111.35584592   307.65355908

---------------------------
INTERNAL COORDINATES (A.U.)
---------------------------
 C      0   0   0     0.000000000000     0.00000000     0.00000000
 C      1   0   0     2.854635931136     0.00000000     0.00000000
 C      2   1   0     2.897889109835   111.78470434     0.00000000
 H      2   1   3     2.085146744839   109.36543402   241.46135576
 H      2   1   3     2.070222682275   110.67021595   122.92096160
 C      1   2   3     2.793808626043   114.23313344    50.27179211
 C      6   1   2     2.857140058938   114.44511507   312.17202824
 C      3   2   1     2.880619325825   110.34407100   305.13628712
 H      7   6   1     2.079947648802   108.37116668   290.04605499
 H      7   6   1     2.069374149437   110.21456008   172.84137804
 H      8   3   2     2.071725341999   109.71284162   179.20184155
 H      8   3   2     2.079719194867   108.66908447   296.67744760
 O      3   2   1     2.709121774412   111.20546370   180.40871108
 H      3   2   1     2.076952849691   108.99565981    65.22627620
 C      1   2   3     2.558864300718   120.84864347   232.42190513
 C      6   1   2     2.528341515723   123.35355984   129.92278403
 H     16   6   1     2.053090217520   121.40523992     0.68040161
 H     16   6   1     2.054939754473   120.95281781   181.35040713
 C     15   1   2     2.729885211921   126.48166979   175.19931908
 H     15   1   2     2.058145577068   116.14788563   357.91749647
 C     19  15   1     2.552111529986   126.38024428   175.81237996
 H     19  15   1     2.055253563776   115.90682742   355.09686584
 C     21  19  15     2.849064459723   125.66515008   357.08427032
 C     23  21  19     2.910072926192   111.80984809   127.85246883
 H     23  21  19     2.066182174931   112.33835040     3.70934719
 H     23  21  19     2.082367587859   107.74783849   246.53150184
 C     24  23  21     2.900581165364   112.70622527    50.76721954
 H     24  23  21     2.073601450069   109.05291639   288.68180916
 H     24  23  21     2.072866187012   109.16811267   172.70196113
 C     27  24  23     2.901178571898   111.85692412   306.17384975
 H     27  24  23     2.068607667332   108.85168615   182.62713182
 H     27  24  23     2.079633287203   109.24534285    66.17197847
 C     21  19  15     2.830659287628   122.79598304   177.62867752
 H     33  21  19     2.089893195281   106.28595921   124.09159240
 C     33  21  19     2.881928912183   121.00636167     1.89850752
 H     13   3   2     1.826579394886   107.55178023    62.71798346
 C     35  33  21     2.926758218792   103.56290973   196.48920420
 H     35  33  21     2.069346009485   112.11546473    74.56325099
 H     35  33  21     2.070473388244   110.77173829   314.91858648
 C     30  27  24     2.938032658372   116.07400990   166.11843221
 H     37  35  33     2.068341420521   111.70970747   248.88142552
 H     37  35  33     2.072521621834   110.53711822   130.33385445
 H     40  30  27     2.082462001815   106.42380528   320.49442783
 C     40  30  27     2.925399366940   118.87952105    80.71657146
 C     30  27  24     2.899575326172   111.12942030   294.26132100
 H     45  30  27     2.067888163335   111.36378624    66.37175150
 H     45  30  27     2.070255578795   110.67923866   306.27227398
 H     45  30  27     2.068450728164   111.66560802   186.34403287
 H     44  40  30     2.083872061928   106.89314567    62.18198863
 C     44  40  30     2.887637228802   113.42004860   303.03372117
 C     44  40  30     2.854914025599   108.56200901   177.00395147
 C     51  44  40     2.520532521052   126.74844792   112.23217019
 H     51  44  40     2.063067941472   115.47150758   294.07917324
 H     52  51  44     2.061410297485   119.82835429     2.30017740
 C     52  51  44     2.843873444640   124.30496405   182.49484115
 C     55  52  51     2.901082336461   110.08569629   231.35631479
 C     55  52  51     2.936704494534   111.16943043   104.79612863
 H     55  52  51     2.079550027525   107.62750747   348.99546733
 H     57  55  52     2.080014671095   105.46593807   306.07778156
 C     57  55  52     2.892943461167   111.73428832   189.44256098
 C     57  55  52     2.892584940544   113.55323236    63.73840833
 H     56  55  52     2.069414737963   110.07660871    59.25049703
 H     56  55  52     2.070626998893   111.21010301   300.17322448
 H     56  55  52     2.068544282437   111.90559644   179.15921063
 H     60  57  55     2.070713051296   110.44232849   170.96032021
 H     60  57  55     2.071427364712   111.33387913    50.94333146
 H     60  57  55     2.070923507653   111.44291312   290.21613874
 H     61  57  55     2.071371528959   111.27367383    65.70700600
 H     61  57  55     2.069270795850   111.97829178   304.57344902
 H     61  57  55     2.070494020623   110.14652408   184.71142168
 H     50  44  40     2.069823667653   110.58418775   187.50386355
 H     50  44  40     2.063170457172   111.07624030    67.99618430
 H     50  44  40     2.071926735144   111.35584592   307.65355908

---------------------
BASIS SET INFORMATION
---------------------
There are 3 groups of distinct atoms

 Group   1 Type C   : 7s4p1d contracted to 3s2p1d pattern {511/31/1}
 Group   2 Type H   : 4s1p contracted to 2s1p pattern {31/1}
 Group   3 Type O   : 7s4p1d contracted to 3s2p1d pattern {511/31/1}

Atom   0C    basis set group =>   1
Atom   1C    basis set group =>   1
Atom   2C    basis set group =>   1
Atom   3H    basis set group =>   2
Atom   4H    basis set group =>   2
Atom   5C    basis set group =>   1
Atom   6C    basis set group =>   1
Atom   7C    basis set group =>   1
Atom   8H    basis set group =>   2
Atom   9H    basis set group =>   2
Atom  10H    basis set group =>   2
Atom  11H    basis set group =>   2
Atom  12O    basis set group =>   3
Atom  13H    basis set group =>   2
Atom  14C    basis set group =>   1
Atom  15C    basis set group =>   1
Atom  16H    basis set group =>   2
Atom  17H    basis set group =>   2
Atom  18C    basis set group =>   1
Atom  19H    basis set group =>   2
Atom  20C    basis set group =>   1
Atom  21H    basis set group =>   2
Atom  22C    basis set group =>   1
Atom  23C    basis set group =>   1
Atom  24H    basis set group =>   2
Atom  25H    basis set group =>   2
Atom  26C    basis set group =>   1
Atom  27H    basis set group =>   2
Atom  28H    basis set group =>   2
Atom  29C    basis set group =>   1
Atom  30H    basis set group =>   2
Atom  31H    basis set group =>   2
Atom  32C    basis set group =>   1
Atom  33H    basis set group =>   2
Atom  34C    basis set group =>   1
Atom  35H    basis set group =>   2
Atom  36C    basis set group =>   1
Atom  37H    basis set group =>   2
Atom  38H    basis set group =>   2
Atom  39C    basis set group =>   1
Atom  40H    basis set group =>   2
Atom  41H    basis set group =>   2
Atom  42H    basis set group =>   2
Atom  43C    basis set group =>   1
Atom  44C    basis set group =>   1
Atom  45H    basis set group =>   2
Atom  46H    basis set group =>   2
Atom  47H    basis set group =>   2
Atom  48H    basis set group =>   2
Atom  49C    basis set group =>   1
Atom  50C    basis set group =>   1
Atom  51C    basis set group =>   1
Atom  52H    basis set group =>   2
Atom  53H    basis set group =>   2
Atom  54C    basis set group =>   1
Atom  55C    basis set group =>   1
Atom  56C    basis set group =>   1
Atom  57H    basis set group =>   2
Atom  58H    basis set group =>   2
Atom  59C    basis set group =>   1
Atom  60C    basis set group =>   1
Atom  61H    basis set group =>   2
Atom  62H    basis set group =>   2
Atom  63H    basis set group =>   2
Atom  64H    basis set group =>   2
Atom  65H    basis set group =>   2
Atom  66H    basis set group =>   2
Atom  67H    basis set group =>   2
Atom  68H    basis set group =>   2
Atom  69H    basis set group =>   2
Atom  70H    basis set group =>   2
Atom  71H    basis set group =>   2
Atom  72H    basis set group =>   2

-------------------------
BASIS SET IN INPUT FORMAT
-------------------------

 # Basis set for element : H 
 NewGTO H 
 S 3 
   1      13.0107010000      0.0334854848
   2       1.9622572000      0.2347218709
   3       0.4445379600      0.8137702853
 S 1 
   1       0.1219496200      1.0000000000
 P 1 
   1       0.8000000000      1.0000000000
  end;

 # Basis set for element : C 
 NewGTO C 
 S 5 
   1    1238.4016938000      0.0055173650
   2     186.2900499200      0.0410888285
   3      42.2511763460      0.1822538213
   4      11.6765579320      0.4682845944
   5       3.5930506482      0.4457581734
 S 1 
   1       0.4024514736      1.0000000000
 S 1 
   1       0.1309018267      1.0000000000
 P 3 
   1       9.4680970621      0.0568883320
   2       2.0103545142      0.3129405934
   3       0.5477100471      0.7606501651
 P 1 
   1       0.1526861379      1.0000000000
 D 1 
   1       0.8000000000      1.0000000000
  end;

 # Basis set for element : O 
 NewGTO O 
 S 5 
   1    2266.1767785000     -0.0053893504
   2     340.8701019100     -0.0402347214
   3      77.3631351670     -0.1800818421
   4      21.4796449400     -0.4682885766
   5       6.6589433124     -0.4469261716
 S 1 
   1       0.8097597567      1.0000000000
 S 1 
   1       0.2553077223      1.0000000000
 P 3 
   1      17.7215043170      0.0626302488
   2       3.8635505440      0.3333113849
   3       1.0480920883      0.7414863830
 P 1 
   1       0.2764154441      1.0000000000
 D 1 
   1       1.2000000000      1.0000000000
  end;

---------------------------------
AUXILIARY/J BASIS SET INFORMATION
---------------------------------
There are 3 groups of distinct atoms

 Group   1 Type C   : 12s5p4d2f1g contracted to 6s4p3d1f1g pattern {711111/2111/211/2/1}
 Group   2 Type H   : 5s2p1d contracted to 3s1p1d pattern {311/2/1}
 Group   3 Type O   : 12s5p4d2f1g contracted to 6s4p3d1f1g pattern {711111/2111/211/2/1}

Atom   0C    basis set group =>   1
Atom   1C    basis set group =>   1
Atom   2C    basis set group =>   1
Atom   3H    basis set group =>   2
Atom   4H    basis set group =>   2
Atom   5C    basis set group =>   1
Atom   6C    basis set group =>   1
Atom   7C    basis set group =>   1
Atom   8H    basis set group =>   2
Atom   9H    basis set group =>   2
Atom  10H    basis set group =>   2
Atom  11H    basis set group =>   2
Atom  12O    basis set group =>   3
Atom  13H    basis set group =>   2
Atom  14C    basis set group =>   1
Atom  15C    basis set group =>   1
Atom  16H    basis set group =>   2
Atom  17H    basis set group =>   2
Atom  18C    basis set group =>   1
Atom  19H    basis set group =>   2
Atom  20C    basis set group =>   1
Atom  21H    basis set group =>   2
Atom  22C    basis set group =>   1
Atom  23C    basis set group =>   1
Atom  24H    basis set group =>   2
Atom  25H    basis set group =>   2
Atom  26C    basis set group =>   1
Atom  27H    basis set group =>   2
Atom  28H    basis set group =>   2
Atom  29C    basis set group =>   1
Atom  30H    basis set group =>   2
Atom  31H    basis set group =>   2
Atom  32C    basis set group =>   1
Atom  33H    basis set group =>   2
Atom  34C    basis set group =>   1
Atom  35H    basis set group =>   2
Atom  36C    basis set group =>   1
Atom  37H    basis set group =>   2
Atom  38H    basis set group =>   2
Atom  39C    basis set group =>   1
Atom  40H    basis set group =>   2
Atom  41H    basis set group =>   2
Atom  42H    basis set group =>   2
Atom  43C    basis set group =>   1
Atom  44C    basis set group =>   1
Atom  45H    basis set group =>   2
Atom  46H    basis set group =>   2
Atom  47H    basis set group =>   2
Atom  48H    basis set group =>   2
Atom  49C    basis set group =>   1
Atom  50C    basis set group =>   1
Atom  51C    basis set group =>   1
Atom  52H    basis set group =>   2
Atom  53H    basis set group =>   2
Atom  54C    basis set group =>   1
Atom  55C    basis set group =>   1
Atom  56C    basis set group =>   1
Atom  57H    basis set group =>   2
Atom  58H    basis set group =>   2
Atom  59C    basis set group =>   1
Atom  60C    basis set group =>   1
Atom  61H    basis set group =>   2
Atom  62H    basis set group =>   2
Atom  63H    basis set group =>   2
Atom  64H    basis set group =>   2
Atom  65H    basis set group =>   2
Atom  66H    basis set group =>   2
Atom  67H    basis set group =>   2
Atom  68H    basis set group =>   2
Atom  69H    basis set group =>   2
Atom  70H    basis set group =>   2
Atom  71H    basis set group =>   2
Atom  72H    basis set group =>   2

-------------------------------------
AUXILIARY/J BASIS SET IN INPUT FORMAT
-------------------------------------

 # Auxiliary/J basis set for element : H 
 NewAuxJGTO H 
 S 3 
   1      15.6752927000      0.1007184237
   2       3.6063578000      0.3404257499
   3       1.2080016000      0.6491996172
 S 1 
   1       0.4726794000      1.0000000000
 S 1 
   1       0.2018100000      1.0000000000
 P 2 
   1       2.0281365000      0.5596620919
   2       0.5358730000      0.5596620919
 D 1 
   1       2.2165124000      1.0000000000
  end;

 # Auxiliary/J basis set for element : C 
 NewAuxJGTO C 
 S 7 
   1    1861.0916331000      0.0134602335
   2     642.9939764000      0.0299160374
   3     235.1105725000      0.1008649584
   4      90.7028894000      0.2370970548
   5      36.7794552000      0.3924037254
   6      15.6046273000      0.3195862154
   7       6.8907294000      0.0530104441
 S 1 
   1       3.1478850000     -1.0000000000
 S 1 
   1       1.4777287000      1.0000000000
 S 1 
   1       0.7076466000      1.0000000000
 S 1 
   1       0.3430122000      1.0000000000
 S 1 
   1       0.1669453000      1.0000000000
 P 2 
   1      13.5472892000     -0.6769313712
   2       5.4669419000     -0.3779500978
 P 1 
   1       2.1751721000      1.0000000000
 P 1 
   1       0.8582194000      1.0000000000
 P 1 
   1       0.3376720000      1.0000000000
 D 2 
   1       5.9287253000     -0.3533329857
   2       1.9809209000     -0.7456525731
 D 1 
   1       0.8055417000     -1.0000000000
 D 1 
   1       0.3531244000     -1.0000000000
 F 2 
   1       1.6755626000      0.6311076882
   2       0.5997536000      0.4968166032
 G 1 
   1       1.0024600000     -1.0000000000
  end;

 # Auxiliary/J basis set for element : O 
 NewAuxJGTO O 
 S 7 
   1    2876.8216605000      0.0168151159
   2    1004.7443032000      0.0340137548
   3     369.7579954000      0.1194951309
   4     142.9442404000      0.2664627624
   5      57.8366425000      0.4202764046
   6      24.3864983000      0.2765077335
   7      10.6622662000      0.0057008815
 S 1 
   1       4.8070437000     -1.0000000000
 S 1 
   1       2.2210770000      1.0000000000
 S 1 
   1       1.0447795000      1.0000000000
 S 1 
   1       0.4968425000      1.0000000000
 S 1 
   1       0.2371384000      1.0000000000
 P 2 
   1      64.2613382000     -0.2731534179
   2      16.3006076000     -0.8168011598
 P 1 
   1       4.3550542000      1.0000000000
 P 1 
   1       1.2019554000      1.0000000000
 P 1 
   1       0.3354196000      1.0000000000
 D 2 
   1       9.2146611000     -0.4661230638
   2       2.8435251000     -0.6600908911
 D 1 
   1       0.9955759000     -1.0000000000
 D 1 
   1       0.3649441000     -1.0000000000
 F 2 
   1       2.6420115000      0.5931563945
   2       0.7345613000      0.5931563945
 G 1 
   1       1.3931000000     -1.0000000000
  end;


Checking for AutoStart:
The File: inpS.gbw exists
Trying to determine its content:
     ... Fine, the file contains calculation information
     ... Fine, the calculation information was read
     ... Fine, the file contains a basis set
     ... Fine, the basis set was read
     ... Fine, the file contains a geometry
     ... Fine, the geometry was read
     ... Fine, the file contains a set of orbitals
     ... Fine, the orbitals can be read
     => possible old guess file was deleted
     => GBW file was renamed to GES file
     => GES file is set as startup file
     => Guess is set to MORead
     ... now leaving AutoStart



           ************************************************************
           *        Program running with 4 parallel MPI-processes     *
           *              working on a common directory               *
           ************************************************************
------------------------------------------------------------------------------
                             ORCA STARTUP CALCULATIONS
                           -- RI-GTO INTEGRALS CHOSEN --
------------------------------------------------------------------------------
------------------------------------------------------------------------------
                   ___                                                        
                  /   \      - P O W E R E D   B Y -                         
                 /     \                                                     
                 |  |  |   _    _      __       _____    __    __             
                 |  |  |  | |  | |    /  \     |  _  \  |  |  /  |          
                  \  \/   | |  | |   /    \    | | | |  |  | /  /          
                 / \  \   | |__| |  /  /\  \   | |_| |  |  |/  /          
                |  |  |   |  __  | /  /__\  \  |    /   |      \           
                |  |  |   | |  | | |   __   |  |    \   |  |\   \          
                \     /   | |  | | |  |  |  |  | |\  \  |  | \   \       
                 \___/    |_|  |_| |__|  |__|  |_| \__\ |__|  \__/        
                                                                              
                      - O R C A' S   B I G   F R I E N D -                    
                                      &                                       
                       - I N T E G R A L  F E E D E R -                       
                                                                              
 v1 FN, 2020, v2 2021, v3 2022-2024                                           
------------------------------------------------------------------------------


----------------------
SHARK INTEGRAL PACKAGE
----------------------

Number of atoms                             ...     73
Number of basis functions                   ...    626
Number of shells                            ...    306
Maximum angular momentum                    ...      2
Integral batch strategy                     ... SHARK/LIBINT Hybrid
RI-J (if used) integral strategy            ... SPLIT-RIJ (Revised 2003 algorithm where possible)
Printlevel                                  ...      1
Contraction scheme used                     ... SEGMENTED contraction
Prescreening option                         ... SCHWARTZ
   Thresh                                   ... 3.000e-11
   Tcut                                     ... 1.000e-12
   Tpresel                                  ... 1.000e-12 
Coulomb Range Separation                    ... NOT USED
Exchange Range Separation                   ... Long Range
   Mu parameter                             ... 3.000e-01
   Scaling (regular/separated)              ... 1.670e-01 8.330e-01
Multipole approximations                    ... NOT USED
Finite Nucleus Model                        ... NOT USED
CABS basis                                  ... NOT available
Auxiliary Coulomb fitting basis             ... AVAILABLE
   # of basis functions in Aux-J            ...   1905
   # of shells in Aux-J                     ...    655
   Maximum angular momentum in Aux-J        ...      4
Auxiliary J/K fitting basis                 ... NOT available
Auxiliary Correlation fitting basis         ... NOT available
Auxiliary 'external' fitting basis          ... NOT available

Checking pre-screening integrals            ... done (  0.0 sec) Dimension = 306
Check shell pair data                       ... done (  0.0 sec)
Shell pair information
Shell pair cut-off parameter TPreSel        ...   1.0e-12
Total number of shell pairs                 ...     46971
Shell pairs after pre-screening             ...     27137
Total number of primitive shell pairs       ...    162105
Primitive shell pairs kept                  ...     59873
          la=0 lb=0:   9504 shell pairs
          la=1 lb=0:  10405 shell pairs
          la=1 lb=1:   2878 shell pairs
          la=2 lb=0:   2703 shell pairs
          la=2 lb=1:   1455 shell pairs
          la=2 lb=2:    192 shell pairs

Calculating one electron integrals          ... done (  0.1 sec)
Calculating RI/J V-Matrix + Cholesky decomp.... done (  0.2 sec)
Calculating Nuclear repulsion               ... done (  0.0 sec) ENN=   2751.536397279427 Eh

Diagonalization of the overlap matrix:
Smallest eigenvalue                        ... 4.467e-04
Time for diagonalization                   ...    0.046 sec
Threshold for overlap eigenvalues          ... 1.000e-07
Number of eigenvalues below threshold      ... 0
Time for construction of square roots      ...    0.025 sec
Total time needed                          ...    0.074 sec

-------------------
DFT GRID GENERATION
-------------------

General Integration Accuracy     IntAcc      ... 4.388
Radial Grid Type                 RadialGrid  ... OptM3 with GC (2021)
Angular Grid (max. ang.)         AngularGrid ... 4 (Lebedev-302)
Angular grid pruning method      GridPruning ... 4 (adaptive)
Weight generation scheme         WeightScheme... mBecke (2022)
Basis function cutoff            BFCut       ... 1.0000e-11
Integration weight cutoff        WCut        ... 1.0000e-14
Partially contracted basis set               ... off
Rotationally invariant grid construction     ... off
Angular grids for H and He will be reduced by one unit

Total number of grid points                  ...   309938
Total number of batches                      ...     4876
Average number of points per batch           ...       63
Average number of grid points per atom       ...     4246

--------------------
COSX GRID GENERATION
--------------------

GRIDX 1
-------
General Integration Accuracy     IntAcc      ... 3.816
Radial Grid Type                 RadialGrid  ... OptM3 with GC (2021)
Angular Grid (max. ang.)         AngularGrid ... 1 (Lebedev-50)
Angular grid pruning method      GridPruning ... 4 (adaptive)
Weight generation scheme         WeightScheme... mBecke (2022)
Basis function cutoff            BFCut       ... 1.0000e-11
Integration weight cutoff        WCut        ... 1.0000e-14
Partially contracted basis set               ... on
Rotationally invariant grid construction     ... off
Angular grids for H and He will be reduced by one unit

Total number of grid points                  ...    39431
Total number of batches                      ...      353
Average number of points per batch           ...      111
Average number of grid points per atom       ...      540
UseSFitting                                  ... on

GRIDX 2
-------
General Integration Accuracy     IntAcc      ... 4.020
Radial Grid Type                 RadialGrid  ... OptM3 with GC (2021)
Angular Grid (max. ang.)         AngularGrid ... 2 (Lebedev-110)
Angular grid pruning method      GridPruning ... 4 (adaptive)
Weight generation scheme         WeightScheme... mBecke (2022)
Basis function cutoff            BFCut       ... 1.0000e-11
Integration weight cutoff        WCut        ... 1.0000e-14
Partially contracted basis set               ... on
Rotationally invariant grid construction     ... off
Angular grids for H and He will be reduced by one unit

Total number of grid points                  ...    81479
Total number of batches                      ...      677
Average number of points per batch           ...      120
Average number of grid points per atom       ...     1116
UseSFitting                                  ... on

GRIDX 3
-------
General Integration Accuracy     IntAcc      ... 4.338
Radial Grid Type                 RadialGrid  ... OptM3 with GC (2021)
Angular Grid (max. ang.)         AngularGrid ... 3 (Lebedev-194)
Angular grid pruning method      GridPruning ... 4 (adaptive)
Weight generation scheme         WeightScheme... mBecke (2022)
Basis function cutoff            BFCut       ... 1.0000e-11
Integration weight cutoff        WCut        ... 1.0000e-14
Partially contracted basis set               ... on
Rotationally invariant grid construction     ... off
Angular grids for H and He will be reduced by one unit

Total number of grid points                  ...   176472
Total number of batches                      ...     1420
Average number of points per batch           ...      124
Average number of grid points per atom       ...     2417
UseSFitting                                  ... on
Initializing property integral containers    ... done (  0.0 sec)

SHARK setup successfully completed in   4.5 seconds

Maximum memory used throughout the entire STARTUP-calculation: 95.1 MB


           ************************************************************
           *        Program running with 4 parallel MPI-processes     *
           *              working on a common directory               *
           ************************************************************
-------------------------------------------------------------------------------
                                 ORCA GUESS
                   Start orbitals & Density for SCF / CASSCF
-------------------------------------------------------------------------------

------------
SCF SETTINGS
------------
Hamiltonian:
 Density Functional     Method          .... DFT(GTOs)
 Exchange Functional    Exchange        .... WB97X-V
 Correlation Functional Correlation     .... WB97X-V
 Gradients option       PostSCFGGA      .... off
 Hybrid DFT is turned on
   Fraction HF Exchange ScalHFX         ....  0.167000
   Scaling of DF-GGA-X  ScalDFX         ....  0.000000
   Scaling of DF-GGA-C  ScalDFC         ....  1.000000
   Scaling of DF-LDA-C  ScalLDAC        ....  1.000000
   Perturbative correction              ....  0.000000
 Long-range corrected/Screened/Range-Separated Hybrid DFT is turned on
   Amount of maximum screened exact exchange              ....  0.833000
   Range separation parameter mu (erf(mu*r12)/r12)        ....  0.300000
 RI-approximation to the Coulomb term is turned on
   Number of AuxJ basis functions       .... 1905
   RIJ-COSX (HFX calculated with COS-X)).... on


General Settings:
 Integral files         IntName         .... inpS
 Hartree-Fock type      HFTyp           .... RHF
 Total Charge           Charge          ....    0
 Multiplicity           Mult            ....    1
 Number of Electrons    NEL             ....  220
 Basis Dimension        Dim             ....  626
 Nuclear Repulsion      ENuc            ....   2751.5363972794 Eh

Convergence Acceleration:
 AO-DIIS                CNVDIIS         .... on
   Start iteration      DIISMaxIt       ....    12
   Startup error        DIISStart       ....  0.200000
   # of expansion vecs  DIISMaxEq       ....     5
   Bias factor          DIISBfac        ....   1.050
   Max. coefficient     DIISMaxC        ....  10.000
 MO-DIIS                CNVKDIIS        .... off
 Trust-Rad. Augm. Hess. CNVTRAH         .... auto
   Auto Start mean grad. ratio tolernc. ....  1.125000
   Auto Start start iteration           ....     1
   Auto Start num. interpolation iter.  ....    10
   Max. Number of Micro iterations      ....    24
   Max. Number of Macro iterations      .... Maxiter - #DIIS iter
   Number of Davidson start vectors     ....     2
   Converg. threshold    (grad. norm)   ....   1.000e-04
   Grad. Scal. Fac. for Micro threshold ....   0.100
   Minimum threshold for Micro iter.    ....   1.000e-02
   NR start threshold (gradient norm)   ....   1.000e-04
   Initial trust radius                 ....   0.400
   Minimum AH scaling param. (alpha)    ....   1.000
   Maximum AH scaling param. (alpha)    .... 1000.000
   Quad. conv. algorithm                .... NR
   White noise on init. David. guess    .... on
   Maximum white noise                  ....   0.010
   Pseudo random numbers                .... off
   Inactive MOs                         .... canonical
   Orbital update algorithm             .... Taylor
   Preconditioner                       .... Diag
   Full preconditioner red. dimension   ....   250
 SOSCF                  CNVSOSCF        .... off
 Level Shifting         CNVShift        .... on
   Level shift para.    LevelShift      ....    0.2500
   Turn off err/grad.   ShiftErr        ....    0.0010
 Zerner damping         CNVZerner       .... off
 Static damping         CNVDamp         .... on
   Fraction old density DampFac         ....    0.7000
   Max. Damping (<1)    DampMax         ....    0.9800
   Min. Damping (>=0)   DampMin         ....    0.0000
   Turn off err/grad.   DampErr         ....    0.1000

SCF Procedure:
 Maximum # iterations   MaxIter         ....   125
 SCF integral mode      SCFMode         .... Direct
   Integral package                     .... SHARK and LIBINT hybrid scheme
 Reset frequency        DirectResetFreq ....    20
 Integral Threshold     Thresh          ....  3.000e-11 Eh
 Primitive CutOff       TCut            ....  1.000e-12 Eh

Convergence Tolerance:
 Convergence Check Mode ConvCheckMode   .... Total+1el-Energy
 Convergence forced     ConvForced      .... 0
 Energy Change          TolE            ....  1.000e-07 Eh
 1-El. energy change                    ....  1.000e-04 Eh
 DIIS Error             TolErr          ....  1.000e-07

---------------------
INITIAL GUESS: MOREAD
---------------------
Guess MOs are being read from file: inpS.ges
Input Geometry matches current geometry (good)
Input basis set matches current basis set (good)
Occupation numbers will be reassigned to an Aufbau configuration
MOs were renormalized
MOs were reorthogonalized (Cholesky)
                      ------------------
                      INITIAL GUESS DONE (   0.2 sec)
                      ------------------
             **** ENERGY FILE WAS UPDATED (inpS.en.tmp) ****
Finished Guess after   0.4 sec
Maximum memory used throughout the entire GUESS-calculation: 52.0 MB


           ************************************************************
           *        Program running with 4 parallel MPI-processes     *
           *              working on a common directory               *
           ************************************************************

-------------------------------------------------------------------------------------------
                                      ORCA LEAN-SCF
                              memory conserving SCF solver
-------------------------------------------------------------------------------------------

--------------------
CPCM SOLVATION MODEL
--------------------
CPCM parameters:
  Epsilon                                         ...       4.8030
  Refrac                                          ...       1.4459
  Rsolv                                           ...       1.3000
  Surface type                                    ... GAUSSIAN VDW
  Discretization scheme                           ... Constant charge density
    Threshold for H atoms                         ...       5.0000 (charges/Ang^2)
    Threshold for non-H atoms                     ...       5.0000 (charges/Ang^2)
  Epsilon function type                           ...         CPCM
Solvent:                                          ... CHLOROFORM
Radii:
  Scheme                                          ... Element-dependent radii
  Radius for C  used is    3.8550 Bohr (=   2.0400 Ang.)
  Radius for H  used is    2.4944 Bohr (=   1.3200 Ang.)
  Radius for O  used is    3.4469 Bohr (=   1.8240 Ang.)
Calculating surface                               ...        done! (  0.0s)
Cavity surface points                             ...         5402
Cavity Volume                                     ...    3615.8958
Cavity Surface-area                               ...    1809.5426
Calculating surface distance matrix               ...        done! (  0.2s)
Performing Cholesky decomposition & store         ...        done! (  0.9s)
Overall time for CPCM initialization              ...                 1.2s

----------------------------------------D-I-I-S--------------------------------------------
Iteration    Energy (Eh)           Delta-E    RMSDP     MaxDP     DIISErr   Damp  Time(sec)
-------------------------------------------------------------------------------------------
               ***  Starting incremental Fock matrix formation  ***
    1    -1168.3619707491002373     0.00e+00  3.17e-08  1.71e-06  6.57e-06  0.700  23.3

  HOMO= 109 E= -7.885 eV LUMO=  8.092 eV gap=  15.976 eV
    2    -1168.3619707343086702     1.48e-08  2.73e-08  1.42e-06  3.30e-06  0.700   4.8
                 **** Energy Check signals convergence ****

  HOMO= 109 E= -7.885 eV LUMO=  8.092 eV gap=  15.976 eV

               *****************************************************
               *                     SUCCESS                       *
               *           SCF CONVERGED AFTER   2 CYCLES          *
               *****************************************************

Recomputing exchange energy using gridx3       ... done (   40.096 sec)
Old exchange energy                            :    -56.782919174 Eh
New exchange energy                            :    -56.782867186 Eh
Exchange energy change after final integration :      0.000051989 Eh
Total energy after final integration           :  -1168.361918746 Eh
             **** ENERGY FILE WAS UPDATED (inpS.en.tmp) ****

----------------
TOTAL SCF ENERGY
----------------

Total Energy       :      -1168.36191874573501 Eh          -31792.74412 eV

Components:
Nuclear Repulsion  :       2751.53639727942709 Eh           74873.11185 eV
Electronic Energy  :      -3919.88763521896362 Eh         -106665.56533 eV
One Electron Energy:      -7048.32237135975174 Eh         -191794.60237 eV
Two Electron Energy:       3128.43473614078812 Eh           85129.03705 eV
CPCM Dielectric    :         -0.01073279477209 Eh              -0.29205 eV

Virial components:
Potential Energy   :      -2321.68071436370383 Eh          -63176.14405 eV
Kinetic Energy     :       1153.31879561796882 Eh           31383.39993 eV
Virial Ratio       :          2.01304333475265

DFT components:
N(Alpha)           :      110.000167185612 electrons
N(Beta)            :      110.000167185612 electrons
N(Total)           :      220.000334371223 electrons
E(X)               :     -111.770167907953 Eh       
E(C)               :       -8.950326038764 Eh       
E(XC)              :     -120.720493946717 Eh       

CPCM Solvation Model Properties:
Surface-charge          :         -0.04176834086760
Corrected charge        :          0.00000000000000
Outlying charge corr.   :          0.00006047941645 Eh               0.00165 eV
Free-energy (cav+disp)  :  This term is not implemented in the current solvation scheme

---------------
SCF CONVERGENCE
---------------

  Last Energy change         ...   -1.4792e-08  Tolerance :   1.0000e-07
  Last MAX-Density change    ...    1.4225e-06  Tolerance :   1.0000e-05
  Last RMS-Density change    ...    2.7311e-08  Tolerance :   1.0000e-06
  Last DIIS Error            ...    3.3012e-06  Tolerance :   1.0000e-07


----------------
ORBITAL ENERGIES
----------------

  NO   OCC          E(Eh)            E(eV) 
   0   2.0000     -19.213723      -522.8320 
   1   2.0000     -10.329795      -281.0880 
   2   2.0000     -10.293514      -280.1008 
   3   2.0000     -10.290282      -280.0128 
   4   2.0000     -10.286266      -279.9035 
   5   2.0000     -10.286186      -279.9013 
   6   2.0000     -10.285161      -279.8735 
   7   2.0000     -10.283316      -279.8233 
   8   2.0000     -10.282016      -279.7879 
   9   2.0000     -10.280845      -279.7560 
  10   2.0000     -10.280768      -279.7539 
  11   2.0000     -10.280683      -279.7516 
  12   2.0000     -10.279470      -279.7186 
  13   2.0000     -10.278869      -279.7022 
  14   2.0000     -10.278467      -279.6913 
  15   2.0000     -10.277167      -279.6559 
  16   2.0000     -10.276808      -279.6462 
  17   2.0000     -10.276538      -279.6388 
  18   2.0000     -10.273823      -279.5649 
  19   2.0000     -10.272071      -279.5173 
  20   2.0000     -10.271749      -279.5085 
  21   2.0000     -10.271664      -279.5062 
  22   2.0000     -10.271591      -279.5042 
  23   2.0000     -10.271044      -279.4893 
  24   2.0000     -10.269344      -279.4431 
  25   2.0000     -10.268242      -279.4131 
  26   2.0000     -10.268221      -279.4125 
  27   2.0000     -10.267945      -279.4050 
  28   2.0000     -10.267174      -279.3840 
  29   2.0000      -1.131693       -30.7949 
  30   2.0000      -0.998429       -27.1686 
  31   2.0000      -0.979217       -26.6459 
  32   2.0000      -0.956786       -26.0355 
  33   2.0000      -0.942670       -25.6514 
  34   2.0000      -0.917834       -24.9755 
  35   2.0000      -0.911045       -24.7908 
  36   2.0000      -0.889688       -24.2096 
  37   2.0000      -0.887218       -24.1424 
  38   2.0000      -0.872068       -23.7302 
  39   2.0000      -0.853282       -23.2190 
  40   2.0000      -0.834194       -22.6996 
  41   2.0000      -0.826599       -22.4929 
  42   2.0000      -0.809298       -22.0221 
  43   2.0000      -0.801143       -21.8002 
  44   2.0000      -0.795354       -21.6427 
  45   2.0000      -0.787178       -21.4202 
  46   2.0000      -0.760523       -20.6949 
  47   2.0000      -0.757116       -20.6022 
  48   2.0000      -0.728267       -19.8172 
  49   2.0000      -0.713263       -19.4089 
  50   2.0000      -0.712279       -19.3821 
  51   2.0000      -0.701431       -19.0869 
  52   2.0000      -0.690040       -18.7769 
  53   2.0000      -0.663322       -18.0499 
  54   2.0000      -0.649618       -17.6770 
  55   2.0000      -0.639646       -17.4056 
  56   2.0000      -0.631133       -17.1740 
  57   2.0000      -0.620842       -16.8940 
  58   2.0000      -0.605075       -16.4649 
  59   2.0000      -0.601311       -16.3625 
  60   2.0000      -0.590568       -16.0702 
  61   2.0000      -0.584632       -15.9087 
  62   2.0000      -0.573679       -15.6106 
  63   2.0000      -0.567705       -15.4480 
  64   2.0000      -0.563912       -15.3448 
  65   2.0000      -0.561490       -15.2789 
  66   2.0000      -0.555120       -15.1056 
  67   2.0000      -0.548327       -14.9207 
  68   2.0000      -0.546718       -14.8770 
  69   2.0000      -0.545361       -14.8400 
  70   2.0000      -0.535982       -14.5848 
  71   2.0000      -0.531578       -14.4650 
  72   2.0000      -0.522540       -14.2190 
  73   2.0000      -0.521989       -14.2040 
  74   2.0000      -0.517997       -14.0954 
  75   2.0000      -0.505900       -13.7662 
  76   2.0000      -0.503953       -13.7133 
  77   2.0000      -0.501625       -13.6499 
  78   2.0000      -0.497716       -13.5435 
  79   2.0000      -0.491417       -13.3721 
  80   2.0000      -0.488835       -13.3019 
  81   2.0000      -0.487601       -13.2683 
  82   2.0000      -0.487147       -13.2559 
  83   2.0000      -0.476802       -12.9744 
  84   2.0000      -0.474996       -12.9253 
  85   2.0000      -0.470514       -12.8033 
  86   2.0000      -0.466748       -12.7008 
  87   2.0000      -0.462489       -12.5850 
  88   2.0000      -0.457837       -12.4584 
  89   2.0000      -0.452266       -12.3068 
  90   2.0000      -0.448422       -12.2022 
  91   2.0000      -0.447681       -12.1820 
  92   2.0000      -0.440793       -11.9946 
  93   2.0000      -0.432023       -11.7559 
  94   2.0000      -0.426296       -11.6001 
  95   2.0000      -0.424195       -11.5429 
  96   2.0000      -0.421104       -11.4588 
  97   2.0000      -0.416736       -11.3400 
  98   2.0000      -0.415121       -11.2960 
  99   2.0000      -0.413633       -11.2555 
 100   2.0000      -0.410607       -11.1732 
 101   2.0000      -0.408725       -11.1220 
 102   2.0000      -0.405889       -11.0448 
 103   2.0000      -0.400635       -10.9018 
 104   2.0000      -0.394676       -10.7397 
 105   2.0000      -0.382392       -10.4054 
 106   2.0000      -0.372404       -10.1336 
 107   2.0000      -0.357170        -9.7191 
 108   2.0000      -0.336272        -9.1504 
 109   2.0000      -0.289759        -7.8847 
 110   0.0000       0.047362         1.2888 
 111   0.0000       0.100360         2.7309 
 112   0.0000       0.110158         2.9975 
 113   0.0000       0.130932         3.5629 
 114   0.0000       0.142786         3.8854 
 115   0.0000       0.146775         3.9939 
 116   0.0000       0.152430         4.1478 
 117   0.0000       0.155660         4.2357 
 118   0.0000       0.157731         4.2921 
 119   0.0000       0.159355         4.3363 
 120   0.0000       0.167835         4.5670 
*Only the first 10 virtual orbitals were printed.

                    ********************************
                    * MULLIKEN POPULATION ANALYSIS *
                    ********************************

-----------------------
MULLIKEN ATOMIC CHARGES
-----------------------
   0 C :   -0.126929
   1 C :    0.144093
   2 C :    0.081501
   3 H :    0.016753
   4 H :    0.013315
   5 C :   -0.184275
   6 C :    0.111171
   7 C :    0.006844
   8 H :    0.029670
   9 H :    0.012206
  10 H :    0.023603
  11 H :    0.011337
  12 O :   -0.355118
  13 H :    0.014155
  14 C :   -0.024906
  15 C :   -0.044774
  16 H :    0.036382
  17 H :    0.029234
  18 C :   -0.060349
  19 H :   -0.006828
  20 C :   -0.116436
  21 H :    0.000896
  22 C :    0.115225
  23 C :   -0.001101
  24 H :    0.012579
  25 H :    0.017788
  26 C :    0.105897
  27 H :    0.012616
  28 H :    0.014944
  29 C :   -0.406717
  30 H :    0.008591
  31 H :   -0.002399
  32 C :   -0.044459
  33 H :    0.011989
  34 C :    0.120061
  35 H :    0.181725
  36 C :    0.049516
  37 H :    0.007647
  38 H :    0.015999
  39 C :   -0.050890
  40 H :    0.013008
  41 H :    0.010055
  42 H :   -0.009948
  43 C :   -0.017093
  44 C :    0.092825
  45 H :    0.023624
  46 H :    0.018866
  47 H :    0.019237
  48 H :    0.004273
  49 C :    0.060038
  50 C :   -0.065786
  51 C :   -0.066215
  52 H :    0.009239
  53 H :    0.015226
  54 C :   -0.061109
  55 C :    0.016113
  56 C :   -0.138904
  57 H :    0.003446
  58 H :    0.006062
  59 C :    0.032655
  60 C :    0.012019
  61 H :    0.020403
  62 H :    0.022020
  63 H :    0.021347
  64 H :    0.019266
  65 H :    0.016742
  66 H :    0.017945
  67 H :    0.018852
  68 H :    0.018844
  69 H :    0.018978
  70 H :    0.019949
  71 H :    0.029408
  72 H :    0.018062
Sum of atomic charges:    0.0000000

--------------------------------
MULLIKEN REDUCED ORBITAL CHARGES
--------------------------------
  0 C s       :     3.077784  s :     3.077784
      pz      :     1.004585  p :     3.006304
      px      :     0.998328
      py      :     1.003391
      dz2     :     0.003095  d :     0.042840
      dxz     :     0.007091
      dyz     :     0.005979
      dx2y2   :     0.014784
      dxy     :     0.011892

  1 C s       :     2.932426  s :     2.932426
      pz      :     0.984139  p :     2.889040
      px      :     0.936828
      py      :     0.968073
      dz2     :     0.007062  d :     0.034441
      dxz     :     0.009134
      dyz     :     0.004656
      dx2y2   :     0.009003
      dxy     :     0.004586

  2 C s       :     3.075124  s :     3.075124
      pz      :     1.047279  p :     2.772198
      px      :     0.752929
      py      :     0.971990
      dz2     :     0.011827  d :     0.071177
      dxz     :     0.015588
      dyz     :     0.009021
      dx2y2   :     0.019653
      dxy     :     0.015088

  3 H s       :     0.960057  s :     0.960057
      pz      :     0.011244  p :     0.023190
      px      :     0.007301
      py      :     0.004645

  4 H s       :     0.963890  s :     0.963890
      pz      :     0.004393  p :     0.022795
      px      :     0.003789
      py      :     0.014613

  5 C s       :     3.111745  s :     3.111745
      pz      :     1.001774  p :     3.027733
      px      :     0.976571
      py      :     1.049388
      dz2     :     0.011127  d :     0.044796
      dxz     :     0.006468
      dyz     :     0.011665
      dx2y2   :     0.008654
      dxy     :     0.006882

  6 C s       :     2.949191  s :     2.949191
      pz      :     0.978001  p :     2.904165
      px      :     0.962529
      py      :     0.963635
      dz2     :     0.007063  d :     0.035473
      dxz     :     0.009169
      dyz     :     0.004923
      dx2y2   :     0.009248
      dxy     :     0.005069

  7 C s       :     3.012982  s :     3.012982
      pz      :     0.990720  p :     2.945151
      px      :     0.988594
      py      :     0.965836
      dz2     :     0.005403  d :     0.035024
      dxz     :     0.008221
      dyz     :     0.006606
      dx2y2   :     0.009590
      dxy     :     0.005203

  8 H s       :     0.947040  s :     0.947040
      pz      :     0.011859  p :     0.023290
      px      :     0.006824
      py      :     0.004607

  9 H s       :     0.964973  s :     0.964973
      pz      :     0.004618  p :     0.022822
      px      :     0.003711
      py      :     0.014492

 10 H s       :     0.953702  s :     0.953702
      pz      :     0.010840  p :     0.022695
      px      :     0.005395
      py      :     0.006460

 11 H s       :     0.965972  s :     0.965972
      pz      :     0.011391  p :     0.022691
      px      :     0.006851
      py      :     0.004449

 12 O s       :     3.726273  s :     3.726273
      pz      :     1.518061  p :     4.616640
      px      :     1.261943
      py      :     1.836637
      dz2     :     0.002853  d :     0.012205
      dxz     :     0.003878
      dyz     :     0.001524
      dx2y2   :     0.001899
      dxy     :     0.002051

 13 H s       :     0.965622  s :     0.965622
      pz      :     0.011590  p :     0.020223
      px      :     0.004587
      py      :     0.004047

 14 C s       :     3.197005  s :     3.197005
      pz      :     0.991527  p :     2.791667
      px      :     0.885810
      py      :     0.914330
      dz2     :     0.002581  d :     0.036234
      dxz     :     0.007734
      dyz     :     0.003193
      dx2y2   :     0.012249
      dxy     :     0.010477

 15 C s       :     3.122887  s :     3.122887
      pz      :     0.980577  p :     2.895637
      px      :     0.998948
      py      :     0.916112
      dz2     :     0.006982  d :     0.026250
      dxz     :     0.004222
      dyz     :     0.006858
      dx2y2   :     0.005026
      dxy     :     0.003162

 16 H s       :     0.939072  s :     0.939072
      pz      :     0.010405  p :     0.024546
      px      :     0.006408
      py      :     0.007732

 17 H s       :     0.946141  s :     0.946141
      pz      :     0.004108  p :     0.024625
      px      :     0.004632
      py      :     0.015885

 18 C s       :     3.200919  s :     3.200919
      pz      :     1.030813  p :     2.824126
      px      :     0.876457
      py      :     0.916856
      dz2     :     0.002668  d :     0.035304
      dxz     :     0.007065
      dyz     :     0.003046
      dx2y2   :     0.012526
      dxy     :     0.009999

 19 H s       :     0.982503  s :     0.982503
      pz      :     0.004683  p :     0.024325
      px      :     0.004374
      py      :     0.015268

 20 C s       :     3.099907  s :     3.099907
      pz      :     0.955119  p :     2.972521
      px      :     0.992525
      py      :     1.024877
      dz2     :     0.003285  d :     0.044007
      dxz     :     0.007276
      dyz     :     0.006859
      dx2y2   :     0.014804
      dxy     :     0.011784

 21 H s       :     0.974584  s :     0.974584
      pz      :     0.004647  p :     0.024521
      px      :     0.004241
      py      :     0.015632

 22 C s       :     2.924113  s :     2.924113
      pz      :     1.002326  p :     2.925090
      px      :     0.975062
      py      :     0.947702
      dz2     :     0.009298  d :     0.035572
      dxz     :     0.004354
      dyz     :     0.006223
      dx2y2   :     0.009868
      dxy     :     0.005828

 23 C s       :     3.001387  s :     3.001387
      pz      :     1.007583  p :     2.963267
      px      :     0.969866
      py      :     0.985819
      dz2     :     0.009347  d :     0.036447
      dxz     :     0.008205
      dyz     :     0.003300
      dx2y2   :     0.010211
      dxy     :     0.005384

 24 H s       :     0.964166  s :     0.964166
      pz      :     0.004565  p :     0.023255
      px      :     0.014050
      py      :     0.004639

 25 H s       :     0.958901  s :     0.958901
      pz      :     0.013178  p :     0.023311
      px      :     0.005179
      py      :     0.004955

 26 C s       :     2.970800  s :     2.970800
      pz      :     0.967941  p :     2.887981
      px      :     0.975131
      py      :     0.944909
      dz2     :     0.006439  d :     0.035322
      dxz     :     0.006970
      dyz     :     0.005960
      dx2y2   :     0.008808
      dxy     :     0.007146

 27 H s       :     0.964502  s :     0.964502
      pz      :     0.013120  p :     0.022882
      px      :     0.004907
      py      :     0.004855

 28 H s       :     0.962409  s :     0.962409
      pz      :     0.004578  p :     0.022646
      px      :     0.003825
      py      :     0.014243

 29 C s       :     3.254798  s :     3.254798
      pz      :     1.039957  p :     3.100963
      px      :     1.003858
      py      :     1.057148
      dz2     :     0.011686  d :     0.050956
      dxz     :     0.010182
      dyz     :     0.009513
      dx2y2   :     0.011059
      dxy     :     0.008517

 30 H s       :     0.968334  s :     0.968334
      pz      :     0.009786  p :     0.023075
      px      :     0.007056
      py      :     0.006233

 31 H s       :     0.979855  s :     0.979855
      pz      :     0.012599  p :     0.022543
      px      :     0.005364
      py      :     0.004581

 32 C s       :     3.032407  s :     3.032407
      pz      :     0.983015  p :     2.968210
      px      :     0.954094
      py      :     1.031101
      dz2     :     0.008234  d :     0.043842
      dxz     :     0.007764
      dyz     :     0.008035
      dx2y2   :     0.011029
      dxy     :     0.008780

 33 H s       :     0.966726  s :     0.966726
      pz      :     0.011798  p :     0.021285
      px      :     0.004627
      py      :     0.004861

 34 C s       :     2.896699  s :     2.896699
      pz      :     0.987970  p :     2.948402
      px      :     0.977176
      py      :     0.983255
      dz2     :     0.005527  d :     0.034838
      dxz     :     0.005938
      dyz     :     0.008138
      dx2y2   :     0.008792
      dxy     :     0.006443

 35 H s       :     0.750151  s :     0.750151
[...]
 Total          142.177          174.270          191.252  iso=     169.233

 Orientation: 
  X           0.3328311   -0.5832324    0.7409881
  Y          -0.1404794   -0.8076870   -0.5726318
  Z           0.9324639    0.0864961   -0.3507555

 --------------
 Nucleus  39C :
 --------------

Diamagnetic contribution to the shielding tensor (ppm) : 
           263.672          5.479        -8.301
             6.599        258.273         2.069
            -7.512          2.111       267.199

Paramagnetic contribution to the shielding tensor (ppm): 
           -97.962         -2.873         6.678
             0.160       -129.073         1.433
            10.753         -1.796      -140.797

Total shielding tensor (ppm): 
           165.711          2.605        -1.622
             6.760        129.200         3.503
             3.241          0.315       126.401


 Diagonalized sT*s matrix:
 
 sDSO           262.411          261.998          264.735  iso=     263.048
 sPSO          -137.030         -132.391          -98.411  iso=    -122.611
        ---------------  ---------------  ---------------
 Total          125.381          129.607          166.325  iso=     140.437

 Orientation: 
  X           0.0423503   -0.1127734   -0.9927178
  Y          -0.4918831    0.8624955   -0.1189643
  Z           0.8696307    0.4933393   -0.0189444

 --------------
 Nucleus  43C :
 --------------

Diamagnetic contribution to the shielding tensor (ppm) : 
           257.250         -0.110        -6.982
             1.381        244.493         7.212
            -9.559          2.417       254.422

Paramagnetic contribution to the shielding tensor (ppm): 
           -93.985         -2.928        -0.912
             0.678        -87.336        -5.383
             2.260          2.285       -91.146

Total shielding tensor (ppm): 
           163.266         -3.038        -7.894
             2.059        157.157         1.830
            -7.299          4.702       163.276


 Diagonalized sT*s matrix:
 
 sDSO           242.346          249.370          264.449  iso=     252.055
 sPSO           -88.174          -91.215          -93.079  iso=     -90.822
        ---------------  ---------------  ---------------
 Total          154.172          158.155          171.371  iso=     161.233

 Orientation: 
  X          -0.4879049    0.5523023   -0.6759518
  Y           0.6042188    0.7725614    0.1951116
  Z          -0.6299749    0.3132269    0.7106480

 --------------
 Nucleus  44C :
 --------------

Diamagnetic contribution to the shielding tensor (ppm) : 
           250.719          1.479         2.456
             0.093        254.826        -4.399
             0.300         -0.540       273.310

Paramagnetic contribution to the shielding tensor (ppm): 
           -71.425         -6.064        -2.017
            -2.962        -74.427         1.298
             0.424         -2.600       -80.003

Total shielding tensor (ppm): 
           179.294         -4.585         0.439
            -2.869        180.399        -3.101
             0.723         -3.140       193.307


 Diagonalized sT*s matrix:
 
 sDSO           253.446          252.042          273.367  iso=     259.618
 sPSO           -77.522          -69.126          -79.206  iso=     -75.285
        ---------------  ---------------  ---------------
 Total          175.924          182.916          194.162  iso=     184.334

 Orientation: 
  X           0.7322506   -0.6737954    0.0990389
  Y           0.6741449    0.6965026   -0.2457901
  Z           0.0966314    0.2467465    0.9642503

 --------------
 Nucleus  49C :
 --------------

Diamagnetic contribution to the shielding tensor (ppm) : 
           243.355         -4.294        -2.555
           -11.544        254.421         7.770
           -10.962          6.021       253.787

Paramagnetic contribution to the shielding tensor (ppm): 
           -64.615          2.116        -3.106
             9.077        -71.858        -2.434
             3.850         -1.642       -76.711

Total shielding tensor (ppm): 
           178.740         -2.179        -5.660
            -2.467        182.563         5.337
            -7.113          4.378       177.077


 Diagonalized sT*s matrix:
 
 sDSO           243.766          242.319          265.479  iso=     250.521
 sPSO           -72.759          -63.542          -76.883  iso=     -71.061
        ---------------  ---------------  ---------------
 Total          171.007          178.777          188.596  iso=     179.460

 Orientation: 
  X           0.5820666   -0.6277170    0.5168847
  Y          -0.2130895   -0.7312008   -0.6480264
  Z           0.7847237    0.2670518   -0.5593675

 --------------
 Nucleus  50C :
 --------------

Diamagnetic contribution to the shielding tensor (ppm) : 
           274.839         -1.179         9.288
             8.698        261.196        -4.957
             8.952          2.937       248.872

Paramagnetic contribution to the shielding tensor (ppm): 
          -187.213        -20.863       -48.178
           -26.734       -292.509       -32.556
           -50.145        -39.239      -120.926

Total shielding tensor (ppm): 
            87.626        -22.043       -38.890
           -18.036        -31.313       -37.513
           -41.193        -36.301       127.945


 Diagonalized sT*s matrix:
 
 sDSO           263.828          273.049          248.029  iso=     261.635
 sPSO          -309.291         -198.463          -92.894  iso=    -200.216
        ---------------  ---------------  ---------------
 Total          -45.463           74.586          155.135  iso=      61.419

 Orientation: 
  X          -0.2593247    0.8357239   -0.4840622
  Y          -0.9296369   -0.3518514   -0.1094339
  Z          -0.2617745    0.4216232    0.8681636

 --------------
 Nucleus  51C :
 --------------

Diamagnetic contribution to the shielding tensor (ppm) : 
           271.069         -0.987        12.056
            -5.600        268.892        12.585
             8.802          9.275       247.362

Paramagnetic contribution to the shielding tensor (ppm): 
          -189.657        -23.116       -58.649
            -3.624       -301.063       -51.874
           -42.836        -51.587      -107.010

Total shielding tensor (ppm): 
            81.411        -24.103       -46.592
            -9.224        -32.171       -39.289
           -34.034        -42.312       140.352


 Diagonalized sT*s matrix:
 
 sDSO           273.442          272.939          240.942  iso=     262.441
 sPSO          -309.769         -212.116          -75.846  iso=    -199.243
        ---------------  ---------------  ---------------
 Total          -36.327           60.823          165.097  iso=      63.198

 Orientation: 
  X           0.4659235    0.7974865   -0.3833151
  Y           0.8269767   -0.5465473   -0.1318921
  Z           0.3146820    0.2555410    0.9141521

 --------------
 Nucleus  54C :
 --------------

Diamagnetic contribution to the shielding tensor (ppm) : 
           253.575          2.452         0.009
             5.031        247.204        -1.240
            -3.073          5.842       247.447

Paramagnetic contribution to the shielding tensor (ppm): 
          -100.407          3.809         6.597
             2.537        -91.431         1.980
            20.323         -7.930       -90.912

Total shielding tensor (ppm): 
           153.167          6.261         6.607
             7.567        155.774         0.741
            17.250         -2.088       156.534


 Diagonalized sT*s matrix:
 
 sDSO           250.964          245.682          251.579  iso=     249.409
 sPSO          -110.354          -89.141          -83.255  iso=     -94.250
        ---------------  ---------------  ---------------
 Total          140.611          156.541          168.324  iso=     155.159

 Orientation: 
  X           0.7280395    0.0446730   -0.6840781
  Y          -0.3611045    0.8732050   -0.3272866
  Z          -0.5827196   -0.4853013   -0.6518593

 --------------
 Nucleus  55C :
 --------------

Diamagnetic contribution to the shielding tensor (ppm) : 
           254.782         -2.414        -3.530
            -3.927        239.008        -0.560
           -18.249         -3.791       224.973

Paramagnetic contribution to the shielding tensor (ppm): 
           -58.593          2.447         1.418
             2.383        -61.743         3.760
            11.537          4.562       -46.627

Total shielding tensor (ppm): 
           196.189          0.033        -2.112
            -1.544        177.265         3.200
            -6.712          0.771       178.346


 Diagonalized sT*s matrix:
 
 sDSO           233.613          226.857          258.294  iso=     239.588
 sPSO           -58.118          -47.842          -61.002  iso=     -55.654
        ---------------  ---------------  ---------------
 Total          175.495          179.015          197.291  iso=     183.934

 Orientation: 
  X           0.1172891    0.2021035   -0.9723155
  Y          -0.7210024    0.6906189    0.0565771
  Z           0.6829339    0.6944060    0.2267191

 --------------
 Nucleus  56C :
 --------------

Diamagnetic contribution to the shielding tensor (ppm) : 
           239.140          1.752         6.925
             6.021        247.402        -3.403
            18.432         -2.448       243.280

Paramagnetic contribution to the shielding tensor (ppm): 
           -76.638          2.133        -5.094
            -5.269        -95.126         1.196
           -18.859          6.974       -67.732

Total shielding tensor (ppm): 
           162.502          3.885         1.832
             0.752        152.277        -2.207
            -0.427          4.526       175.548


 Diagonalized sT*s matrix:
 
 sDSO           245.992          239.378          244.453  iso=     243.274
 sPSO           -94.254          -76.443          -68.799  iso=     -79.832
        ---------------  ---------------  ---------------
 Total          151.738          162.935          175.654  iso=     163.442

 Orientation: 
  X          -0.2119903    0.9754019    0.0604249
  Y           0.9758706    0.2079716    0.0665155
  Z          -0.0523127   -0.0730676    0.9959541

 --------------
 Nucleus  59C :
 --------------

Diamagnetic contribution to the shielding tensor (ppm) : 
           244.958          4.215         8.744
            14.185        229.600        12.163
            20.553          1.761       231.522

Paramagnetic contribution to the shielding tensor (ppm): 
           -76.308         10.357         4.419
            -4.479        -43.055        -7.508
            -9.618          6.096       -60.313

Total shielding tensor (ppm): 
           168.650         14.573        13.163
             9.706        186.545         4.655
            10.935          7.856       171.209


 Diagonalized sT*s matrix:
 
 sDSO           225.286          230.205          250.589  iso=     235.360
 sPSO           -68.479          -58.216          -52.981  iso=     -59.892
        ---------------  ---------------  ---------------
 Total          156.807          171.989          197.608  iso=     175.468

 Orientation: 
  X           0.7956145   -0.3624437    0.4854195
  Y          -0.1992343    0.6001627    0.7746679
  Z          -0.5721042   -0.7130493    0.4052870

 --------------
 Nucleus  60C :
 --------------

Diamagnetic contribution to the shielding tensor (ppm) : 
           238.662         -4.489         2.485
           -19.276        248.141       -14.825
            18.256         -2.593       237.769

Paramagnetic contribution to the shielding tensor (ppm): 
           -62.717          3.428        -1.079
            22.089        -51.433        14.983
           -15.987         -1.511       -63.245

Total shielding tensor (ppm): 
           175.945         -1.061         1.405
             2.813        196.708         0.158
             2.268         -4.104       174.524


 Diagonalized sT*s matrix:
 
 sDSO           228.492          247.634          248.447  iso=     241.524
 sPSO           -55.418          -70.436          -51.542  iso=     -59.132
        ---------------  ---------------  ---------------
 Total          173.074          177.197          196.905  iso=     182.392

 Orientation: 
  X          -0.5555385   -0.8305733   -0.0390516
  Y           0.0875057   -0.0116952   -0.9960954
  Z           0.8268735   -0.5567866    0.0791770



--------------------------------
CHEMICAL SHIELDING SUMMARY (ppm)
--------------------------------


  Nucleus  Element    Isotropic     Anisotropy
  -------  -------  ------------   ------------
      0       C           59.646        148.146 
      1       C          151.165         30.141 
      2       C          128.883         55.171 
      5       C           51.529        179.204 
      6       C          165.011         22.870 
      7       C          161.652         22.534 
     14       C           74.634        128.270 
     15       C           83.016        121.108 
     18       C           79.501        134.228 
     20       C           52.438        174.895 
     22       C          169.281          8.666 
     23       C          174.534         12.642 
     26       C          158.662         23.680 
     29       C          153.881         17.894 
     32       C          143.448         28.022 
     34       C          174.793         23.171 
     36       C          169.233         33.029 
     39       C          140.437         38.831 
     43       C          161.233         15.207 
     44       C          184.334         14.742 
     49       C          179.460         13.704 
     50       C           61.419        140.573 
     51       C           63.198        152.849 
     54       C          155.159         19.748 
     55       C          183.934         20.036 
     56       C          163.442         18.318 
     59       C          175.468         33.210 
     60       C          182.392         21.770 


NMR shielding tensor and spin rotation calculation done in   1.0 sec 

Maximum memory used throughout the entire PROP-calculation: 51.4 MB

--------------------------------
SUGGESTED CITATIONS FOR THIS RUN
--------------------------------

Below you find a list of papers that are relevant to this ORCA run
We neither can nor want to force you to cite these papers, but we appreciate if you do
You receive ORCA, which is the product of decades of hard work by many enthusiastic individuals, for free
The only thing we kindly ask in return is that you cite our papers,
We deeply appreciate it, if you show your appreciation for ORCA by not just citing the generic ORCA reference.

Please note that relegating all ORCA citations to the supporting information does *not* help us.
SI sections are not indexed - citations you put there will not count into any citation statistics
But we need these citations in order to attract the funding resources that allow us to do what we are doing

Therefore, if you are a happy ORCA user, please consider citing a few of the papers listed below in the main body of your paper

In addition to the list printed below, the program has created the file inpS.bibtex that contains the list in bibtex format
You can import this file easily into all common literature databanks and citation aid programs


List of essential papers. We consider these as the minimum necessary citations

  1. Neese,F.
     Software update: the ORCA program system, version 5.0
     WIRES Comput. Molec. Sci., 2022 12(1)e1606
     doi.org/10.1002/wcms.1606

List of papers to cite with high priority. The work reported in these papers was absolutely
necessary for this run to complete.
Our perspective: the developers of density functionals and basis sets usually get cited in chemistry papers
Good! But without the algorithms to do something with them, the functionals or basis sets would not do anything.
Hence, in our opinion, the algorithm design and method developments papers are equally worthy of getting cited

  1. Neese,F.
     An improvement of the resolution of the identity approximation for the formation of the Coulomb matrix
     J. Comp. Chem., 2003 24(14)1740-1747
     doi.org/10.1002/jcc.10318
  2. Neese,F.; Wennmohs,F.; Hansen,A.; Becker,U.
     Efficient, approximate and parallel Hartree-Fock and hybrid DFT calculations. A 'chain-of-spheres' algorithm for the Hartree-Fock exchange
     Chem. Phys., 2009 356(1-3)98-109
     doi.org/10.1016/j.chemphys.2008.10.036
  3. Stoychev,G.L.; Auer,A.A.; Izsak,R.; Neese,F.
     Self-Consistent Field Calculation of Nuclear Magnetic Resonance Chemical Shielding Constants Using Gauge-Including Atomic Orbitals and Approximate Two-Electron Integrals
     J. Chem. Theory Comput., 2018 14(2)619-637
     doi.org/10.1021/acs.jctc.7b01006
  4. Garcia-Rates,M.; Neese,F.
     Effect of the Solute Cavity on the Solvation Energy and its Derivatives within the Framework of the Gaussian Charge Scheme
     J. Comput. Chem., 2020 41 922-939
     doi.org/10.1002/jcc.26139
  5. Helmich-Paris,B.; de Souza,B.; Neese,F.; Izsák,R.
     An improved chain of spheres for exchange algorithm
     J. Chem. Phys., 2021 155 104109
     doi.org/doi: 10.1063/5.0058766.
  6. Neese,F.
     The SHARK Integral Generation and Digestion System
     J. Comp. Chem., 2022  1-16
     doi.org/10.1002/jcc.26942
  7. Caldeweyher,E.; Bannwarth,C.; Grimme,S.
     Extension of the D3 dispersion coefficient model
     J. Chem. Phys., 2017 147 034112-XXXX
     doi.org/10.1063/1.4993215
  8. Caldeweyher,E.; Ehlert,S.; Hansen,A.; Neugebauer,H.; Spicher,S.; Bannwarth,C.; Grimme,S.
     A generally applicable atomic-charge dependent London dispersion correction
     J. Chem. Phys., 2019 150 154122-XXXX
     doi.org/10.1063/1.5090222
  9. Caldeweyher,E.; Mewes,J.; Ehlert,S.; Grimme,S.
     Extension and evaluation of the D4 London-dispersion model for periodic systems
     Phys. Chem. Chem. Phys., 2020 22(16)8499-8512
     doi.org/10.1039/D0CP00502A

List of suggested additional citations. These are papers that are important in the 'surrounding' of 
of this run, or papers that preceded the highly important papers. If you like your results we are grateful for a citation.

  1. Izsak,R.; Neese,F.
     An overlap fitted chain of spheres exchange method
     J. Chem. Phys., 2011 135 144105
     doi.org/10.1063/1.3646921
  2. Izsak,R.; Hansen,A.; Neese,F.
     The resolution of identity and chain of spheres approximations for the LPNO-CCSD singles Fock term
     Molec. Phys., 2012 110 2413-2417
     doi.org/10.1080/00268976.2012.687466
  3. Neese,F.
     The ORCA program system
     WIRES Comput. Molec. Sci., 2012 2(1)73-78
     doi.org/10.1002/wcms.81
  4. Izsak,R.; Neese,F.; Klopper,W.
     Robust fitting techniques in the chain of spheres approximation to the Fock exchange: The role of the complementary space
     J. Chem. Phys., 2013 139 
     doi.org/10.1063/1.4819264
  5. Neese,F.
     Software update: the ORCA program system, version 4.0
     WIRES Comput. Molec. Sci., 2018 8(1)1-6
     doi.org/10.1002/wcms.1327
  6. Neese,F.; Wennmohs,F.; Becker,U.; Riplinger,C.
     The ORCA quantum chemistry program package
     J. Chem. Phys., 2020 152 Art. No. L224108
     doi.org/10.1063/5.0004608

Timings for individual modules:

Sum of individual times          ...      174.054 sec (=   2.901 min)
Startup calculation              ...        4.694 sec (=   0.078 min)   2.7 %
SCF iterations                   ...       70.885 sec (=   1.181 min)  40.7 %
Property integrals               ...       59.002 sec (=   0.983 min)  33.9 %
SCF Response                     ...       38.169 sec (=   0.636 min)  21.9 %
Property calculations            ...        1.305 sec (=   0.022 min)   0.7 %
                             ****ORCA TERMINATED NORMALLY****
TOTAL RUN TIME: 0 days 0 hours 2 minutes 54 seconds 339 msec
