
                                 *****************
                                 * O   R   C   A *
                                 *****************

                                            #,                                       
                                            ###                                      
                                            ####                                     
                                            #####                                    
                                            ######                                   
                                           ########,                                 
                                     ,,################,,,,,                         
                               ,,#################################,,                 
                          ,,##########################################,,             
                       ,#########################################, ''#####,          
                    ,#############################################,,   '####,        
                  ,##################################################,,,,####,       
                ,###########''''           ''''###############################       
              ,#####''   ,,,,##########,,,,          '''####'''          '####       
            ,##' ,,,,###########################,,,                        '##       
           ' ,,###''''                  '''############,,,                           
         ,,##''                                '''############,,,,        ,,,,,,###''
      ,#''                                            '''#######################'''  
     '                                                          ''''####''''         
             ,#######,   #######,   ,#######,      ##                                
            ,#'     '#,  ##    ##  ,#'     '#,    #''#        ,####,   ,####,        
            ##       ##  ##   ,#'  ##            #'  '#       #'       #'  '#        
            ##       ##  #######   ##           ,######,      #####,   #    #        
            '#,     ,#'  ##    ##  '#,     ,#' ,#      #,     #,   #   #,  ,#        
             '#######'   ##     ##  '#######'  #'      '#     '####' # '####'        



                #########################################################
                #                        -***-                          #
                #          Department of theory and spectroscopy        #
                #                                                       #
                #                      Frank Neese                      #
                #                                                       #
                #     Directorship, Architecture, Infrastructure        #
                #                    SHARK, DRIVERS                     #
                #        Core code/Algorithms in most modules           #
                #                                                       #
                #        Max Planck Institute fuer Kohlenforschung      #
                #                Kaiser Wilhelm Platz 1                 #
                #                 D-45470 Muelheim/Ruhr                 #
                #                      Germany                          #
                #                                                       #
                #                  All rights reserved                  #
                #                        -***-                          #
                #########################################################


                         Program Version 6.0.0  -   RELEASE  -


 With contributions from (in alphabetic order):
   Daniel Aravena         : Magnetic Suceptibility
   Michael Atanasov       : Ab Initio Ligand Field Theory (pilot matlab implementation)
   Alexander A. Auer      : GIAO ZORA, VPT2 properties, NMR spectrum
   Ute Becker             : All parallelization in ORCA, NUMFREQ, NUMCALC
   Giovanni Bistoni       : ED, misc. LED, open-shell LED, HFLD
   Martin Brehm           : Molecular dynamics
   Dmytro Bykov           : pre 5.0 version of the SCF Hessian
   Marcos Casanova-Páez   : Triplet and SCS-CIS(D). UHF-(DLPNO)-IP/EA/STEOM-CCSD. UHF-CVS-IP/STEOM-CCSD
   Vijay G. Chilkuri      : MRCI spin determinant printing, contributions to CSF-ICE
   Pauline Colinet        : FMM embedding
   Dipayan Datta          : RHF DLPNO-CCSD density
   Achintya Kumar Dutta   : EOM-CC, STEOM-CC
   Nicolas Foglia         : Exact transition moments, OPA infrastructure, MCD improvements
   Dmitry Ganyushin       : Spin-Orbit,Spin-Spin,Magnetic field MRCI
   Miquel Garcia          : C-PCM and meta-GGA Hessian, CCSD/C-PCM, Gaussian charge scheme
   Tiago L. C. Gouveia    : GS-ROHF, GS-ROCIS
   Yang Guo               : DLPNO-NEVPT2, F12-NEVPT2, CIM, IAO-localization
   Andreas Hansen         : Spin unrestricted coupled pair/coupled cluster methods
   Ingolf Harden          : AUTO-CI MPn and infrastructure 
   Benjamin Helmich-Paris : MC-RPA, TRAH-(SCF,CASSCF), AVAS, COSX integrals, SCF dyn. polar.
   Lee Huntington         : MR-EOM, pCC
   Robert Izsak           : Overlap fitted RIJCOSX, COSX-SCS-MP3, EOM
   Riya Kayal             : Wick's Theorem for AUTO-CI, AUTO-CI UHF-CCSDT
   Emily Kempfer          : AUTO-CI, RHF CISDT and CCSDT
   Christian Kollmar      : KDIIS, OOCD, Brueckner-CCSD(T), CCSD density, CASPT2, CASPT2-K, improved NEVPT2
   Axel Koslowski         : Symmetry handling
   Simone Kossmann        : Meta GGA functionals, TD-DFT gradient, OOMP2, (MP2 Hessian; deprecated post 5.0)
   Lucas Lang             : DCDCAS
   Marvin Lechner         : AUTO-CI (C++ implementation), FIC-MRCC
   Spencer Leger          : CASSCF response
   Dagmar Lenk            : GEPOL surface, SMD, ORCA-2-JSON
   Dimitrios Liakos       : Extrapolation schemes; Compound Job, initial MDCI parallelization
   Dimitrios Manganas     : Further ROCIS development; embedding schemes. LFT, Crystal Embedding
   Dimitrios Pantazis     : SARC Basis sets
   Anastasios Papadopoulos: AUTO-CI, single reference methods and gradients
   Taras Petrenko         : pre 6.0 DFT Hessian and TD-DFT gradient, (ASA, deprecated), ECA, 1-Electron XAS/XES, NRVS
   Peter Pinski           : DLPNO-MP2, DLPNO-MP2 Gradient
   Christoph Reimann      : Effective Core Potentials
   Marius Retegan         : Local ZFS, SOC
   Christoph Riplinger    : Optimizer, TS searches, QM/MM, DLPNO-CCSD(T), (RO)-DLPNO pert. Triples
   Michael Roemelt        : Original ROCIS implementation
   Masaaki Saitow         : Open-shell DLPNO-CCSD energy and density
   Barbara Sandhoefer     : DKH picture change effects
   Kantharuban Sivalingam : CASSCF convergence/infrastructure, NEVPT2 and variants, FIC-MRCI
   Bernardo de Souza      : ESD, SOC TD-DFT
   Georgi Stoychev        : AutoAux, RI-MP2 NMR, DLPNO-MP2 response, X2C
   Van Anh Tran           : RI-MP2 g-tensors
   Willem Van den Heuvel  : Paramagnetic NMR
   Zikuan Wang            : NOTCH, Electric field optimization 
   Frank Wennmohs         : Technical directorship and infrastructure
   Hang Xu                : AUTO-CI-Response properties 


 We gratefully acknowledge several colleagues who have allowed us to
 interface, adapt or use parts of their codes:
   Stefan Grimme, W. Hujo, H. Kruse, P. Pracht,  : VdW corrections, initial TS optimization,
                  C. Bannwarth, S. Ehlert,         DFT functionals, gCP, sTDA/sTD-DF
                  L. Wittmann, M. Mueller
   Ed Valeev, F. Pavosevic, A. Kumar             : LibInt (2-el integral package), F12 methods
   Garnet Chan, S. Sharma, J. Yang, R. Olivares  : DMRG
   Ulf Ekstrom                                   : XCFun DFT Library
   Mihaly Kallay                                 : mrcc  (arbitrary order and MRCC methods)
   Frank Weinhold                                : gennbo (NPA and NBO analysis)
   Simon Mueller                                 : openCOSMO-RS
   Christopher J. Cramer and Donald G. Truhlar   : smd solvation model
   Lars Goerigk                                  : TD-DFT with DH, B97 family of functionals
   V. Asgeirsson, H. Jonsson                     : NEB implementation
   FAccTs GmbH                                   : IRC, NEB, NEB-TS, DLPNO-Multilevel, CI-OPT
                                                   MM, QMMM, 2- and 3-layer-ONIOM, Crystal-QMMM,
                                                   LR-CPCM, SF, NACMEs, symmetry and pop. for TD-DFT,
                                                   nearIR, NL-DFT gradient (VV10), updates on ESD,
                                                   ML-optimized integration grids, MBIS, APM,
                                                   GOAT, DOCKER, SOLVATOR, interface openCOSMO-RS
   S Lehtola, MJT Oliveira, MAL Marques          : LibXC Library
   Liviu Ungur et al                             : ANISO software


 Your calculation uses the libint2 library for the computation of 2-el integrals
 For citations please refer to: http://libint.valeyev.net

 Your ORCA version has been built with support for libXC version: 6.2.2
 For citations please refer to: https://libxc.gitlab.io

 This ORCA versions uses:
   CBLAS   interface :  Fast vector & matrix operations
   LAPACKE interface :  Fast linear algebra routines
   SCALAPACK package :  Parallel linear algebra routines
   Shared memory     :  Shared parallel matrices
   BLAS/LAPACK       :  OpenBLAS 0.3.27  USE64BITINT DYNAMIC_ARCH NO_AFFINITY Zen SINGLE_THREADED
        Core in use  :  Zen
   Copyright (c) 2011-2014, The OpenBLAS Project


NOTE: MaxCore=8000 MB was set to SCF,MP2,MDCI,CIPSI,MRCI and CIS
      => If you want to overwrite this, your respective input block should be placed after the MaxCore statement
Your calculation utilizes the atom-pairwise dispersion correction
based on EEQ partial charges (D4)


================================================================================

----- Orbital basis set information -----
Your calculation utilizes the basis: pcJ-0
   F. Jensen, Theor. Chem. Acc. 126, 371 (2010).

----- AuxJ basis set information -----
Your calculation utilizes the auxiliary basis: def2/J
   F. Weigend, Phys. Chem. Chem. Phys. 8, 1057 (2006).

================================================================================
                                        WARNINGS
                       Please study these warnings very carefully!
================================================================================


================================================================================
                                       INPUT FILE
================================================================================
NAME = inpJ
|  1> ! pbe0
|  2> ! D4
|  3> ! pcJ-0
|  4> ! def2/J RIJCOSX
|  5> ! DEFGRID2
|  6> ! scfconv7
|  7> ! smallprint printgap noloewdin
|  8> ! NOSOSCF
|  9> %MaxCore 8000
| 10> %output
| 11>        print[P_BondOrder_M] 1
| 12>        print[P_Mayer] 1
| 13>        print[P_basis] 2
| 14> end
| 15> %pal
| 16>     nprocs 8
| 17> end
| 18> ! CPCM(chloroform)
| 19> *xyz 0 1
| 20> C    1.8417278125   0.0000071191  -0.0747088409
| 21> C    1.0540956468  -1.2499181470   0.3009236581
| 22> C   -0.3047449654  -1.2643743237  -0.4041045112
| 23> H    0.8969119304  -1.2696718203   1.3816456045
| 24> H    1.6138642451  -2.1467693053   0.0281160106
| 25> C   -1.0735850182  -0.0000081838  -0.0981327049
| 26> H   -0.8930815822  -2.1296797370  -0.0952422595
| 27> H   -0.1515971233  -1.3161424584  -1.4849847233
| 28> C   -0.3047925117   1.2643728988  -0.4040821960
| 29> C    1.0540887456   1.2499166818   0.3009022872
| 30> H   -0.8931407093   2.1296796984  -0.0951874243
| 31> H   -0.1515949910   1.3161821389  -1.4849582877
| 32> H    0.8969633883   1.2696028044   1.3816635840
| 33> H    1.6139124279   2.1467779214   0.0281871605
| 34> H    2.0398397689   0.0001477281  -1.1492339508
| 35> H    2.8029350399   0.0000207115   0.4429246147
| 36> O   -2.1914917800  -0.0000063349   0.3506307258
| 37> *
| 38> %eprnmr
| 39>  Nuclei = all C { ssfc }
| 40>  SpinSpinRThresh 8.0
| 41> end
| 42> 
| 43>                          ****END OF INPUT****
================================================================================

                       ****************************
                       * Single Point Calculation *
                       ****************************

---------------------------------
CARTESIAN COORDINATES (ANGSTROEM)
---------------------------------
  C      1.841728    0.000007   -0.074709
  C      1.054096   -1.249918    0.300924
  C     -0.304745   -1.264374   -0.404105
  H      0.896912   -1.269672    1.381646
  H      1.613864   -2.146769    0.028116
  C     -1.073585   -0.000008   -0.098133
  H     -0.893082   -2.129680   -0.095242
  H     -0.151597   -1.316142   -1.484985
  C     -0.304793    1.264373   -0.404082
  C      1.054089    1.249917    0.300902
  H     -0.893141    2.129680   -0.095187
  H     -0.151595    1.316182   -1.484958
  H      0.896963    1.269603    1.381664
  H      1.613912    2.146778    0.028187
  H      2.039840    0.000148   -1.149234
  H      2.802935    0.000021    0.442925
  O     -2.191492   -0.000006    0.350631

----------------------------
CARTESIAN COORDINATES (A.U.)
----------------------------
  NO LB      ZA    FRAG     MASS         X           Y           Z
   0 C     6.0000    0    12.011    3.480361    0.000013   -0.141179
   1 C     6.0000    0    12.011    1.991952   -2.362003    0.568663
   2 C     6.0000    0    12.011   -0.575885   -2.389321   -0.763647
   3 H     1.0000    0     1.008    1.694918   -2.399332    2.610932
   4 H     1.0000    0     1.008    3.049761   -4.056806    0.053132
   5 C     6.0000    0    12.011   -2.028782   -0.000015   -0.185444
   6 H     1.0000    0     1.008   -1.687680   -4.024511   -0.179982
   7 H     1.0000    0     1.008   -0.286477   -2.487149   -2.806214
   8 C     6.0000    0    12.011   -0.575974    2.389319   -0.763605
   9 C     6.0000    0    12.011    1.991939    2.362000    0.568623
  10 H     1.0000    0     1.008   -1.687791    4.024511   -0.179878
  11 H     1.0000    0     1.008   -0.286473    2.487224   -2.806164
  12 H     1.0000    0     1.008    1.695015    2.399202    2.610966
  13 H     1.0000    0     1.008    3.049852    4.056822    0.053266
  14 H     1.0000    0     1.008    3.854739    0.000279   -2.171737
  15 H     1.0000    0     1.008    5.296780    0.000039    0.837006
  16 O     8.0000    0    15.999   -4.141319   -0.000012    0.662596

--------------------------------
INTERNAL COORDINATES (ANGSTROEM)
--------------------------------
 C      0   0   0     0.000000000000     0.00000000     0.00000000
 C      1   0   0     1.524394100482     0.00000000     0.00000000
 C      2   1   0     1.530921784389   110.66299925     0.00000000
 H      2   1   3     1.092271419447   109.45043562   239.69046442
 H      2   1   3     1.091836478746   110.30711486   121.20925357
 C      3   2   1     1.511077598526   110.51547300   304.54757233
 H      3   2   1     1.091003814603   110.84013997   183.10366061
 H      3   2   1     1.092902664568   109.36155544    63.47312713
 C      6   3   2     1.511061392264   113.59509503    53.83133510
 C      1   2   3     1.524379524327   110.15911125    58.49458361
 H      9   6   3     1.091020366005   109.38722356   183.86966721
 H      9   6   3     1.092907499891   108.13323778    65.83661700
 H     10   1   2     1.092300737888   109.44505229    61.81571806
 H     10   1   2     1.091849888351   110.30675804   180.28926528
 H      1   2   3     1.092635611192   109.64057617   297.76811720
 H      1   2   3     1.091725115836   109.76050747   179.46296768
 O      6   3   2     1.204617841813   123.20335975   234.03613275

---------------------------
INTERNAL COORDINATES (A.U.)
---------------------------
 C      0   0   0     0.000000000000     0.00000000     0.00000000
 C      1   0   0     2.880687370077     0.00000000     0.00000000
 C      2   1   0     2.893022904948   110.66299925     0.00000000
 H      2   1   3     2.064093846664   109.45043562   239.69046442
 H      2   1   3     2.063271927856   110.30711486   121.20925357
 C      3   2   1     2.855522828317   110.51547300   304.54757233
 H      3   2   1     2.061698420664   110.84013997   183.10366061
 H      3   2   1     2.065286727066   109.36155544    63.47312713
 C      6   3   2     2.855492202921   113.59509503    53.83133510
 C      1   2   3     2.880659825136   110.15911125    58.49458361
 H      9   6   3     2.061729698279   109.38722356   183.86966721
 H      9   6   3     2.065295864502   108.13323778    65.83661700
 H     10   1   2     2.064149250488   109.44505229    61.81571806
 H     10   1   2     2.063297268336   110.30675804   180.28926528
 H      1   2   3     2.064782069323   109.64057617   297.76811720
 H      1   2   3     2.063061482454   109.76050747   179.46296768
 O      6   3   2     2.276397817063   123.20335975   234.03613275

---------------------
BASIS SET INFORMATION
---------------------
There are 3 groups of distinct atoms

 Group   1 Type C   : 7s4p contracted to 4s3p pattern {4111/211}
 Group   2 Type H   : 5s contracted to 3s pattern {311}
 Group   3 Type O   : 7s4p contracted to 4s3p pattern {4111/211}

Atom   0C    basis set group =>   1
Atom   1C    basis set group =>   1
Atom   2C    basis set group =>   1
Atom   3H    basis set group =>   2
Atom   4H    basis set group =>   2
Atom   5C    basis set group =>   1
Atom   6H    basis set group =>   2
Atom   7H    basis set group =>   2
Atom   8C    basis set group =>   1
Atom   9C    basis set group =>   1
Atom  10H    basis set group =>   2
Atom  11H    basis set group =>   2
Atom  12H    basis set group =>   2
Atom  13H    basis set group =>   2
Atom  14H    basis set group =>   2
Atom  15H    basis set group =>   2
Atom  16O    basis set group =>   3

-------------------------
BASIS SET IN INPUT FORMAT
-------------------------

 # Basis set for element : H 
 NewGTO H 
 S 3 
   1    1357.7500000000      0.0012928364
   2      54.3100000000      0.0588280685
   3       4.3448000000      0.9761499708
 S 1 
   1       0.6604910000      1.0000000000
 S 1 
   1       0.1366870000      1.0000000000
  end;

 # Basis set for element : C 
 NewGTO C 
 S 4 
   1  139534.0000000000      0.0001655246
   2    5581.3600000000      0.0074486101
   3     446.5090000000      0.1285821065
   4      67.4620000000      0.9218029311
 S 1 
   1      15.0674000000      1.0000000000
 S 1 
   1       3.9387600000      1.0000000000
 S 1 
   1       0.2999150000      1.0000000000
 P 2 
   1      28.3900000000      0.0816325586
   2       4.3676900000      0.9660360576
 P 1 
   1       0.8698170000      1.0000000000
 P 1 
   1       0.1889340000      1.0000000000
  end;

 # Basis set for element : O 
 NewGTO O 
 S 4 
   1  253789.0000000000      0.0001641076
   2   10151.6000000000      0.0074010921
   3     812.1250000000      0.1277711901
   4     122.6930000000      0.9223372164
 S 1 
   1      27.5608000000      1.0000000000
 S 1 
   1       7.3172600000      1.0000000000
 S 1 
   1       0.5792400000      1.0000000000
 P 2 
   1      53.4157000000      0.0793786106
   2       8.2177900000      0.9670506337
 P 1 
   1       1.6754400000      1.0000000000
 P 1 
   1       0.3506720000      1.0000000000
  end;

---------------------------------
AUXILIARY/J BASIS SET INFORMATION
---------------------------------
There are 3 groups of distinct atoms

 Group   1 Type C   : 12s5p4d2f1g contracted to 6s4p3d1f1g pattern {711111/2111/211/2/1}
 Group   2 Type H   : 5s2p1d contracted to 3s1p1d pattern {311/2/1}
 Group   3 Type O   : 12s5p4d2f1g contracted to 6s4p3d1f1g pattern {711111/2111/211/2/1}

Atom   0C    basis set group =>   1
Atom   1C    basis set group =>   1
Atom   2C    basis set group =>   1
Atom   3H    basis set group =>   2
Atom   4H    basis set group =>   2
Atom   5C    basis set group =>   1
Atom   6H    basis set group =>   2
Atom   7H    basis set group =>   2
Atom   8C    basis set group =>   1
Atom   9C    basis set group =>   1
Atom  10H    basis set group =>   2
Atom  11H    basis set group =>   2
Atom  12H    basis set group =>   2
Atom  13H    basis set group =>   2
Atom  14H    basis set group =>   2
Atom  15H    basis set group =>   2
Atom  16O    basis set group =>   3

-------------------------------------
AUXILIARY/J BASIS SET IN INPUT FORMAT
-------------------------------------

 # Auxiliary/J basis set for element : H 
 NewAuxJGTO H 
 S 3 
   1      15.6752927000      0.1007184237
   2       3.6063578000      0.3404257499
   3       1.2080016000      0.6491996172
 S 1 
   1       0.4726794000      1.0000000000
 S 1 
   1       0.2018100000      1.0000000000
 P 2 
   1       2.0281365000      0.5596620919
   2       0.5358730000      0.5596620919
 D 1 
   1       2.2165124000      1.0000000000
  end;

 # Auxiliary/J basis set for element : C 
 NewAuxJGTO C 
 S 7 
   1    1861.0916331000      0.0134602335
   2     642.9939764000      0.0299160374
   3     235.1105725000      0.1008649584
   4      90.7028894000      0.2370970548
   5      36.7794552000      0.3924037254
   6      15.6046273000      0.3195862154
   7       6.8907294000      0.0530104441
 S 1 
   1       3.1478850000     -1.0000000000
 S 1 
   1       1.4777287000      1.0000000000
 S 1 
   1       0.7076466000      1.0000000000
 S 1 
   1       0.3430122000      1.0000000000
 S 1 
   1       0.1669453000      1.0000000000
 P 2 
   1      13.5472892000     -0.6769313712
   2       5.4669419000     -0.3779500978
 P 1 
   1       2.1751721000      1.0000000000
 P 1 
   1       0.8582194000      1.0000000000
 P 1 
   1       0.3376720000      1.0000000000
 D 2 
   1       5.9287253000     -0.3533329857
   2       1.9809209000     -0.7456525731
 D 1 
   1       0.8055417000     -1.0000000000
 D 1 
   1       0.3531244000     -1.0000000000
 F 2 
   1       1.6755626000      0.6311076882
   2       0.5997536000      0.4968166032
 G 1 
   1       1.0024600000     -1.0000000000
  end;

 # Auxiliary/J basis set for element : O 
 NewAuxJGTO O 
 S 7 
   1    2876.8216605000      0.0168151159
   2    1004.7443032000      0.0340137548
   3     369.7579954000      0.1194951309
   4     142.9442404000      0.2664627624
   5      57.8366425000      0.4202764046
   6      24.3864983000      0.2765077335
   7      10.6622662000      0.0057008815
 S 1 
   1       4.8070437000     -1.0000000000
 S 1 
   1       2.2210770000      1.0000000000
 S 1 
   1       1.0447795000      1.0000000000
 S 1 
   1       0.4968425000      1.0000000000
 S 1 
   1       0.2371384000      1.0000000000
 P 2 
   1      64.2613382000     -0.2731534179
   2      16.3006076000     -0.8168011598
 P 1 
   1       4.3550542000      1.0000000000
 P 1 
   1       1.2019554000      1.0000000000
 P 1 
   1       0.3354196000      1.0000000000
 D 2 
   1       9.2146611000     -0.4661230638
   2       2.8435251000     -0.6600908911
 D 1 
   1       0.9955759000     -1.0000000000
 D 1 
   1       0.3649441000     -1.0000000000
 F 2 
   1       2.6420115000      0.5931563945
   2       0.7345613000      0.5931563945
 G 1 
   1       1.3931000000     -1.0000000000
  end;



           ************************************************************
           *        Program running with 8 parallel MPI-processes     *
           *              working on a common directory               *
           ************************************************************
------------------------------------------------------------------------------
                             ORCA STARTUP CALCULATIONS
                           -- RI-GTO INTEGRALS CHOSEN --
------------------------------------------------------------------------------
------------------------------------------------------------------------------
                   ___                                                        
                  /   \      - P O W E R E D   B Y -                         
                 /     \                                                     
                 |  |  |   _    _      __       _____    __    __             
                 |  |  |  | |  | |    /  \     |  _  \  |  |  /  |          
                  \  \/   | |  | |   /    \    | | | |  |  | /  /          
                 / \  \   | |__| |  /  /\  \   | |_| |  |  |/  /          
                |  |  |   |  __  | /  /__\  \  |    /   |      \           
                |  |  |   | |  | | |   __   |  |    \   |  |\   \          
                \     /   | |  | | |  |  |  |  | |\  \  |  | \   \       
                 \___/    |_|  |_| |__|  |__|  |_| \__\ |__|  \__/        
                                                                              
                      - O R C A' S   B I G   F R I E N D -                    
                                      &                                       
                       - I N T E G R A L  F E E D E R -                       
                                                                              
 v1 FN, 2020, v2 2021, v3 2022-2024                                           
------------------------------------------------------------------------------


----------------------
SHARK INTEGRAL PACKAGE
----------------------

Number of atoms                             ...     17
Number of basis functions                   ...    121
Number of shells                            ...     79
Maximum angular momentum                    ...      1
Integral batch strategy                     ... SHARK/LIBINT Hybrid
RI-J (if used) integral strategy            ... SPLIT-RIJ (Revised 2003 algorithm where possible)
Printlevel                                  ...      1
Contraction scheme used                     ... SEGMENTED contraction
Prescreening option                         ... SCHWARTZ
   Thresh                                   ... 3.000e-11
   Tcut                                     ... 1.000e-12
   Tpresel                                  ... 1.000e-12 
Coulomb Range Separation                    ... NOT USED
Exchange Range Separation                   ... NOT USED
Multipole approximations                    ... NOT USED
Finite Nucleus Model                        ... NOT USED
CABS basis                                  ... NOT available
Auxiliary Coulomb fitting basis             ... AVAILABLE
   # of basis functions in Aux-J            ...    453
   # of shells in Aux-J                     ...    155
   Maximum angular momentum in Aux-J        ...      4
Auxiliary J/K fitting basis                 ... NOT available
Auxiliary Correlation fitting basis         ... NOT available
Auxiliary 'external' fitting basis          ... NOT available

Checking pre-screening integrals            ... done (  0.0 sec) Dimension = 79
Check shell pair data                       ... done (  0.0 sec)
Shell pair information
Shell pair cut-off parameter TPreSel        ...   1.0e-12
Total number of shell pairs                 ...      3160
Shell pairs after pre-screening             ...      2436
Total number of primitive shell pairs       ...      8207
Primitive shell pairs kept                  ...      4567
          la=0 lb=0:   1224 shell pairs
          la=1 lb=0:   1002 shell pairs
          la=1 lb=1:    210 shell pairs

Calculating one electron integrals          ... done (  0.0 sec)
Calculating RI/J V-Matrix + Cholesky decomp.... done (  0.0 sec)
Calculating Nuclear repulsion               ... done (  0.0 sec) ENN=    311.798325928609 Eh

Diagonalization of the overlap matrix:
Smallest eigenvalue                        ... 2.104e-02
Time for diagonalization                   ...    0.001 sec
Threshold for overlap eigenvalues          ... 1.000e-07
Number of eigenvalues below threshold      ... 0
Time for construction of square roots      ...    0.000 sec
Total time needed                          ...    0.002 sec

-------------------
DFT GRID GENERATION
-------------------

General Integration Accuracy     IntAcc      ... 4.388
Radial Grid Type                 RadialGrid  ... OptM3 with GC (2021)
Angular Grid (max. ang.)         AngularGrid ... 4 (Lebedev-302)
Angular grid pruning method      GridPruning ... 4 (adaptive)
Weight generation scheme         WeightScheme... mBecke (2022)
Basis function cutoff            BFCut       ... 1.0000e-11
Integration weight cutoff        WCut        ... 1.0000e-14
Partially contracted basis set               ... off
Rotationally invariant grid construction     ... off
Angular grids for H and He will be reduced by one unit

Total number of grid points                  ...    73920
Total number of batches                      ...     1164
Average number of points per batch           ...       63
Average number of grid points per atom       ...     4348

--------------------
COSX GRID GENERATION
--------------------

GRIDX 1
-------
General Integration Accuracy     IntAcc      ... 3.816
Radial Grid Type                 RadialGrid  ... OptM3 with GC (2021)
Angular Grid (max. ang.)         AngularGrid ... 1 (Lebedev-50)
Angular grid pruning method      GridPruning ... 4 (adaptive)
Weight generation scheme         WeightScheme... mBecke (2022)
Basis function cutoff            BFCut       ... 1.0000e-11
Integration weight cutoff        WCut        ... 1.0000e-14
Partially contracted basis set               ... on
Rotationally invariant grid construction     ... off
Angular grids for H and He will be reduced by one unit

Total number of grid points                  ...     9487
Total number of batches                      ...       88
Average number of points per batch           ...      107
Average number of grid points per atom       ...      558
UseSFitting                                  ... on

GRIDX 2
-------
General Integration Accuracy     IntAcc      ... 4.020
Radial Grid Type                 RadialGrid  ... OptM3 with GC (2021)
Angular Grid (max. ang.)         AngularGrid ... 2 (Lebedev-110)
Angular grid pruning method      GridPruning ... 4 (adaptive)
Weight generation scheme         WeightScheme... mBecke (2022)
Basis function cutoff            BFCut       ... 1.0000e-11
Integration weight cutoff        WCut        ... 1.0000e-14
Partially contracted basis set               ... on
Rotationally invariant grid construction     ... off
Angular grids for H and He will be reduced by one unit

Total number of grid points                  ...    20097
Total number of batches                      ...      166
Average number of points per batch           ...      121
Average number of grid points per atom       ...     1182
UseSFitting                                  ... on

GRIDX 3
-------
General Integration Accuracy     IntAcc      ... 4.338
Radial Grid Type                 RadialGrid  ... OptM3 with GC (2021)
Angular Grid (max. ang.)         AngularGrid ... 3 (Lebedev-194)
Angular grid pruning method      GridPruning ... 4 (adaptive)
Weight generation scheme         WeightScheme... mBecke (2022)
Basis function cutoff            BFCut       ... 1.0000e-11
Integration weight cutoff        WCut        ... 1.0000e-14
Partially contracted basis set               ... on
Rotationally invariant grid construction     ... off
Angular grids for H and He will be reduced by one unit

Total number of grid points                  ...    43887
Total number of batches                      ...      354
Average number of points per batch           ...      123
Average number of grid points per atom       ...     2582
UseSFitting                                  ... on
Initializing property integral containers    ... done (  0.0 sec)

SHARK setup successfully completed in   0.4 seconds

Maximum memory used throughout the entire STARTUP-calculation: 20.5 MB


           ************************************************************
           *        Program running with 8 parallel MPI-processes     *
           *              working on a common directory               *
           ************************************************************
-------------------------------------------------------------------------------
                                 ORCA GUESS
                   Start orbitals & Density for SCF / CASSCF
-------------------------------------------------------------------------------

------------
SCF SETTINGS
------------
Hamiltonian:
 Density Functional     Method          .... DFT(GTOs)
 Exchange Functional    Exchange        .... PBE
   PBE kappa parameter   XKappa         ....  0.804000
   PBE mue parameter    XMuePBE         ....  0.219520
 Correlation Functional Correlation     .... PBE
   PBE beta parameter  CBetaPBE         ....  0.066725
 LDA part of GGA corr.  LDAOpt          .... PW91-LDA
 Gradients option       PostSCFGGA      .... off
 Hybrid DFT is turned on
   Fraction HF Exchange ScalHFX         ....  0.250000
   Scaling of DF-GGA-X  ScalDFX         ....  0.750000
   Scaling of DF-GGA-C  ScalDFC         ....  1.000000
   Scaling of DF-LDA-C  ScalLDAC        ....  1.000000
   Perturbative correction              ....  0.000000
   NL short-range parameter             ....  6.900000
 RI-approximation to the Coulomb term is turned on
   Number of AuxJ basis functions       .... 453
   RIJ-COSX (HFX calculated with COS-X)).... on


General Settings:
 Integral files         IntName         .... inpJ
 Hartree-Fock type      HFTyp           .... RHF
 Total Charge           Charge          ....    0
 Multiplicity           Mult            ....    1
 Number of Electrons    NEL             ....   54
 Basis Dimension        Dim             ....  121
 Nuclear Repulsion      ENuc            ....    311.7983259286 Eh

Convergence Acceleration:
 AO-DIIS                CNVDIIS         .... on
   Start iteration      DIISMaxIt       ....    12
   Startup error        DIISStart       ....  0.200000
   # of expansion vecs  DIISMaxEq       ....     5
   Bias factor          DIISBfac        ....   1.050
   Max. coefficient     DIISMaxC        ....  10.000
 MO-DIIS                CNVKDIIS        .... off
 Trust-Rad. Augm. Hess. CNVTRAH         .... auto
   Auto Start mean grad. ratio tolernc. ....  1.125000
   Auto Start start iteration           ....    50
   Auto Start num. interpolation iter.  ....    10
   Max. Number of Micro iterations      ....    24
   Max. Number of Macro iterations      .... Maxiter - #DIIS iter
   Number of Davidson start vectors     ....     2
   Converg. threshold    (grad. norm)   ....   1.000e-04
   Grad. Scal. Fac. for Micro threshold ....   0.100
   Minimum threshold for Micro iter.    ....   1.000e-02
   NR start threshold (gradient norm)   ....   1.000e-04
   Initial trust radius                 ....   0.400
   Minimum AH scaling param. (alpha)    ....   1.000
   Maximum AH scaling param. (alpha)    .... 1000.000
   Quad. conv. algorithm                .... NR
   White noise on init. David. guess    .... on
   Maximum white noise                  ....   0.010
   Pseudo random numbers                .... off
   Inactive MOs                         .... canonical
   Orbital update algorithm             .... Taylor
   Preconditioner                       .... Diag
   Full preconditioner red. dimension   ....   250
 SOSCF                  CNVSOSCF        .... off
 Level Shifting         CNVShift        .... on
   Level shift para.    LevelShift      ....    0.2500
   Turn off err/grad.   ShiftErr        ....    0.0010
 Zerner damping         CNVZerner       .... off
 Static damping         CNVDamp         .... on
   Fraction old density DampFac         ....    0.7000
   Max. Damping (<1)    DampMax         ....    0.9800
   Min. Damping (>=0)   DampMin         ....    0.0000
   Turn off err/grad.   DampErr         ....    0.1000

SCF Procedure:
 Maximum # iterations   MaxIter         ....   125
 SCF integral mode      SCFMode         .... Direct
   Integral package                     .... SHARK and LIBINT hybrid scheme
 Reset frequency        DirectResetFreq ....    20
 Integral Threshold     Thresh          ....  3.000e-11 Eh
 Primitive CutOff       TCut            ....  1.000e-12 Eh

Convergence Tolerance:
 Convergence Check Mode ConvCheckMode   .... Total+1el-Energy
 Convergence forced     ConvForced      .... 0
 Energy Change          TolE            ....  1.000e-07 Eh
 1-El. energy change                    ....  1.000e-04 Eh
 DIIS Error             TolErr          ....  1.000e-07

------------------------------
INITIAL GUESS: MODEL POTENTIAL
------------------------------
Loading Hartree-Fock densities                     ... done
Calculating cut-offs                               ... done
Initializing the effective Hamiltonian             ... done
Setting up the integral package (SHARK)            ... done
Starting the Coulomb interaction                   ... done (   0.0 sec)
Making the grid                                    ... done (   0.0 sec)
Mapping shells                                     ... done
Starting the XC term evaluation                    ... done (   0.0 sec)
  promolecular density results
     # of electrons  =     53.994616422
     EX              =    -41.808541557
     EC              =     -1.788040257
     EX+EC           =    -43.596581814
Transforming the Hamiltonian                       ... done (   0.0 sec)
Diagonalizing the Hamiltonian                      ... done (   0.0 sec)
Back transforming the eigenvectors                 ... done (   0.0 sec)
Now organizing SCF variables                       ... done
                      ------------------
                      INITIAL GUESS DONE (   0.1 sec)
                      ------------------
             **** ENERGY FILE WAS UPDATED (inpJ.en.tmp) ****
Finished Guess after   0.1 sec
Maximum memory used throughout the entire GUESS-calculation: 10.9 MB


           ************************************************************
           *        Program running with 8 parallel MPI-processes     *
           *              working on a common directory               *
           ************************************************************

-------------------------------------------------------------------------------------------
                                      ORCA LEAN-SCF
                              memory conserving SCF solver
-------------------------------------------------------------------------------------------

--------------------
CPCM SOLVATION MODEL
--------------------
CPCM parameters:
  Epsilon                                         ...       4.8030
  Refrac                                          ...       1.4459
  Rsolv                                           ...       1.3000
  Surface type                                    ... GAUSSIAN VDW
  Discretization scheme                           ... Constant charge density
    Threshold for H atoms                         ...       5.0000 (charges/Ang^2)
    Threshold for non-H atoms                     ...       5.0000 (charges/Ang^2)
  Epsilon function type                           ...         CPCM
Solvent:                                          ... CHLOROFORM
Radii:
  Scheme                                          ... Element-dependent radii
  Radius for C  used is    3.8550 Bohr (=   2.0400 Ang.)
  Radius for H  used is    2.4944 Bohr (=   1.3200 Ang.)
  Radius for O  used is    3.4469 Bohr (=   1.8240 Ang.)
Calculating surface                               ...        done! (  0.0s)
Cavity surface points                             ...         1431
Cavity Volume                                     ...     899.0310
Cavity Surface-area                               ...     518.1702
Calculating surface distance matrix               ...        done! (  0.0s)
Performing Cholesky decomposition & store         ...        done! (  0.0s)
Overall time for CPCM initialization              ...                 0.0s

----------------------------------------D-I-I-S--------------------------------------------
Iteration    Energy (Eh)           Delta-E    RMSDP     MaxDP     DIISErr   Damp  Time(sec)
-------------------------------------------------------------------------------------------
               ***  Starting incremental Fock matrix formation  ***
    1    -308.8649179269425531     0.00e+00  3.31e-03  7.87e-02  1.96e-01  0.700   0.2

  HOMO=  26 E= -3.991 eV LUMO=  7.593 eV gap=  11.584 eV
    2    -308.9327426103809557    -6.78e-02  2.28e-03  4.71e-02  8.68e-02  0.700   0.2

  HOMO=  26 E= -5.574 eV LUMO=  7.163 eV gap=  12.737 eV
                               ***Turning on AO-DIIS***
    3    -308.9608921148960690    -2.81e-02  9.21e-04  1.95e-02  3.71e-02  0.700   0.2

  HOMO=  26 E= -6.948 eV LUMO=  6.551 eV gap=  13.499 eV
    4    -308.9775014680050162    -1.66e-02  1.43e-03  2.42e-02  2.65e-02  0.000   0.1

  HOMO=  26 E= -7.005 eV LUMO=  6.457 eV gap=  13.462 eV
    5    -309.0136207973590672    -3.61e-02  2.37e-04  4.44e-03  3.31e-03  0.000   0.1

  HOMO=  26 E= -7.048 eV LUMO=  6.404 eV gap=  13.452 eV
    6    -309.0137086896205574    -8.79e-05  7.09e-05  1.34e-03  1.46e-03  0.000   0.1

  HOMO=  26 E= -7.033 eV LUMO=  6.432 eV gap=  13.465 eV
    7    -309.0137155780543026    -6.89e-06  2.16e-05  4.87e-04  5.94e-04  0.000   0.1

  HOMO=  26 E= -7.022 eV LUMO=  6.438 eV gap=  13.460 eV
               *** Restarting incremental Fock matrix formation ***
                             ****Resetting DIIS****
    8    -309.0137035272333605     1.21e-05  1.36e-05  3.68e-04  8.69e-05  0.000   0.2

  HOMO=  26 E= -7.022 eV LUMO= -0.366 eV gap=   6.656 eV
    9    -309.0137036218645790    -9.46e-08  3.41e-06  1.51e-04  6.59e-05  0.000   0.2
                 **** Energy Check signals convergence ****

  HOMO=  26 E= -7.021 eV LUMO= -0.365 eV gap=   6.657 eV

               *****************************************************
               *                     SUCCESS                       *
               *           SCF CONVERGED AFTER   9 CYCLES          *
               *****************************************************

Recomputing exchange energy using gridx3       ... done (    0.298 sec)
Old exchange energy                            :    -10.682992141 Eh
New exchange energy                            :    -10.682959130 Eh
Exchange energy change after final integration :      0.000033012 Eh
Total energy after final integration           :   -309.013670610 Eh
             **** ENERGY FILE WAS UPDATED (inpJ.en.tmp) ****

----------------
TOTAL SCF ENERGY
----------------

Total Energy       :       -309.01367061007528 Eh           -8408.68947 eV

Components:
Nuclear Repulsion  :        311.79832592860873 Eh            8484.46379 eV
Electronic Energy  :       -620.80452220599454 Eh          -16892.94987 eV
One Electron Energy:      -1034.57569541117232 Eh          -28152.23590 eV
Two Electron Energy:        413.77117320517772 Eh           11259.28603 eV
CPCM Dielectric    :         -0.00750734447870 Eh              -0.20429 eV

Virial components:
Potential Energy   :       -616.05595005058649 Eh          -16763.73465 eV
Kinetic Energy     :        307.04227944051115 Eh            8355.04519 eV
Virial Ratio       :          2.00642058537722

DFT components:
N(Alpha)           :       26.999991159876 electrons
N(Beta)            :       26.999991159876 electrons
N(Total)           :       53.999982319752 electrons
E(X)               :      -31.962856479798 Eh       
E(C)               :       -1.797216269588 Eh       
E(XC)              :      -33.760072749386 Eh       

CPCM Solvation Model Properties:
Surface-charge          :         -0.01526253927921
Corrected charge        :         -0.00000000000000
Outlying charge corr.   :          0.00001482130681 Eh               0.00040 eV
Free-energy (cav+disp)  :  This term is not implemented in the current solvation scheme

---------------
SCF CONVERGENCE
---------------

  Last Energy change         ...    9.4631e-08  Tolerance :   1.0000e-07
  Last MAX-Density change    ...    1.5127e-04  Tolerance :   1.0000e-05
  Last RMS-Density change    ...    3.4073e-06  Tolerance :   1.0000e-06
  Last DIIS Error            ...    6.5872e-05  Tolerance :   1.0000e-07


----------------
ORBITAL ENERGIES
----------------

  NO   OCC          E(Eh)            E(eV) 
   0   2.0000     -19.234966      -523.4100 
   1   2.0000     -10.352022      -281.6928 
   2   2.0000     -10.247685      -278.8537 
   3   2.0000     -10.247651      -278.8528 
   4   2.0000     -10.247390      -278.8457 
   5   2.0000     -10.247155      -278.8393 
   6   2.0000     -10.241973      -278.6983 
   7   2.0000      -1.097918       -29.8759 
   8   2.0000      -0.870900       -23.6984 
   9   2.0000      -0.787434       -21.4272 
  10   2.0000      -0.757581       -20.6148 
  11   2.0000      -0.653234       -17.7754 
  12   2.0000      -0.615004       -16.7351 
  13   2.0000      -0.556111       -15.1325 
  14   2.0000      -0.499405       -13.5895 
  15   2.0000      -0.488622       -13.2961 
  16   2.0000      -0.465317       -12.6619 
  17   2.0000      -0.462080       -12.5738 
  18   2.0000      -0.443126       -12.0581 
  19   2.0000      -0.424861       -11.5611 
  20   2.0000      -0.409827       -11.1520 
  21   2.0000      -0.383362       -10.4318 
  22   2.0000      -0.372565       -10.1380 
  23   2.0000      -0.344237        -9.3672 
  24   2.0000      -0.342827        -9.3288 
  25   2.0000      -0.340260        -9.2589 
  26   2.0000      -0.258022        -7.0211 
  27   0.0000      -0.013379        -0.3641 
  28   0.0000       0.109874         2.9898 
  29   0.0000       0.117489         3.1970 
  30   0.0000       0.142690         3.8828 
  31   0.0000       0.152007         4.1363 
  32   0.0000       0.158846         4.3224 
  33   0.0000       0.167197         4.5497 
  34   0.0000       0.174112         4.7378 
  35   0.0000       0.177113         4.8195 
  36   0.0000       0.188838         5.1386 
  37   0.0000       0.192736         5.2446 
*Only the first 10 virtual orbitals were printed.

                    ********************************
                    * MULLIKEN POPULATION ANALYSIS *
                    ********************************

-----------------------
MULLIKEN ATOMIC CHARGES
-----------------------
   0 C :   -0.416052
   1 C :   -0.419639
   2 C :   -0.497567
   3 H :    0.213607
   4 H :    0.229761
   5 C :    0.254630
   6 H :    0.238093
   7 H :    0.234513
   8 C :   -0.497558
   9 C :   -0.419636
  10 H :    0.238090
  11 H :    0.234510
  12 H :    0.213590
  13 H :    0.229758
  14 H :    0.206730
  15 H :    0.227887
  16 O :   -0.270717
Sum of atomic charges:   -0.0000000

--------------------------------
MULLIKEN REDUCED ORBITAL CHARGES
--------------------------------
  0 C s       :     3.322766  s :     3.322766
      pz      :     1.162232  p :     3.093286
      px      :     1.067359
      py      :     0.863695

  1 C s       :     3.327158  s :     3.327158
      pz      :     1.123455  p :     3.092481
      px      :     0.921742
      py      :     1.047284

  2 C s       :     3.361299  s :     3.361299
      pz      :     1.148053  p :     3.136268
      px      :     0.967418
      py      :     1.020796

  3 H s       :     0.786393  s :     0.786393

  4 H s       :     0.770239  s :     0.770239

  5 C s       :     3.281616  s :     3.281616
      pz      :     0.775180  p :     2.463755
      px      :     0.804842
      py      :     0.883732

  6 H s       :     0.761907  s :     0.761907

  7 H s       :     0.765487  s :     0.765487

  8 C s       :     3.361300  s :     3.361300
      pz      :     1.148053  p :     3.136258
      px      :     0.967421
      py      :     1.020784

  9 C s       :     3.327154  s :     3.327154
      pz      :     1.123456  p :     3.092482
      px      :     0.921740
      py      :     1.047286

 10 H s       :     0.761910  s :     0.761910

 11 H s       :     0.765490  s :     0.765490

 12 H s       :     0.786410  s :     0.786410

 13 H s       :     0.770242  s :     0.770242

 14 H s       :     0.793270  s :     0.793270

 15 H s       :     0.772113  s :     0.772113

 16 O s       :     3.681683  s :     3.681683
      pz      :     1.321422  p :     4.589033
      px      :     1.419634
      py      :     1.847977


------------------------
MULLIKEN OVERLAP CHARGES
------------------------
B(  0-C ,  1-C ) :   0.5646 B(  0-C ,  2-C ) :  -0.1742 B(  0-C ,  3-H ) :  -0.0775 
B(  0-C ,  4-H ) :  -0.0584 B(  0-C ,  8-C ) :  -0.1742 B(  0-C ,  9-C ) :   0.5646 
B(  0-C , 12-H ) :  -0.0776 B(  0-C , 13-H ) :  -0.0584 B(  0-C , 14-H ) :   0.8047 
B(  0-C , 15-H ) :   0.8171 B(  1-C ,  2-C ) :   0.5350 B(  1-C ,  3-H ) :   0.8053 
B(  1-C ,  4-H ) :   0.8168 B(  1-C ,  5-C ) :  -0.1218 B(  1-C ,  6-H ) :  -0.0505 
B(  1-C ,  7-H ) :  -0.0666 B(  1-C ,  9-C ) :  -0.1805 B(  1-C , 14-H ) :  -0.0794 
B(  1-C , 15-H ) :  -0.0596 B(  2-C ,  3-H ) :  -0.0841 B(  2-C ,  4-H ) :  -0.0625 
B(  2-C ,  5-C ) :   0.4260 B(  2-C ,  6-H ) :   0.7874 B(  2-C ,  7-H ) :   0.7876 
B(  2-C ,  8-C ) :  -0.1951 B(  2-C , 16-O ) :  -0.1761 B(  5-C ,  6-H ) :  -0.0799 
B(  5-C ,  7-H ) :  -0.0641 B(  5-C ,  8-C ) :   0.4260 B(  5-C ,  9-C ) :  -0.1218 
B(  5-C , 10-H ) :  -0.0799 B(  5-C , 11-H ) :  -0.0641 B(  5-C , 16-O ) :   1.4683 
B(  8-C ,  9-C ) :   0.5350 B(  8-C , 10-H ) :   0.7874 B(  8-C , 11-H ) :   0.7876 
B(  8-C , 12-H ) :  -0.0841 B(  8-C , 13-H ) :  -0.0624 B(  8-C , 16-O ) :  -0.1762 
B(  9-C , 10-H ) :  -0.0505 B(  9-C , 11-H ) :  -0.0666 B(  9-C , 12-H ) :   0.8053 
B(  9-C , 13-H ) :   0.8168 B(  9-C , 14-H ) :  -0.0794 B(  9-C , 15-H ) :  -0.0596 



                      *****************************
                      * MAYER POPULATION ANALYSIS *
                      *****************************

  NA   - Mulliken gross atomic population
  ZA   - Total nuclear charge
  QA   - Mulliken gross atomic charge
  VA   - Mayer's total valence
  BVA  - Mayer's bonded valence
  FA   - Mayer's free valence

  ATOM       NA         ZA         QA         VA         BVA        FA
  0 C      6.4161     6.0000    -0.4161     3.7030     3.7030    -0.0000
  1 C      6.4196     6.0000    -0.4196     3.7037     3.7037    -0.0000
  2 C      6.4976     6.0000    -0.4976     3.6499     3.6499    -0.0000
  3 H      0.7864     1.0000     0.2136     0.9402     0.9402     0.0000
  4 H      0.7702     1.0000     0.2298     0.9384     0.9384    -0.0000
  5 C      5.7454     6.0000     0.2546     3.8032     3.8032     0.0000
  6 H      0.7619     1.0000     0.2381     0.9480     0.9480     0.0000
  7 H      0.7655     1.0000     0.2345     0.9375     0.9375     0.0000
  8 C      6.4976     6.0000    -0.4976     3.6499     3.6499    -0.0000
  9 C      6.4196     6.0000    -0.4196     3.7037     3.7037    -0.0000
 10 H      0.7619     1.0000     0.2381     0.9480     0.9480     0.0000
 11 H      0.7655     1.0000     0.2345     0.9375     0.9375    -0.0000
 12 H      0.7864     1.0000     0.2136     0.9402     0.9402    -0.0000
 13 H      0.7702     1.0000     0.2298     0.9384     0.9384    -0.0000
 14 H      0.7933     1.0000     0.2067     0.9438     0.9438     0.0000
 15 H      0.7721     1.0000     0.2279     0.9392     0.9392    -0.0000
 16 O      8.2707     8.0000    -0.2707     2.3209     2.3209    -0.0000

  Mayer bond orders larger than 0.100000
B(  0-C ,  1-C ) :   0.9337 B(  0-C ,  9-C ) :   0.9337 B(  0-C , 14-H ) :   0.9359 
B(  0-C , 15-H ) :   0.9469 B(  1-C ,  2-C ) :   0.9199 B(  1-C ,  3-H ) :   0.9341 
B(  1-C ,  4-H ) :   0.9454 B(  2-C ,  5-C ) :   0.8434 B(  2-C ,  6-H ) :   0.9367 
B(  2-C ,  7-H ) :   0.9216 B(  5-C ,  8-C ) :   0.8435 B(  5-C , 16-O ) :   2.1463 
B(  8-C ,  9-C ) :   0.9199 B(  8-C , 10-H ) :   0.9367 B(  8-C , 11-H ) :   0.9216 
B(  9-C , 12-H ) :   0.9341 B(  9-C , 13-H ) :   0.9454 

-------
TIMINGS
-------

Total SCF time: 0 days 0 hours 0 min 1 sec 

Total time                  ....       1.868 sec
Sum of individual times     ....       1.855 sec  ( 99.3%)

SCF preparation             ....       0.130 sec  (  7.0%)
Fock matrix formation       ....       1.648 sec  ( 88.2%)
  Startup                   ....       0.003 sec  (  0.2% of F)
  Split-RI-J                ....       0.140 sec  (  8.5% of F)
  Chain of spheres X        ....       0.880 sec  ( 53.4% of F)
  XC integration            ....       0.286 sec  ( 17.3% of F)
    XC Preparation          ....       0.000 sec  (  0.0% of XC)
    Basis function eval.    ....       0.091 sec  ( 31.8% of XC)
    Density eval.           ....       0.050 sec  ( 17.4% of XC)
    XC-Functional eval.     ....       0.023 sec  (  8.1% of XC)
    XC-Potential eval.      ....       0.042 sec  ( 14.7% of XC)
  CPCM terms                ....       0.323 sec  ( 19.6% of F)
Diagonalization             ....       0.000 sec  (  0.0%)
Density matrix formation    ....       0.006 sec  (  0.3%)
Total Energy calculation    ....       0.007 sec  (  0.4%)
Population analysis         ....       0.003 sec  (  0.2%)
Orbital Transformation      ....       0.007 sec  (  0.4%)
Orbital Orthonormalization  ....       0.000 sec  (  0.0%)
DIIS solution               ....       0.054 sec  (  2.9%)
Finished LeanSCF after   1.9 sec

Maximum memory used throughout the entire LEANSCF-calculation: 12.9 MB


           ************************************************************
           *        Program running with 8 parallel MPI-processes     *
           *              working on a common directory               *
           ************************************************************

------------------------------------------------------------------------------
                         ORCA PROPERTY INTEGRAL CALCULATIONS
------------------------------------------------------------------------------

GBWName                                   ... inpJ.gbw
Number of atoms                           ...     17
Number of basis functions                 ...    121
Max core memory                           ...   8000 MB

Dipole integrals                          ... YES
Quadrupole integrals                      ...  NO
Linear momentum integrals                 ...  NO
Angular momentum integrals                ...  NO
Higher moments length integrals           ...  NO
Higher moments velocity integrals         ...  NO
Kinetic energy integrals                  ...  NO
GIAO right hand sides                     ...  NO
GIAO dipole derivative integrals          ...  NO
SOC integrals                             ...  NO
EPR diamagnetic integrals (GIAO)          ...  NO
EPR gauge integrals                       ...  NO
Field gradient integrals                  ...  NO (   0 nuclei)
Spin-dipole/Fermi contact integrals       ... YES (   6 nuclei)
Contact density integrals                 ...  NO (   0 nuclei)
Nucleus-orbit integrals                   ...  NO (   0 nuclei)
Geometric perturbations                   ...  NO (  17 nuclei)

Choice of electric origin   ... Center of mass
Position of electric origin ... (  0.0000,  0.0000, -0.0000) 
Choice of magnetic origin   ... GIAO
Position of magnetic origin ... (  0.0000,  0.0000,  0.0000) 

Calculating integrals                     ... Electric Dipole (Length)     done (  0.0 sec)
Calculating integrals                     ... SD/FC/EFG integrals          done (  0.0 sec)

Property integrals calculated in   0.0 sec

Maximum memory used throughout the entire PROPINT-calculation: 7.5 MB


-------------------------------------------------------------------------------
                          DFT DISPERSION CORRECTION                            
                                                                               
                                DFTD4 V3.4.0                                   
-------------------------------------------------------------------------------
The PBE0 functional is recognized
Active option DFTDOPT                   ...         5   

-------------------------   ----------------
Dispersion correction           -0.012409106
-------------------------   ----------------


-------------------------   --------------------
FINAL SINGLE POINT ENERGY      -309.026079716555
-------------------------   --------------------



           ************************************************************
           *        Program running with 8 parallel MPI-processes     *
           *              working on a common directory               *
           ************************************************************
------------------------------------------------------------------------------
                            ORCA SCF RESPONSE CALCULATION
------------------------------------------------------------------------------

GBWName                                 ... inpJ.gbw
Number of atoms                         ...     17
Number of basis functions               ...    121
Max core memory                         ...   8000 MB

Electric field perturbation             ...  NO
Quadrupolar field perturbation          ...  NO
Magnetic field perturbation (no GIAO)   ...  NO
Magnetic field perturbation (with GIAO) ...  NO
Linear momentum (velocity) perturbation ...  NO
Spin-orbit coupling perturbation        ...  NO
Choice of electric origin               ... Center of mass
Position of electric origin             ...     0.000037     0.000000    -0.000006
Choice of magnetic origin               ... GIAO
Position of magnetic origin             ...     0.000000     0.000000     0.000000
Nuclear geometric perturbations         ...  NO (  51 perturbations)
Nucleus-orbit perturbations             ...  NO (   0 perturbations)
Spin-dipole/Fermi contact perturbations ... YES (   5 perturbations)

Total number of real perturbations      ...      0
Total number of imaginary perturbations ...      0
Total number of triplet perturbations   ...      5
Total number of SOC perturbations       ...      0

Using XC Grid                  ... (inpJ.grid_cpscf.tmp) 
Recalculating density on grid  ... (inpJ.grho_cpscf0.tmp) done
Calculating the xc-kernel      ... (inpJ.fxc_cpscf0.tmp) done

                               *************************
                               * TRIPLET PERTURBATIONS *
                               *************************



-------------------
SHARK CP-SCF DRIVER
-------------------

Dimension of the orbital basis          ...    121
Dimension of the CPSCF-problem          ...   2538
Number of operators                     ...      1
Max. number of iterations               ...    128
Convergence Tolerance                   ... 1.0e-03
Number of perturbations                 ...      5
Perturbation type                       ... TRIPLET

----------------------------
POPLE LINEAR EQUATION SOLVER
----------------------------

  ITERATION   0:   ||err||_max =   2.4028e+00 (   0.1 sec   0/  5 done)
  ITERATION   1:   ||err||_max =   4.4088e-01 (   0.1 sec   0/  5 done)
  ITERATION   2:   ||err||_max =   5.4544e-02 (   0.1 sec   0/  5 done)
  ITERATION   3:   ||err||_max =   2.1144e-02 (   0.1 sec   0/  5 done)
  ITERATION   4:   ||err||_max =   4.7738e-03 (   0.1 sec   0/  5 done)
  ITERATION   5:   ||err||_max =   8.7772e-04 (   0.1 sec   5/  5 done)

CP-SCF equations solved in   0.6 sec
Response densities calculated in   0.0 sec

Maximum memory used throughout the entire SCFRESP-calculation: 13.6 MB


           ************************************************************
           *        Program running with 8 parallel MPI-processes     *
           *              working on a common directory               *
           ************************************************************

------------------------------------------------------------------------------
                              ORCA PROPERTY CALCULATIONS
------------------------------------------------------------------------------

GBWName                                 ... inpJ.gbw
Number of atoms                         ...     17
Number of basis functions               ...    121
Max core memory                         ...   8000 MB

Electric properties:
Dipole moment                           ... YES
Quadrupole moment                       ...  NO
Static polarizability (Dipole/Dipole)   ...  NO
Static polarizability (Dipole/Quad.)    ...  NO
Static polarizability (Quad./Quad.)     ...  NO
Static polarizability (Velocity)        ...  NO

Atomic electric properties:
Dipole moment                           ...  NO
Quadrupole moment                       ...  NO
Static polarizability                   ...  NO

Choice of electric origin               ... Center of mass
Position of electric origin             ...     0.000037     0.000000    -0.000006

General magnetic properties:
Magnetizability                         ...  NO

EPR properties:
g-Tensor (aka g-matrix)                 ...  NO
Zero-Field splitting spin-orbit         ...  NO
Zero-field splitting spin-spin          ...  NO
Hyperfine couplings                     ...  NO (   0 nuclei)
Quadrupole couplings                    ...  NO (   0 nuclei)
Contact density                         ...  NO (   0 nuclei)

NMR properties:
Chemical shifts                         ...  NO (   0 nuclei)
Spin-rotation constants                 ...  NO (   0 nuclei)
Spin-spin couplings                     ... YES (   6 nuclei,   15 pairs)

Choice of magnetic origin               ... GIAO
Position of magnetic origin             ...     0.000000     0.000000     0.000000

Properties with geometric perturbations:
SCF Hessian                             ...  NO
IR spectrum                             ...  NO
VCD spectrum                            ...  NO
X-ray spectroscopy properties:
SCF XES/XAS/RIXS spectra                ...  NO


-------------
DIPOLE MOMENT
-------------

Method             : SCF
Type of density    : Electron Density
Multiplicity       :   1
Irrep              :   0
Energy             :  -309.0136706100752804 Eh
Relativity type    : 
Basis              : AO
                                X                 Y                 Z
Electronic contribution:     -5.797704822      -0.000144941       0.484149440
Nuclear contribution   :      7.261736260       0.000138457      -0.977121368
                        -----------------------------------------
Total Dipole Moment    :      1.464031438      -0.000006484      -0.492971929
                        -----------------------------------------
Magnitude (a.u.)       :      1.544800755
Magnitude (Debye)      :      3.926571470



--------------------
Rotational spectrum 
--------------------
 
Rotational constants in cm-1:             0.141424             0.084680             0.059759 
Rotational constants in MHz :          4239.795622          2538.633805          1791.530878 

Dipole components along the rotational axes: 
x,y,z [a.u.] :     1.464029     0.000006    -0.492978 
x,y,z [Debye]:     3.721267     0.000016    -1.253050 

 

Dipole moment calculation done in   0.0 sec 


-----------------------------------------------------------------------
                     NMR SPIN-SPIN COUPLING CONSTANTS
                     ================================

    Number of nuclear pairs to calculate something:       15
                                                        ----
    Number of nuclear pairs to calculate DSO   terms:      0
    Number of nuclear pairs to calculate PSO   terms:      0
    Number of nuclear pairs to calculate FC    terms:     15
    Number of nuclear pairs to calculate SD    terms:      0
    Number of nuclear pairs to calculate SD/FC terms:      0
-----------------------------------------------------------------------

Processing SD/FC nuclear pairs ... done (   0.0 sec)

-----------------------------------------------------------
 NUCLEUS A = C    0 NUCLEUS B = C    1 
 ( 13C  gnA =  1.405  13C  gnB =  1.405) r(AB) =     1.5244
-----------------------------------------------------------

Fermi-contact contribution to J (Hz):
       23.5959         0.0000        0.0000
        0.0000        23.5959        0.0000
        0.0000         0.0000       23.5959

Total spin-spin coupling tensor J (Hz):
       23.5959         0.0000        0.0000
        0.0000        23.5959        0.0000
        0.0000         0.0000       23.5959

 Diagonalized JT*J matrix:
 
 J[0,1](FC)            23.596           23.596           23.596  iso=     23.596
              ---------------  ---------------  ---------------  ---------------
 J[0,1](Total)         23.596           23.596           23.596  iso=     23.596



-----------------------------------------------------------
 NUCLEUS A = C    0 NUCLEUS B = C    2 
 ( 13C  gnA =  1.405  13C  gnB =  1.405) r(AB) =     2.5129
-----------------------------------------------------------

Fermi-contact contribution to J (Hz):
       -2.1247         0.0000        0.0000
        0.0000        -2.1247        0.0000
        0.0000         0.0000       -2.1247

Total spin-spin coupling tensor J (Hz):
       -2.1247         0.0000        0.0000
        0.0000        -2.1247        0.0000
        0.0000         0.0000       -2.1247

 Diagonalized JT*J matrix:
 
 J[0,2](FC)            -2.125           -2.125           -2.125  iso=     -2.125
              ---------------  ---------------  ---------------  ---------------
 J[0,2](Total)         -2.125           -2.125           -2.125  iso=     -2.125



-----------------------------------------------------------
 NUCLEUS A = C    0 NUCLEUS B = C    5 
 ( 13C  gnA =  1.405  13C  gnB =  1.405) r(AB) =     2.9154
-----------------------------------------------------------

Fermi-contact contribution to J (Hz):
        1.8769         0.0000        0.0000
        0.0000         1.8769        0.0000
        0.0000         0.0000        1.8769

Total spin-spin coupling tensor J (Hz):
        1.8769         0.0000        0.0000
        0.0000         1.8769        0.0000
        0.0000         0.0000        1.8769

 Diagonalized JT*J matrix:
 
 J[0,5](FC)             1.877            1.877            1.877  iso=      1.877
              ---------------  ---------------  ---------------  ---------------
 J[0,5](Total)          1.877            1.877            1.877  iso=      1.877



-----------------------------------------------------------
 NUCLEUS A = C    0 NUCLEUS B = C    8 
 ( 13C  gnA =  1.405  13C  gnB =  1.405) r(AB) =     2.5129
-----------------------------------------------------------

Fermi-contact contribution to J (Hz):
       -2.1241         0.0000        0.0000
        0.0000        -2.1241        0.0000
        0.0000         0.0000       -2.1241

Total spin-spin coupling tensor J (Hz):
       -2.1241         0.0000        0.0000
        0.0000        -2.1241        0.0000
        0.0000         0.0000       -2.1241

 Diagonalized JT*J matrix:
 
 J[0,8](FC)            -2.124           -2.124           -2.124  iso=     -2.124
              ---------------  ---------------  ---------------  ---------------
 J[0,8](Total)         -2.124           -2.124           -2.124  iso=     -2.124



-----------------------------------------------------------
 NUCLEUS A = C    0 NUCLEUS B = C    9 
 ( 13C  gnA =  1.405  13C  gnB =  1.405) r(AB) =     1.5244
-----------------------------------------------------------

Fermi-contact contribution to J (Hz):
       23.5919         0.0000        0.0000
        0.0000        23.5919        0.0000
        0.0000         0.0000       23.5919

Total spin-spin coupling tensor J (Hz):
       23.5919         0.0000        0.0000
        0.0000        23.5919        0.0000
        0.0000         0.0000       23.5919

 Diagonalized JT*J matrix:
 
 J[0,9](FC)            23.592           23.592           23.592  iso=     23.592
              ---------------  ---------------  ---------------  ---------------
 J[0,9](Total)         23.592           23.592           23.592  iso=     23.592



-----------------------------------------------------------
 NUCLEUS A = C    1 NUCLEUS B = C    2 
 ( 13C  gnA =  1.405  13C  gnB =  1.405) r(AB) =     1.5309
-----------------------------------------------------------

Fermi-contact contribution to J (Hz):
       21.6550         0.0000        0.0000
        0.0000        21.6550        0.0000
        0.0000         0.0000       21.6550

Total spin-spin coupling tensor J (Hz):
       21.6550         0.0000        0.0000
        0.0000        21.6550        0.0000
        0.0000         0.0000       21.6550

 Diagonalized JT*J matrix:
 
 J[1,2](FC)            21.655           21.655           21.655  iso=     21.655
              ---------------  ---------------  ---------------  ---------------
 J[1,2](Total)         21.655           21.655           21.655  iso=     21.655



-----------------------------------------------------------
 NUCLEUS A = C    1 NUCLEUS B = C    5 
 ( 13C  gnA =  1.405  13C  gnB =  1.405) r(AB) =     2.4997
-----------------------------------------------------------

Fermi-contact contribution to J (Hz):
       -2.1479         0.0000        0.0000
        0.0000        -2.1479        0.0000
        0.0000         0.0000       -2.1479

Total spin-spin coupling tensor J (Hz):
       -2.1479         0.0000        0.0000
        0.0000        -2.1479        0.0000
        0.0000         0.0000       -2.1479

 Diagonalized JT*J matrix:
 
 J[1,5](FC)            -2.148           -2.148           -2.148  iso=     -2.148
              ---------------  ---------------  ---------------  ---------------
 J[1,5](Total)         -2.148           -2.148           -2.148  iso=     -2.148



-----------------------------------------------------------
 NUCLEUS A = C    1 NUCLEUS B = C    8 
 ( 13C  gnA =  1.405  13C  gnB =  1.405) r(AB) =     2.9437
-----------------------------------------------------------

Fermi-contact contribution to J (Hz):
        0.2219         0.0000        0.0000
        0.0000         0.2219        0.0000
        0.0000         0.0000        0.2219

Total spin-spin coupling tensor J (Hz):
        0.2219         0.0000        0.0000
        0.0000         0.2219        0.0000
        0.0000         0.0000        0.2219

 Diagonalized JT*J matrix:
 
 J[1,8](FC)             0.222            0.222            0.222  iso=      0.222
              ---------------  ---------------  ---------------  ---------------
 J[1,8](Total)          0.222            0.222            0.222  iso=      0.222



-----------------------------------------------------------
 NUCLEUS A = C    1 NUCLEUS B = C    9 
 ( 13C  gnA =  1.405  13C  gnB =  1.405) r(AB) =     2.4998
-----------------------------------------------------------

Fermi-contact contribution to J (Hz):
       -1.8295         0.0000        0.0000
        0.0000        -1.8295        0.0000
        0.0000         0.0000       -1.8295

Total spin-spin coupling tensor J (Hz):
       -1.8295         0.0000        0.0000
        0.0000        -1.8295        0.0000
        0.0000         0.0000       -1.8295

 Diagonalized JT*J matrix:
 
 J[1,9](FC)            -1.829           -1.829           -1.829  iso=     -1.829
              ---------------  ---------------  ---------------  ---------------
 J[1,9](Total)         -1.829           -1.829           -1.829  iso=     -1.829



-----------------------------------------------------------
 NUCLEUS A = C    2 NUCLEUS B = C    5 
 ( 13C  gnA =  1.405  13C  gnB =  1.405) r(AB) =     1.5111
-----------------------------------------------------------

Fermi-contact contribution to J (Hz):
       28.3370         0.0000        0.0000
        0.0000        28.3370        0.0000
        0.0000         0.0000       28.3370

Total spin-spin coupling tensor J (Hz):
       28.3370         0.0000        0.0000
        0.0000        28.3370        0.0000
        0.0000         0.0000       28.3370

 Diagonalized JT*J matrix:
 
 J[2,5](FC)            28.337           28.337           28.337  iso=     28.337
              ---------------  ---------------  ---------------  ---------------
 J[2,5](Total)         28.337           28.337           28.337  iso=     28.337



-----------------------------------------------------------
 NUCLEUS A = C    2 NUCLEUS B = C    8 
 ( 13C  gnA =  1.405  13C  gnB =  1.405) r(AB) =     2.5287
-----------------------------------------------------------

Fermi-contact contribution to J (Hz):
        7.1124         0.0000        0.0000
        0.0000         7.1124        0.0000
        0.0000         0.0000        7.1124

Total spin-spin coupling tensor J (Hz):
        7.1124         0.0000        0.0000
        0.0000         7.1124        0.0000
        0.0000         0.0000        7.1124

 Diagonalized JT*J matrix:
 
 J[2,8](FC)             7.112            7.112            7.112  iso=      7.112
              ---------------  ---------------  ---------------  ---------------
 J[2,8](Total)          7.112            7.112            7.112  iso=      7.112



-----------------------------------------------------------
 NUCLEUS A = C    2 NUCLEUS B = C    9 
 ( 13C  gnA =  1.405  13C  gnB =  1.405) r(AB) =     2.9437
-----------------------------------------------------------

Fermi-contact contribution to J (Hz):
        0.2248         0.0000        0.0000
        0.0000         0.2248        0.0000
        0.0000         0.0000        0.2248

Total spin-spin coupling tensor J (Hz):
        0.2248         0.0000        0.0000
        0.0000         0.2248        0.0000
        0.0000         0.0000        0.2248

 Diagonalized JT*J matrix:
 
 J[2,9](FC)             0.225            0.225            0.225  iso=      0.225
              ---------------  ---------------  ---------------  ---------------
 J[2,9](Total)          0.225            0.225            0.225  iso=      0.225



-----------------------------------------------------------
 NUCLEUS A = C    5 NUCLEUS B = C    8 
 ( 13C  gnA =  1.405  13C  gnB =  1.405) r(AB) =     1.5111
-----------------------------------------------------------

Fermi-contact contribution to J (Hz):
       28.3400         0.0000        0.0000
        0.0000        28.3400        0.0000
        0.0000         0.0000       28.3400

Total spin-spin coupling tensor J (Hz):
       28.3400         0.0000        0.0000
        0.0000        28.3400        0.0000
        0.0000         0.0000       28.3400

 Diagonalized JT*J matrix:
 
 J[5,8](FC)            28.340           28.340           28.340  iso=     28.340
              ---------------  ---------------  ---------------  ---------------
 J[5,8](Total)         28.340           28.340           28.340  iso=     28.340



-----------------------------------------------------------
 NUCLEUS A = C    5 NUCLEUS B = C    9 
 ( 13C  gnA =  1.405  13C  gnB =  1.405) r(AB) =     2.4997
-----------------------------------------------------------

Fermi-contact contribution to J (Hz):
       -2.1481         0.0000        0.0000
        0.0000        -2.1481        0.0000
        0.0000         0.0000       -2.1481

Total spin-spin coupling tensor J (Hz):
       -2.1481         0.0000        0.0000
        0.0000        -2.1481        0.0000
        0.0000         0.0000       -2.1481

 Diagonalized JT*J matrix:
 
 J[5,9](FC)            -2.148           -2.148           -2.148  iso=     -2.148
              ---------------  ---------------  ---------------  ---------------
 J[5,9](Total)         -2.148           -2.148           -2.148  iso=     -2.148



-----------------------------------------------------------
 NUCLEUS A = C    8 NUCLEUS B = C    9 
 ( 13C  gnA =  1.405  13C  gnB =  1.405) r(AB) =     1.5309
-----------------------------------------------------------

Fermi-contact contribution to J (Hz):
       21.6646         0.0000        0.0000
        0.0000        21.6646        0.0000
        0.0000         0.0000       21.6646

Total spin-spin coupling tensor J (Hz):
       21.6646         0.0000        0.0000
        0.0000        21.6646        0.0000
        0.0000         0.0000       21.6646

 Diagonalized JT*J matrix:
 
 J[8,9](FC)            21.665           21.665           21.665  iso=     21.665
              ---------------  ---------------  ---------------  ---------------
 J[8,9](Total)         21.665           21.665           21.665  iso=     21.665



-----------------------------------------------------------------------------
                SUMMARY OF ISOTROPIC COUPLING CONSTANTS J (Hz)                
-----------------------------------------------------------------------------
                  0 C        1 C        2 C        5 C        8 C        9 C  
      0 C        0.000     23.596     -2.125      1.877     -2.124     23.592
      1 C       23.596      0.000     21.655     -2.148      0.222     -1.829
      2 C       -2.125     21.655      0.000     28.337      7.112      0.225
      5 C        1.877     -2.148     28.337      0.000     28.340     -2.148
      8 C       -2.124      0.222      7.112     28.340      0.000     21.665
      9 C       23.592     -1.829      0.225     -2.148     21.665      0.000

NMR spin-spin coupling calculation done in   0.0 sec 

Maximum memory used throughout the entire PROP-calculation: 6.3 MB

--------------------------------
SUGGESTED CITATIONS FOR THIS RUN
--------------------------------

Below you find a list of papers that are relevant to this ORCA run
We neither can nor want to force you to cite these papers, but we appreciate if you do
You receive ORCA, which is the product of decades of hard work by many enthusiastic individuals, for free
The only thing we kindly ask in return is that you cite our papers,
We deeply appreciate it, if you show your appreciation for ORCA by not just citing the generic ORCA reference.

Please note that relegating all ORCA citations to the supporting information does *not* help us.
SI sections are not indexed - citations you put there will not count into any citation statistics
But we need these citations in order to attract the funding resources that allow us to do what we are doing

Therefore, if you are a happy ORCA user, please consider citing a few of the papers listed below in the main body of your paper

In addition to the list printed below, the program has created the file inpJ.bibtex that contains the list in bibtex format
You can import this file easily into all common literature databanks and citation aid programs


List of essential papers. We consider these as the minimum necessary citations

  1. Neese,F.
     Software update: the ORCA program system, version 5.0
     WIRES Comput. Molec. Sci., 2022 12(1)e1606
     doi.org/10.1002/wcms.1606

List of papers to cite with high priority. The work reported in these papers was absolutely
necessary for this run to complete.
Our perspective: the developers of density functionals and basis sets usually get cited in chemistry papers
Good! But without the algorithms to do something with them, the functionals or basis sets would not do anything.
Hence, in our opinion, the algorithm design and method developments papers are equally worthy of getting cited

  1. Neese,F.
     An improvement of the resolution of the identity approximation for the formation of the Coulomb matrix
     J. Comp. Chem., 2003 24(14)1740-1747
     doi.org/10.1002/jcc.10318
  2. Neese,F.; Wennmohs,F.; Hansen,A.; Becker,U.
     Efficient, approximate and parallel Hartree-Fock and hybrid DFT calculations. A 'chain-of-spheres' algorithm for the Hartree-Fock exchange
     Chem. Phys., 2009 356(1-3)98-109
     doi.org/10.1016/j.chemphys.2008.10.036
  3. Stoychev,G.L.; Auer,A.A.; Izsak,R.; Neese,F.
     Self-Consistent Field Calculation of Nuclear Magnetic Resonance Chemical Shielding Constants Using Gauge-Including Atomic Orbitals and Approximate Two-Electron Integrals
     J. Chem. Theory Comput., 2018 14(2)619-637
     doi.org/10.1021/acs.jctc.7b01006
  4. Garcia-Rates,M.; Neese,F.
     Effect of the Solute Cavity on the Solvation Energy and its Derivatives within the Framework of the Gaussian Charge Scheme
     J. Comput. Chem., 2020 41 922-939
     doi.org/10.1002/jcc.26139
  5. Helmich-Paris,B.; de Souza,B.; Neese,F.; Izsák,R.
     An improved chain of spheres for exchange algorithm
     J. Chem. Phys., 2021 155 104109
     doi.org/doi: 10.1063/5.0058766.
  6. Neese,F.
     The SHARK Integral Generation and Digestion System
     J. Comp. Chem., 2022  1-16
     doi.org/10.1002/jcc.26942
  7. Grimme,S.; Bannwarth,C.; Dohm,S.; Hansen,A.; Pisarek,J.; Pracht,P.; Seibert,J.; Neese,F.
     Fully Automated Quantum-Chemistry-Based Computation of Spin-Spin-Coupled Nuclear Magnetic Resonance Spectra
     Angew. Chem., Int. Ed., 2017 56 14763-14769
     doi.org/10.1002/anie.201708266
  8. Caldeweyher,E.; Bannwarth,C.; Grimme,S.
     Extension of the D3 dispersion coefficient model
     J. Chem. Phys., 2017 147 034112-XXXX
     doi.org/10.1063/1.4993215
  9. Caldeweyher,E.; Ehlert,S.; Hansen,A.; Neugebauer,H.; Spicher,S.; Bannwarth,C.; Grimme,S.
     A generally applicable atomic-charge dependent London dispersion correction
     J. Chem. Phys., 2019 150 154122-XXXX
     doi.org/10.1063/1.5090222
 10. Caldeweyher,E.; Mewes,J.; Ehlert,S.; Grimme,S.
     Extension and evaluation of the D4 London-dispersion model for periodic systems
     Phys. Chem. Chem. Phys., 2020 22(16)8499-8512
     doi.org/10.1039/D0CP00502A

List of suggested additional citations. These are papers that are important in the 'surrounding' of 
of this run, or papers that preceded the highly important papers. If you like your results we are grateful for a citation.

  1. Izsak,R.; Neese,F.
     An overlap fitted chain of spheres exchange method
     J. Chem. Phys., 2011 135 144105
     doi.org/10.1063/1.3646921
  2. Izsak,R.; Hansen,A.; Neese,F.
     The resolution of identity and chain of spheres approximations for the LPNO-CCSD singles Fock term
     Molec. Phys., 2012 110 2413-2417
     doi.org/10.1080/00268976.2012.687466
  3. Neese,F.
     The ORCA program system
     WIRES Comput. Molec. Sci., 2012 2(1)73-78
     doi.org/10.1002/wcms.81
  4. Izsak,R.; Neese,F.; Klopper,W.
     Robust fitting techniques in the chain of spheres approximation to the Fock exchange: The role of the complementary space
     J. Chem. Phys., 2013 139 
     doi.org/10.1063/1.4819264
  5. Neese,F.
     Software update: the ORCA program system, version 4.0
     WIRES Comput. Molec. Sci., 2018 8(1)1-6
     doi.org/10.1002/wcms.1327
  6. Neese,F.; Wennmohs,F.; Becker,U.; Riplinger,C.
     The ORCA quantum chemistry program package
     J. Chem. Phys., 2020 152 Art. No. L224108
     doi.org/10.1063/5.0004608

Timings for individual modules:

Sum of individual times          ...        3.921 sec (=   0.065 min)
Startup calculation              ...        0.542 sec (=   0.009 min)  13.8 %
SCF iterations                   ...        2.231 sec (=   0.037 min)  56.9 %
Property integrals               ...        0.182 sec (=   0.003 min)   4.6 %
SCF Response                     ...        0.787 sec (=   0.013 min)  20.1 %
Property calculations            ...        0.179 sec (=   0.003 min)   4.6 %
                             ****ORCA TERMINATED NORMALLY****
TOTAL RUN TIME: 0 days 0 hours 0 minutes 4 seconds 119 msec
