
                                 *****************
                                 * O   R   C   A *
                                 *****************

                                            #,                                       
                                            ###                                      
                                            ####                                     
                                            #####                                    
                                            ######                                   
                                           ########,                                 
                                     ,,################,,,,,                         
                               ,,#################################,,                 
                          ,,##########################################,,             
                       ,#########################################, ''#####,          
                    ,#############################################,,   '####,        
                  ,##################################################,,,,####,       
                ,###########''''           ''''###############################       
              ,#####''   ,,,,##########,,,,          '''####'''          '####       
            ,##' ,,,,###########################,,,                        '##       
           ' ,,###''''                  '''############,,,                           
         ,,##''                                '''############,,,,        ,,,,,,###''
      ,#''                                            '''#######################'''  
     '                                                          ''''####''''         
             ,#######,   #######,   ,#######,      ##                                
            ,#'     '#,  ##    ##  ,#'     '#,    #''#        ,####,   ,####,        
            ##       ##  ##   ,#'  ##            #'  '#       #'       #'  '#        
            ##       ##  #######   ##           ,######,      #####,   #    #        
            '#,     ,#'  ##    ##  '#,     ,#' ,#      #,     #,   #   #,  ,#        
             '#######'   ##     ##  '#######'  #'      '#     '####' # '####'        



                #########################################################
                #                        -***-                          #
                #          Department of theory and spectroscopy        #
                #                                                       #
                #                      Frank Neese                      #
                #                                                       #
                #     Directorship, Architecture, Infrastructure        #
                #                    SHARK, DRIVERS                     #
                #        Core code/Algorithms in most modules           #
                #                                                       #
                #        Max Planck Institute fuer Kohlenforschung      #
                #                Kaiser Wilhelm Platz 1                 #
                #                 D-45470 Muelheim/Ruhr                 #
                #                      Germany                          #
                #                                                       #
                #                  All rights reserved                  #
                #                        -***-                          #
                #########################################################


                         Program Version 6.0.0  -   RELEASE  -


 With contributions from (in alphabetic order):
   Daniel Aravena         : Magnetic Suceptibility
   Michael Atanasov       : Ab Initio Ligand Field Theory (pilot matlab implementation)
   Alexander A. Auer      : GIAO ZORA, VPT2 properties, NMR spectrum
   Ute Becker             : All parallelization in ORCA, NUMFREQ, NUMCALC
   Giovanni Bistoni       : ED, misc. LED, open-shell LED, HFLD
   Martin Brehm           : Molecular dynamics
   Dmytro Bykov           : pre 5.0 version of the SCF Hessian
   Marcos Casanova-Páez   : Triplet and SCS-CIS(D). UHF-(DLPNO)-IP/EA/STEOM-CCSD. UHF-CVS-IP/STEOM-CCSD
   Vijay G. Chilkuri      : MRCI spin determinant printing, contributions to CSF-ICE
   Pauline Colinet        : FMM embedding
   Dipayan Datta          : RHF DLPNO-CCSD density
   Achintya Kumar Dutta   : EOM-CC, STEOM-CC
   Nicolas Foglia         : Exact transition moments, OPA infrastructure, MCD improvements
   Dmitry Ganyushin       : Spin-Orbit,Spin-Spin,Magnetic field MRCI
   Miquel Garcia          : C-PCM and meta-GGA Hessian, CCSD/C-PCM, Gaussian charge scheme
   Tiago L. C. Gouveia    : GS-ROHF, GS-ROCIS
   Yang Guo               : DLPNO-NEVPT2, F12-NEVPT2, CIM, IAO-localization
   Andreas Hansen         : Spin unrestricted coupled pair/coupled cluster methods
   Ingolf Harden          : AUTO-CI MPn and infrastructure 
   Benjamin Helmich-Paris : MC-RPA, TRAH-(SCF,CASSCF), AVAS, COSX integrals, SCF dyn. polar.
   Lee Huntington         : MR-EOM, pCC
   Robert Izsak           : Overlap fitted RIJCOSX, COSX-SCS-MP3, EOM
   Riya Kayal             : Wick's Theorem for AUTO-CI, AUTO-CI UHF-CCSDT
   Emily Kempfer          : AUTO-CI, RHF CISDT and CCSDT
   Christian Kollmar      : KDIIS, OOCD, Brueckner-CCSD(T), CCSD density, CASPT2, CASPT2-K, improved NEVPT2
   Axel Koslowski         : Symmetry handling
   Simone Kossmann        : Meta GGA functionals, TD-DFT gradient, OOMP2, (MP2 Hessian; deprecated post 5.0)
   Lucas Lang             : DCDCAS
   Marvin Lechner         : AUTO-CI (C++ implementation), FIC-MRCC
   Spencer Leger          : CASSCF response
   Dagmar Lenk            : GEPOL surface, SMD, ORCA-2-JSON
   Dimitrios Liakos       : Extrapolation schemes; Compound Job, initial MDCI parallelization
   Dimitrios Manganas     : Further ROCIS development; embedding schemes. LFT, Crystal Embedding
   Dimitrios Pantazis     : SARC Basis sets
   Anastasios Papadopoulos: AUTO-CI, single reference methods and gradients
   Taras Petrenko         : pre 6.0 DFT Hessian and TD-DFT gradient, (ASA, deprecated), ECA, 1-Electron XAS/XES, NRVS
   Peter Pinski           : DLPNO-MP2, DLPNO-MP2 Gradient
   Christoph Reimann      : Effective Core Potentials
   Marius Retegan         : Local ZFS, SOC
   Christoph Riplinger    : Optimizer, TS searches, QM/MM, DLPNO-CCSD(T), (RO)-DLPNO pert. Triples
   Michael Roemelt        : Original ROCIS implementation
   Masaaki Saitow         : Open-shell DLPNO-CCSD energy and density
   Barbara Sandhoefer     : DKH picture change effects
   Kantharuban Sivalingam : CASSCF convergence/infrastructure, NEVPT2 and variants, FIC-MRCI
   Bernardo de Souza      : ESD, SOC TD-DFT
   Georgi Stoychev        : AutoAux, RI-MP2 NMR, DLPNO-MP2 response, X2C
   Van Anh Tran           : RI-MP2 g-tensors
   Willem Van den Heuvel  : Paramagnetic NMR
   Zikuan Wang            : NOTCH, Electric field optimization 
   Frank Wennmohs         : Technical directorship and infrastructure
   Hang Xu                : AUTO-CI-Response properties 


 We gratefully acknowledge several colleagues who have allowed us to
 interface, adapt or use parts of their codes:
   Stefan Grimme, W. Hujo, H. Kruse, P. Pracht,  : VdW corrections, initial TS optimization,
                  C. Bannwarth, S. Ehlert,         DFT functionals, gCP, sTDA/sTD-DF
                  L. Wittmann, M. Mueller
   Ed Valeev, F. Pavosevic, A. Kumar             : LibInt (2-el integral package), F12 methods
   Garnet Chan, S. Sharma, J. Yang, R. Olivares  : DMRG
   Ulf Ekstrom                                   : XCFun DFT Library
   Mihaly Kallay                                 : mrcc  (arbitrary order and MRCC methods)
   Frank Weinhold                                : gennbo (NPA and NBO analysis)
   Simon Mueller                                 : openCOSMO-RS
   Christopher J. Cramer and Donald G. Truhlar   : smd solvation model
   Lars Goerigk                                  : TD-DFT with DH, B97 family of functionals
   V. Asgeirsson, H. Jonsson                     : NEB implementation
   FAccTs GmbH                                   : IRC, NEB, NEB-TS, DLPNO-Multilevel, CI-OPT
                                                   MM, QMMM, 2- and 3-layer-ONIOM, Crystal-QMMM,
                                                   LR-CPCM, SF, NACMEs, symmetry and pop. for TD-DFT,
                                                   nearIR, NL-DFT gradient (VV10), updates on ESD,
                                                   ML-optimized integration grids, MBIS, APM,
                                                   GOAT, DOCKER, SOLVATOR, interface openCOSMO-RS
   S Lehtola, MJT Oliveira, MAL Marques          : LibXC Library
   Liviu Ungur et al                             : ANISO software


 Your calculation uses the libint2 library for the computation of 2-el integrals
 For citations please refer to: http://libint.valeyev.net

 Your ORCA version has been built with support for libXC version: 6.2.2
 For citations please refer to: https://libxc.gitlab.io

 This ORCA versions uses:
   CBLAS   interface :  Fast vector & matrix operations
   LAPACKE interface :  Fast linear algebra routines
   SCALAPACK package :  Parallel linear algebra routines
   Shared memory     :  Shared parallel matrices
   BLAS/LAPACK       :  OpenBLAS 0.3.27  USE64BITINT DYNAMIC_ARCH NO_AFFINITY Zen SINGLE_THREADED
        Core in use  :  Zen
   Copyright (c) 2011-2014, The OpenBLAS Project


NOTE: MaxCore=8000 MB was set to SCF,MP2,MDCI,CIPSI,MRCI and CIS
      => If you want to overwrite this, your respective input block should be placed after the MaxCore statement
Your calculation utilizes the atom-pairwise dispersion correction
based on EEQ partial charges (D4)


================================================================================

----- Orbital basis set information -----
Your calculation utilizes the basis: def2-SVP
   F. Weigend and R. Ahlrichs, Phys. Chem. Chem. Phys. 7, 3297 (2005).

----- AuxJ basis set information -----
Your calculation utilizes the auxiliary basis: def2/J
   F. Weigend, Phys. Chem. Chem. Phys. 8, 1057 (2006).

================================================================================
                                        WARNINGS
                       Please study these warnings very carefully!
================================================================================

WARNING: Old DensityContainer found on disk!
         Will remove this file - 
         If you want to keep old densities, please start your calculation with a different basename. 


================================================================================
                                       INPUT FILE
================================================================================
NAME = inpS
|  1> ! wb97x-d4
|  2> ! def2-svp
|  3> ! def2/J RIJCOSX
|  4> ! DEFGRID2
|  5> ! scfconv7
|  6> ! smallprint printgap noloewdin
|  7> ! NOSOSCF
|  8> %MaxCore 8000
|  9> %output
| 10>        print[P_BondOrder_M] 1
| 11>        print[P_Mayer] 1
| 12>        print[P_basis] 2
| 13> end
| 14> %pal
| 15>     nprocs 4
| 16> end
| 17> ! CPCM(chloroform)
| 18> *xyz 0 1
| 19> C   -5.0420712100   0.1777732900  -0.4780462600
| 20> C   -6.4850292200  -0.2440945100  -0.6230889500
| 21> C   -7.3967425800   0.6716815800   0.2037095700
| 22> H   -6.6180309600  -1.2862664000  -0.3111779300
| 23> H   -6.7932571000  -0.1636708100  -1.6760722000
| 24> C   -4.7993454000   1.6027466000  -0.7946461600
| 25> C   -5.7347628900   2.5654246800  -0.0969187300
| 26> C   -7.2018716100   2.1292311700  -0.2170926200
| 27> H   -5.6004893100   3.5778010300  -0.4926190000
| 28> H   -5.4632836600   2.5987998600   0.9691939200
| 29> H   -7.5322108100   2.2345546200  -1.2594810200
| 30> H   -7.8383151400   2.7760397200   0.3978222200
| 31> O   -7.1599673300   0.4880747300   1.6095098100
| 32> H   -8.4436427100   0.3828614500   0.0485059200
| 33> C   -4.1001449000  -0.6848428100  -0.0274669700
| 34> C   -3.8610390100   2.0115590100  -1.6555813100
| 35> H   -3.2100307100   1.3030980400  -2.1609059900
| 36> H   -3.7309929800   3.0674777100  -1.8808853600
| 37> C   -2.7181585800  -0.3677233200   0.2490797500
| 38> H   -4.4338473700  -1.7027894800   0.1706291600
| 39> C   -1.7494480700  -1.2385407900   0.6038216100
| 40> H   -2.4485665800   0.6829240800   0.1686352500
| 41> C   -1.9140655000  -2.7304854700   0.7435318700
| 42> C   -0.8965516200  -3.4973689400  -0.1237940600
| 43> H   -2.9275794300  -3.0618804800   0.5016691700
| 44> H   -1.7317108100  -2.9935414500   1.7976621200
| 45> C    0.5455453600  -3.0174732400   0.0913220300
| 46> H   -1.1713832000  -3.3854989400  -1.1802421500
| 47> H   -0.9651818400  -4.5681528600   0.1040645100
| 48> C    0.6777477500  -1.5002758200  -0.0985632600
| 49> H    1.2065802100  -3.5635355200  -0.5898335600
| 50> H    0.8618327100  -3.2682938800   1.1150853800
| 51> C   -0.3376154700  -0.8167157800   0.8729570300
| 52> H   -0.0764466200  -1.2162700800   1.8700312500
| 53> C    0.0643566000   0.6551747300   0.8573355700
| 54> H   -6.2029021700   0.4267831700   1.7397632300
| 55> C    1.6075159900   0.6095207600   0.7384169000
| 56> H   -0.2792509900   1.1853332600   1.7517515800
| 57> H   -0.3698793300   1.1677949000  -0.0083175100
| 58> C    1.9995371500  -0.8628836100   0.4118736900
| 59> H    2.0994077800   0.9426291200   1.6576620800
| 60> H    1.9590525100   1.2763090000  -0.0576641200
| 61> H    2.2490988000  -1.3773225100   1.3543484400
| 62> C    3.2527582700  -0.9280728600  -0.4848965000
| 63> C    0.4035165600  -1.0990823900  -1.5539120400
| 64> H    0.6060154200  -0.0367469100  -1.7235387900
| 65> H   -0.6395337300  -1.2806644100  -1.8311648400
| 66> H    1.0389743400  -1.6714582400  -2.2386198800
| 67> H    3.0337241300  -0.3984482100  -1.4237445400
| 68> C    3.6941723400  -2.3612169400  -0.8181813300
| 69> C    4.3875200700  -0.2108697900   0.1968037100
| 70> C    5.0395695000   0.8440724300  -0.2898591900
| 71> H    4.6871588600  -0.6187898800   1.1676668600
| 72> H    4.7277687700   1.2526953600  -1.2546656600
| 73> C    6.1770146000   1.5460745100   0.3996048900
| 74> C    5.8338841100   3.0311918700   0.5895358600
| 75> C    7.5233406700   1.3139581900  -0.3403724600
| 76> H    6.2899111700   1.0914898900   1.3953741500
| 77> H    7.6029954800   0.2250424500  -0.4783380900
| 78> C    8.7169537000   1.7602156700   0.5087183800
| 79> C    7.5800962700   1.9677775400  -1.7231292400
| 80> H    5.6277758500   3.5156684600  -0.3713367600
| 81> H    6.6462722700   3.5778991000   1.0793143800
| 82> H    4.9368393100   3.1330594700   1.2093993300
| 83> H    8.6881237200   1.3065711100   1.5060520400
| 84> H    8.7360997200   2.8491964200   0.6312404100
| 85> H    9.6584892300   1.4679968500   0.0302567100
| 86> H    6.7417549200   1.6627037300  -2.3580041500
| 87> H    8.5067091300   1.6876987900  -2.2362622500
| 88> H    7.5663015000   3.0607895000  -1.6428177000
| 89> H    2.9716010500  -2.8706405500  -1.4608037400
| 90> H    3.8139652400  -2.9541909500   0.0968983400
| 91> H    4.6567880900  -2.3476920800  -1.3405469600
| 92> *
| 93> %eprnmr
| 94>  Nuclei = all C { shift }
| 95>  origin giao
| 96>  giao_2el giao_2el_same_as_scf
| 97>  giao_1el giao_1el_analytic
| 98> end
| 99> 
|100>                          ****END OF INPUT****
================================================================================

                       ****************************
                       * Single Point Calculation *
                       ****************************

---------------------------------
CARTESIAN COORDINATES (ANGSTROEM)
---------------------------------
  C     -5.042071    0.177773   -0.478046
  C     -6.485029   -0.244095   -0.623089
  C     -7.396743    0.671682    0.203710
  H     -6.618031   -1.286266   -0.311178
  H     -6.793257   -0.163671   -1.676072
  C     -4.799345    1.602747   -0.794646
  C     -5.734763    2.565425   -0.096919
  C     -7.201872    2.129231   -0.217093
  H     -5.600489    3.577801   -0.492619
  H     -5.463284    2.598800    0.969194
  H     -7.532211    2.234555   -1.259481
  H     -7.838315    2.776040    0.397822
  O     -7.159967    0.488075    1.609510
  H     -8.443643    0.382861    0.048506
  C     -4.100145   -0.684843   -0.027467
  C     -3.861039    2.011559   -1.655581
  H     -3.210031    1.303098   -2.160906
  H     -3.730993    3.067478   -1.880885
  C     -2.718159   -0.367723    0.249080
  H     -4.433847   -1.702789    0.170629
  C     -1.749448   -1.238541    0.603822
  H     -2.448567    0.682924    0.168635
  C     -1.914065   -2.730485    0.743532
  C     -0.896552   -3.497369   -0.123794
  H     -2.927579   -3.061880    0.501669
  H     -1.731711   -2.993541    1.797662
  C      0.545545   -3.017473    0.091322
  H     -1.171383   -3.385499   -1.180242
  H     -0.965182   -4.568153    0.104065
  C      0.677748   -1.500276   -0.098563
  H      1.206580   -3.563536   -0.589834
  H      0.861833   -3.268294    1.115085
  C     -0.337615   -0.816716    0.872957
  H     -0.076447   -1.216270    1.870031
  C      0.064357    0.655175    0.857336
  H     -6.202902    0.426783    1.739763
  C      1.607516    0.609521    0.738417
  H     -0.279251    1.185333    1.751752
  H     -0.369879    1.167795   -0.008318
  C      1.999537   -0.862884    0.411874
  H      2.099408    0.942629    1.657662
  H      1.959053    1.276309   -0.057664
  H      2.249099   -1.377323    1.354348
  C      3.252758   -0.928073   -0.484896
  C      0.403517   -1.099082   -1.553912
  H      0.606015   -0.036747   -1.723539
  H     -0.639534   -1.280664   -1.831165
  H      1.038974   -1.671458   -2.238620
  H      3.033724   -0.398448   -1.423745
  C      3.694172   -2.361217   -0.818181
  C      4.387520   -0.210870    0.196804
  C      5.039569    0.844072   -0.289859
  H      4.687159   -0.618790    1.167667
  H      4.727769    1.252695   -1.254666
  C      6.177015    1.546075    0.399605
  C      5.833884    3.031192    0.589536
  C      7.523341    1.313958   -0.340372
  H      6.289911    1.091490    1.395374
  H      7.602995    0.225042   -0.478338
  C      8.716954    1.760216    0.508718
  C      7.580096    1.967778   -1.723129
  H      5.627776    3.515668   -0.371337
  H      6.646272    3.577899    1.079314
  H      4.936839    3.133059    1.209399
  H      8.688124    1.306571    1.506052
  H      8.736100    2.849196    0.631240
  H      9.658489    1.467997    0.030257
  H      6.741755    1.662704   -2.358004
  H      8.506709    1.687699   -2.236262
  H      7.566301    3.060789   -1.642818
  H      2.971601   -2.870641   -1.460804
  H      3.813965   -2.954191    0.096898
  H      4.656788   -2.347692   -1.340547

----------------------------
CARTESIAN COORDINATES (A.U.)
----------------------------
  NO LB      ZA    FRAG     MASS         X           Y           Z
   0 C     6.0000    0    12.011   -9.528134    0.335943   -0.903377
   1 C     6.0000    0    12.011  -12.254929   -0.461272   -1.177467
   2 C     6.0000    0    12.011  -13.977818    1.269294    0.384955
   3 H     1.0000    0     1.008  -12.506266   -2.430691   -0.588041
   4 H     1.0000    0     1.008  -12.837395   -0.309293   -3.167317
   5 C     6.0000    0    12.011   -9.069448    3.028752   -1.501664
   6 C     6.0000    0    12.011  -10.837131    4.847950   -0.183150
   7 C     6.0000    0    12.011  -13.609565    4.023664   -0.410246
   8 H     1.0000    0     1.008  -10.583391    6.761064   -0.930915
   9 H     1.0000    0     1.008  -10.324110    4.911020    1.831511
  10 H     1.0000    0     1.008  -14.233816    4.222696   -2.380074
  11 H     1.0000    0     1.008  -14.812269    5.245955    0.751775
  12 O     8.0000    0    15.999  -13.530377    0.922328    3.041533
  13 H     1.0000    0     1.008  -15.956172    0.723503    0.091663
  14 C     6.0000    0    12.011   -7.748151   -1.294165   -0.051905
  15 C     6.0000    0    12.011   -7.296306    3.801296   -3.128595
  16 H     1.0000    0     1.008   -6.066079    2.462498   -4.083521
  17 H     1.0000    0     1.008   -7.050555    5.796693   -3.554358
  18 C     6.0000    0    12.011   -5.136575   -0.694896    0.470693
  19 H     1.0000    0     1.008   -8.378757   -3.217806    0.322442
  20 C     6.0000    0    12.011   -3.305978   -2.340503    1.141057
  21 H     1.0000    0     1.008   -4.627120    1.290539    0.318674
  22 C     6.0000    0    12.011   -3.617060   -5.159870    1.405072
  23 C     6.0000    0    12.011   -1.694237   -6.609069   -0.233937
  24 H     1.0000    0     1.008   -5.532323   -5.786116    0.948017
  25 H     1.0000    0     1.008   -3.272459   -5.656974    3.397089
  26 C     6.0000    0    12.011    1.030931   -5.702198    0.172574
  27 H     1.0000    0     1.008   -2.213593   -6.397666   -2.230334
  28 H     1.0000    0     1.008   -1.823929   -8.632558    0.196653
  29 C     6.0000    0    12.011    1.280758   -2.835110   -0.186258
  30 H     1.0000    0     1.008    2.280106   -6.734106   -1.114624
  31 H     1.0000    0     1.008    1.628628   -6.176180    2.107206
  32 C     6.0000    0    12.011   -0.638001   -1.543369    1.649650
  33 H     1.0000    0     1.008   -0.144463   -2.298417    3.533847
  34 C     6.0000    0    12.011    0.121616    1.238101    1.620129
  35 H     1.0000    0     1.008  -11.721786    0.806503    3.287676
  36 C     6.0000    0    12.011    3.037765    1.151827    1.395406
  37 H     1.0000    0     1.008   -0.527708    2.239955    3.310331
  38 H     1.0000    0     1.008   -0.698971    2.206813   -0.015718
  39 C     6.0000    0    12.011    3.778578   -1.630614    0.778328
  40 H     1.0000    0     1.008    3.967306    1.781311    3.132527
  41 H     1.0000    0     1.008    3.702073    2.411874   -0.108969
  42 H     1.0000    0     1.008    4.250181   -2.602762    2.559348
  43 C     6.0000    0    12.011    6.146822   -1.753804   -0.916322
  44 C     6.0000    0    12.011    0.762536   -2.076965   -2.936468
  45 H     1.0000    0     1.008    1.145203   -0.069442   -3.257016
  46 H     1.0000    0     1.008   -1.208544   -2.420105   -3.460400
  47 H     1.0000    0     1.008    1.963377   -3.158598   -4.230378
  48 H     1.0000    0     1.008    5.732908   -0.752958   -2.690487
  49 C     6.0000    0    12.011    6.980974   -4.462053   -1.546139
  50 C     6.0000    0    12.011    8.291211   -0.398486    0.371905
  51 C     6.0000    0    12.011    9.523406    1.595066   -0.547754
  52 H     1.0000    0     1.008    8.857447   -1.169343    2.206571
  53 H     1.0000    0     1.008    8.934188    2.367251   -2.370974
  54 C     6.0000    0    12.011   11.672866    2.921657    0.755144
  55 C     6.0000    0    12.011   11.024443    5.728122    1.114061
  56 C     6.0000    0    12.011   14.217053    2.483021   -0.643211
  57 H     1.0000    0     1.008   11.886210    2.062617    2.636875
  58 H     1.0000    0     1.008   14.367579    0.425269   -0.903928
  59 C     6.0000    0    12.011   16.472655    3.326326    0.961338
  60 C     6.0000    0    12.011   14.324306    3.718561   -3.256242
  61 H     1.0000    0     1.008   10.634955    6.643651   -0.701725
  62 H     1.0000    0     1.008   12.559634    6.761249    2.039609
  63 H     1.0000    0     1.008    9.329274    5.920624    2.285434
  64 H     1.0000    0     1.008   16.418174    2.469062    2.846026
  65 H     1.0000    0     1.008   16.508836    5.384201    1.192871
  66 H     1.0000    0     1.008   18.251900    2.774112    0.057177
  67 H     1.0000    0     1.008   12.740070    3.142055   -4.455982
  68 H     1.0000    0     1.008   16.075351    3.189289   -4.225923
  69 H     1.0000    0     1.008   14.298238    5.784054   -3.104476
  70 H     1.0000    0     1.008    5.615512   -5.424724   -2.760519
  71 H     1.0000    0     1.008    7.207350   -5.582612    0.183111
  72 H     1.0000    0     1.008    8.800054   -4.436495   -2.533267

--------------------------------
INTERNAL COORDINATES (ANGSTROEM)
--------------------------------
 C      0   0   0     0.000000000000     0.00000000     0.00000000
 C      1   0   0     1.510343550727     0.00000000     0.00000000
 C      2   1   0     1.534100026234   110.44377111     0.00000000
 H      2   1   3     1.095947168228   110.74598934   237.88219311
 H      2   1   3     1.100111868090   109.82676830   118.76495733
 C      1   2   3     1.479763578999   113.90003528   306.00208538
 C      6   1   2     1.512804856181   114.37378841    49.94499699
 C      3   2   1     1.529542410450   110.17324892    56.77449379
 H      7   6   1     1.095223252129   110.22908579   188.70421658
 H      7   6   1     1.100641202868   108.27188992    72.02179133
 H      8   3   2     1.098540209838   108.30681631    64.49076495
 H      8   3   2     1.096148679552   109.51127909   181.47492678
 O      3   2   1     1.437375493448   110.66834094   292.74100054
 H      3   2   1     1.097043810730   109.49521613   177.23977721
 C      1   2   3     1.354383035196   121.23064814   122.72196425
 C      6   1   2     1.337443756047   123.17188502   231.90392276
 H     16   6   1     1.086775866911   121.35295448   359.01300238
 H     16   6   1     1.087491694623   120.93412506   178.39963694
 C     15   1   2     1.444620728062   126.09925047   185.09636256
 H     15   1   2     1.089410316717   116.26924522     3.09605126
 C     19  15   1     1.350024038852   126.52293759   185.22071691
 H     19  15   1     1.087663147841   115.78562369     5.84936875
 C     21  19  15     1.507486909790   125.75950505     1.86885803
 C     23  21  19     1.541330276548   111.60324890   124.89449347
 H     23  21  19     1.093403267147   112.37591952     1.21233157
 H     23  21  19     1.101654331242   107.87400044   243.47800774
 C     24  23  21     1.534997887549   112.69274995    50.89368964
 H     24  23  21     1.097328511035   109.00717778   288.75802213
 H     24  23  21     1.096908308999   109.11721511   172.83726646
 C     27  24  23     1.534738383743   111.87917985   306.49076142
 H     27  24  23     1.095045215661   108.90813074   182.97350686
 H     27  24  23     1.100472661188   109.21609419    66.50402257
 C     21  19  15     1.497879001716   122.81249160   180.04473947
 H     33  21  19     1.105445524233   106.43697651   127.10861967
 C     33  21  19     1.525872618701   121.20600522     4.48594996
 H     13   3   2     0.967830733773   107.61449663    42.28221791
 C     35  33  21     1.548407839685   103.58510686   196.88077798
 H     35  33  21     1.095040748914   112.08564830    74.82483154
 H     35  33  21     1.095762536550   110.79105903   315.22554106
 C     30  27  24     1.553686560168   115.98855877   166.25843849
 H     37  35  33     1.094500074703   111.98856318   249.51484594
 H     37  35  33     1.096325440871   110.94048725   130.92119890
 H     40  30  27     1.102355230119   106.38159628   321.10556939
 C     40  30  27     1.542403834151   118.87419185    81.85984017
 C     30  27  24     1.534339918431   111.12766630   294.09740768
 H     45  30  27     1.094685203464   111.57166167   186.45949903
 H     45  30  27     1.094438236066   111.54560163    66.41462349
 H     45  30  27     1.095557177870   110.64232657   306.25886837
 H     44  40  30     1.099960847751   108.30684271    60.92787727
 C     44  40  30     1.536172878663   113.51844091   300.06373212
 C     44  40  30     1.505582864764   109.20850297   178.17961816
 C     51  44  40     1.332258355177   125.49935695   239.90226024
 H     51  44  40     1.094877828950   115.48566081    60.55771625
 H     52  51  44     1.093180643217   118.60597049     1.33716288
 C     52  51  44     1.503977723721   124.91060991   180.35146832
 C     55  52  51     1.536029257373   109.81785401   237.27467912
 C     55  52  51     1.553717590582   111.54780896   110.69841356
 H     55  52  51     1.100431384239   107.43344050   354.59905599
 H     57  55  52     1.100507561372   105.67891362   309.02260649
 C     57  55  52     1.531278243303   111.58105104   192.42423017
 C     57  55  52     1.530593758383   113.48919672    67.01473014
 H     56  55  52     1.095661614260   111.16803275   301.64920612
 H     56  55  52     1.094872739863   111.86030186   180.66500533
 H     56  55  52     1.095124240704   110.05413669    60.67230846
 H     60  57  55     1.096037856980   111.31150867    52.44710035
 H     60  57  55     1.096018837333   111.41741031   291.75461210
 H     60  57  55     1.095813196979   110.48252568   172.47355996
 H     61  57  55     1.094966848820   112.11110757   305.68902181
 H     61  57  55     1.095609868735   110.19874581   185.69081624
 H     61  57  55     1.096045338405   111.05854416    66.73931237
 H     50  44  40     1.092970834648   111.86532278    67.60379793
 H     50  44  40     1.096968239227   110.77493798   306.91863465
 H     50  44  40     1.095298066917   110.15059527   187.53085151

---------------------------
INTERNAL COORDINATES (A.U.)
---------------------------
 C      0   0   0     0.000000000000     0.00000000     0.00000000
 C      1   0   0     2.854135679008     0.00000000     0.00000000
 C      2   1   0     2.899028911624   110.44377111     0.00000000
 H      2   1   3     2.071040005197   110.74598934   237.88219311
 H      2   1   3     2.078910147366   109.82676830   118.76495733
 C      1   2   3     2.796347907260   113.90003528   306.00208538
 C      6   1   2     2.858786872248   114.37378841    49.94499699
 C      3   2   1     2.890416265969   110.17324892    56.77449379
 H      7   6   1     2.069672002026   110.22908579   188.70421658
 H      7   6   1     2.079910445131   108.27188992    72.02179133
 H      8   3   2     2.075940143694   108.30681631    64.49076495
 H      8   3   2     2.071420806413   109.51127909   181.47492678
 O      3   2   1     2.716246034226   110.66834094   292.74100054
 H      3   2   1     2.073112359193   109.49521613   177.23977721
 C      1   2   3     2.559413016949   121.23064814   122.72196425
 C      6   1   2     2.527402418453   123.17188502   231.90392276
 H     16   6   1     2.053708757416   121.35295448   359.01300238
 H     16   6   1     2.055061475752   120.93412506   178.39963694
 C     15   1   2     2.729937543424   126.09925047   185.09636256
 H     15   1   2     2.058687146063   116.26924522     3.09605126
 C     19  15   1     2.551175707640   126.52293759   185.22071691
 H     19  15   1     2.055385475378   115.78562369     5.84936875
 C     21  19  15     2.848737409975   125.75950505     1.86885803
 C     23  21  19     2.912692104596   111.60324890   124.89449347
 H     23  21  19     2.066232728843   112.37591952     1.21233157
 H     23  21  19     2.081824980295   107.87400044   243.47800774
 C     24  23  21     2.900725623616   112.69274995    50.89368964
 H     24  23  21     2.073650364799   109.00717778   288.75802213
 H     24  23  21     2.072856298030   109.11721511   172.83726646
 C     27  24  23     2.900235232492   111.87917985   306.49076142
 H     27  24  23     2.069335561860   108.90813074   182.97350686
 H     27  24  23     2.079591947514   109.21609419    66.50402257
 C     21  19  15     2.830581094995   122.81249160   180.04473947
 H     33  21  19     2.088989296770   106.43697651   127.10861967
 C     33  21  19     2.883481364594   121.20600522     4.48594996
 H     13   3   2     1.828935030822   107.61449663    42.28221791
 C     35  33  21     2.926066760620   103.58510686   196.88077798
 H     35  33  21     2.069327120931   112.08564830    74.82483154
 H     35  33  21     2.070691101891   110.79105903   315.22554106
 C     30  27  24     2.936042096671   115.98855877   166.25843849
 H     37  35  33     2.068305394745   111.98856318   249.51484594
 H     37  35  33     2.071754836896   110.94048725   130.92119890
 H     40  30  27     2.083149487221   106.38159628   321.10556939
 C     40  30  27     2.914720834455   118.87419185    81.85984017
 C     30  27  24     2.899482242178   111.12766630   294.09740768
 H     45  30  27     2.068655237403   111.57166167   186.45949903
 H     45  30  27     2.068188536657   111.54560163    66.41462349
 H     45  30  27     2.070303030227   110.64232657   306.25886837
 H     44  40  30     2.078624760285   108.30684271    60.92787727
 C     44  40  30     2.902946035031   113.51844091   300.06373212
 C     44  40  30     2.845139286328   109.20850297   178.17961816
 C     51  44  40     2.517603430912   125.49935695   239.90226024
 H     51  44  40     2.069019246818   115.48566081    60.55771625
 H     52  51  44     2.065812030584   118.60597049     1.33716288
 C     52  51  44     2.842106009351   124.91060991   180.35146832
 C     55  52  51     2.902674630126   109.81785401   237.27467912
 C     55  52  51     2.936100735657   111.54780896   110.69841356
 H     55  52  51     2.079513945385   107.43344050   354.59905599
 H     57  55  52     2.079657899303   105.67891362   309.02260649
 C     57  55  52     2.893696514675   111.58105104   192.42423017
 C     57  55  52     2.892403025634   113.48919672    67.01473014
 H     56  55  52     2.070500386402   111.16803275   301.64920612
 H     56  55  52     2.069009629838   111.86030186   180.66500533
 H     56  55  52     2.069484897549   110.05413669    60.67230846
 H     60  57  55     2.071211382102   111.31150867    52.44710035
 H     60  57  55     2.071175440177   111.41741031   291.75461210
 H     60  57  55     2.070786836227   110.48252568   172.47355996
 H     61  57  55     2.069187469993   112.11110757   305.68902181
 H     61  57  55     2.070402601531   110.19874581   185.69081624
 H     61  57  55     2.071225519947   111.05854416    66.73931237
 H     50  44  40     2.065415549849   111.86532278    67.60379793
 H     50  44  40     2.072969549749   110.77493798   306.91863465
 H     50  44  40     2.069813381486   110.15059527   187.53085151

---------------------
BASIS SET INFORMATION
---------------------
There are 3 groups of distinct atoms

 Group   1 Type C   : 7s4p1d contracted to 3s2p1d pattern {511/31/1}
 Group   2 Type H   : 4s1p contracted to 2s1p pattern {31/1}
 Group   3 Type O   : 7s4p1d contracted to 3s2p1d pattern {511/31/1}

Atom   0C    basis set group =>   1
Atom   1C    basis set group =>   1
Atom   2C    basis set group =>   1
Atom   3H    basis set group =>   2
Atom   4H    basis set group =>   2
Atom   5C    basis set group =>   1
Atom   6C    basis set group =>   1
Atom   7C    basis set group =>   1
Atom   8H    basis set group =>   2
Atom   9H    basis set group =>   2
Atom  10H    basis set group =>   2
Atom  11H    basis set group =>   2
Atom  12O    basis set group =>   3
Atom  13H    basis set group =>   2
Atom  14C    basis set group =>   1
Atom  15C    basis set group =>   1
Atom  16H    basis set group =>   2
Atom  17H    basis set group =>   2
Atom  18C    basis set group =>   1
Atom  19H    basis set group =>   2
Atom  20C    basis set group =>   1
Atom  21H    basis set group =>   2
Atom  22C    basis set group =>   1
Atom  23C    basis set group =>   1
Atom  24H    basis set group =>   2
Atom  25H    basis set group =>   2
Atom  26C    basis set group =>   1
Atom  27H    basis set group =>   2
Atom  28H    basis set group =>   2
Atom  29C    basis set group =>   1
Atom  30H    basis set group =>   2
Atom  31H    basis set group =>   2
Atom  32C    basis set group =>   1
Atom  33H    basis set group =>   2
Atom  34C    basis set group =>   1
Atom  35H    basis set group =>   2
Atom  36C    basis set group =>   1
Atom  37H    basis set group =>   2
Atom  38H    basis set group =>   2
Atom  39C    basis set group =>   1
Atom  40H    basis set group =>   2
Atom  41H    basis set group =>   2
Atom  42H    basis set group =>   2
Atom  43C    basis set group =>   1
Atom  44C    basis set group =>   1
Atom  45H    basis set group =>   2
Atom  46H    basis set group =>   2
Atom  47H    basis set group =>   2
Atom  48H    basis set group =>   2
Atom  49C    basis set group =>   1
Atom  50C    basis set group =>   1
Atom  51C    basis set group =>   1
Atom  52H    basis set group =>   2
Atom  53H    basis set group =>   2
Atom  54C    basis set group =>   1
Atom  55C    basis set group =>   1
Atom  56C    basis set group =>   1
Atom  57H    basis set group =>   2
Atom  58H    basis set group =>   2
Atom  59C    basis set group =>   1
Atom  60C    basis set group =>   1
Atom  61H    basis set group =>   2
Atom  62H    basis set group =>   2
Atom  63H    basis set group =>   2
Atom  64H    basis set group =>   2
Atom  65H    basis set group =>   2
Atom  66H    basis set group =>   2
Atom  67H    basis set group =>   2
Atom  68H    basis set group =>   2
Atom  69H    basis set group =>   2
Atom  70H    basis set group =>   2
Atom  71H    basis set group =>   2
Atom  72H    basis set group =>   2

-------------------------
BASIS SET IN INPUT FORMAT
-------------------------

 # Basis set for element : H 
 NewGTO H 
 S 3 
   1      13.0107010000      0.0334854848
   2       1.9622572000      0.2347218709
   3       0.4445379600      0.8137702853
 S 1 
   1       0.1219496200      1.0000000000
 P 1 
   1       0.8000000000      1.0000000000
  end;

 # Basis set for element : C 
 NewGTO C 
 S 5 
   1    1238.4016938000      0.0055173650
   2     186.2900499200      0.0410888285
   3      42.2511763460      0.1822538213
   4      11.6765579320      0.4682845944
   5       3.5930506482      0.4457581734
 S 1 
   1       0.4024514736      1.0000000000
 S 1 
   1       0.1309018267      1.0000000000
 P 3 
   1       9.4680970621      0.0568883320
   2       2.0103545142      0.3129405934
   3       0.5477100471      0.7606501651
 P 1 
   1       0.1526861379      1.0000000000
 D 1 
   1       0.8000000000      1.0000000000
  end;

 # Basis set for element : O 
 NewGTO O 
 S 5 
   1    2266.1767785000     -0.0053893504
   2     340.8701019100     -0.0402347214
   3      77.3631351670     -0.1800818421
   4      21.4796449400     -0.4682885766
   5       6.6589433124     -0.4469261716
 S 1 
   1       0.8097597567      1.0000000000
 S 1 
   1       0.2553077223      1.0000000000
 P 3 
   1      17.7215043170      0.0626302488
   2       3.8635505440      0.3333113849
   3       1.0480920883      0.7414863830
 P 1 
   1       0.2764154441      1.0000000000
 D 1 
   1       1.2000000000      1.0000000000
  end;

---------------------------------
AUXILIARY/J BASIS SET INFORMATION
---------------------------------
There are 3 groups of distinct atoms

 Group   1 Type C   : 12s5p4d2f1g contracted to 6s4p3d1f1g pattern {711111/2111/211/2/1}
 Group   2 Type H   : 5s2p1d contracted to 3s1p1d pattern {311/2/1}
 Group   3 Type O   : 12s5p4d2f1g contracted to 6s4p3d1f1g pattern {711111/2111/211/2/1}

Atom   0C    basis set group =>   1
Atom   1C    basis set group =>   1
Atom   2C    basis set group =>   1
Atom   3H    basis set group =>   2
Atom   4H    basis set group =>   2
Atom   5C    basis set group =>   1
Atom   6C    basis set group =>   1
Atom   7C    basis set group =>   1
Atom   8H    basis set group =>   2
Atom   9H    basis set group =>   2
Atom  10H    basis set group =>   2
Atom  11H    basis set group =>   2
Atom  12O    basis set group =>   3
Atom  13H    basis set group =>   2
Atom  14C    basis set group =>   1
Atom  15C    basis set group =>   1
Atom  16H    basis set group =>   2
Atom  17H    basis set group =>   2
Atom  18C    basis set group =>   1
Atom  19H    basis set group =>   2
Atom  20C    basis set group =>   1
Atom  21H    basis set group =>   2
Atom  22C    basis set group =>   1
Atom  23C    basis set group =>   1
Atom  24H    basis set group =>   2
Atom  25H    basis set group =>   2
Atom  26C    basis set group =>   1
Atom  27H    basis set group =>   2
Atom  28H    basis set group =>   2
Atom  29C    basis set group =>   1
Atom  30H    basis set group =>   2
Atom  31H    basis set group =>   2
Atom  32C    basis set group =>   1
Atom  33H    basis set group =>   2
Atom  34C    basis set group =>   1
Atom  35H    basis set group =>   2
Atom  36C    basis set group =>   1
Atom  37H    basis set group =>   2
Atom  38H    basis set group =>   2
Atom  39C    basis set group =>   1
Atom  40H    basis set group =>   2
Atom  41H    basis set group =>   2
Atom  42H    basis set group =>   2
Atom  43C    basis set group =>   1
Atom  44C    basis set group =>   1
Atom  45H    basis set group =>   2
Atom  46H    basis set group =>   2
Atom  47H    basis set group =>   2
Atom  48H    basis set group =>   2
Atom  49C    basis set group =>   1
Atom  50C    basis set group =>   1
Atom  51C    basis set group =>   1
Atom  52H    basis set group =>   2
Atom  53H    basis set group =>   2
Atom  54C    basis set group =>   1
Atom  55C    basis set group =>   1
Atom  56C    basis set group =>   1
Atom  57H    basis set group =>   2
Atom  58H    basis set group =>   2
Atom  59C    basis set group =>   1
Atom  60C    basis set group =>   1
Atom  61H    basis set group =>   2
Atom  62H    basis set group =>   2
Atom  63H    basis set group =>   2
Atom  64H    basis set group =>   2
Atom  65H    basis set group =>   2
Atom  66H    basis set group =>   2
Atom  67H    basis set group =>   2
Atom  68H    basis set group =>   2
Atom  69H    basis set group =>   2
Atom  70H    basis set group =>   2
Atom  71H    basis set group =>   2
Atom  72H    basis set group =>   2

-------------------------------------
AUXILIARY/J BASIS SET IN INPUT FORMAT
-------------------------------------

 # Auxiliary/J basis set for element : H 
 NewAuxJGTO H 
 S 3 
   1      15.6752927000      0.1007184237
   2       3.6063578000      0.3404257499
   3       1.2080016000      0.6491996172
 S 1 
   1       0.4726794000      1.0000000000
 S 1 
   1       0.2018100000      1.0000000000
 P 2 
   1       2.0281365000      0.5596620919
   2       0.5358730000      0.5596620919
 D 1 
   1       2.2165124000      1.0000000000
  end;

 # Auxiliary/J basis set for element : C 
 NewAuxJGTO C 
 S 7 
   1    1861.0916331000      0.0134602335
   2     642.9939764000      0.0299160374
   3     235.1105725000      0.1008649584
   4      90.7028894000      0.2370970548
   5      36.7794552000      0.3924037254
   6      15.6046273000      0.3195862154
   7       6.8907294000      0.0530104441
 S 1 
   1       3.1478850000     -1.0000000000
 S 1 
   1       1.4777287000      1.0000000000
 S 1 
   1       0.7076466000      1.0000000000
 S 1 
   1       0.3430122000      1.0000000000
 S 1 
   1       0.1669453000      1.0000000000
 P 2 
   1      13.5472892000     -0.6769313712
   2       5.4669419000     -0.3779500978
 P 1 
   1       2.1751721000      1.0000000000
 P 1 
   1       0.8582194000      1.0000000000
 P 1 
   1       0.3376720000      1.0000000000
 D 2 
   1       5.9287253000     -0.3533329857
   2       1.9809209000     -0.7456525731
 D 1 
   1       0.8055417000     -1.0000000000
 D 1 
   1       0.3531244000     -1.0000000000
 F 2 
   1       1.6755626000      0.6311076882
   2       0.5997536000      0.4968166032
 G 1 
   1       1.0024600000     -1.0000000000
  end;

 # Auxiliary/J basis set for element : O 
 NewAuxJGTO O 
 S 7 
   1    2876.8216605000      0.0168151159
   2    1004.7443032000      0.0340137548
   3     369.7579954000      0.1194951309
   4     142.9442404000      0.2664627624
   5      57.8366425000      0.4202764046
   6      24.3864983000      0.2765077335
   7      10.6622662000      0.0057008815
 S 1 
   1       4.8070437000     -1.0000000000
 S 1 
   1       2.2210770000      1.0000000000
 S 1 
   1       1.0447795000      1.0000000000
 S 1 
   1       0.4968425000      1.0000000000
 S 1 
   1       0.2371384000      1.0000000000
 P 2 
   1      64.2613382000     -0.2731534179
   2      16.3006076000     -0.8168011598
 P 1 
   1       4.3550542000      1.0000000000
 P 1 
   1       1.2019554000      1.0000000000
 P 1 
   1       0.3354196000      1.0000000000
 D 2 
   1       9.2146611000     -0.4661230638
   2       2.8435251000     -0.6600908911
 D 1 
   1       0.9955759000     -1.0000000000
 D 1 
   1       0.3649441000     -1.0000000000
 F 2 
   1       2.6420115000      0.5931563945
   2       0.7345613000      0.5931563945
 G 1 
   1       1.3931000000     -1.0000000000
  end;


Checking for AutoStart:
The File: inpS.gbw exists
Trying to determine its content:
     ... Fine, the file contains calculation information
     ... Fine, the calculation information was read
     ... Fine, the file contains a basis set
     ... Fine, the basis set was read
     ... Fine, the file contains a geometry
     ... Fine, the geometry was read
     ... Fine, the file contains a set of orbitals
     ... Fine, the orbitals can be read
     => possible old guess file was deleted
     => GBW file was renamed to GES file
     => GES file is set as startup file
     => Guess is set to MORead
     ... now leaving AutoStart



           ************************************************************
           *        Program running with 4 parallel MPI-processes     *
           *              working on a common directory               *
           ************************************************************
------------------------------------------------------------------------------
                             ORCA STARTUP CALCULATIONS
                           -- RI-GTO INTEGRALS CHOSEN --
------------------------------------------------------------------------------
------------------------------------------------------------------------------
                   ___                                                        
                  /   \      - P O W E R E D   B Y -                         
                 /     \                                                     
                 |  |  |   _    _      __       _____    __    __             
                 |  |  |  | |  | |    /  \     |  _  \  |  |  /  |          
                  \  \/   | |  | |   /    \    | | | |  |  | /  /          
                 / \  \   | |__| |  /  /\  \   | |_| |  |  |/  /          
                |  |  |   |  __  | /  /__\  \  |    /   |      \           
                |  |  |   | |  | | |   __   |  |    \   |  |\   \          
                \     /   | |  | | |  |  |  |  | |\  \  |  | \   \       
                 \___/    |_|  |_| |__|  |__|  |_| \__\ |__|  \__/        
                                                                              
                      - O R C A' S   B I G   F R I E N D -                    
                                      &                                       
                       - I N T E G R A L  F E E D E R -                       
                                                                              
 v1 FN, 2020, v2 2021, v3 2022-2024                                           
------------------------------------------------------------------------------


----------------------
SHARK INTEGRAL PACKAGE
----------------------

Number of atoms                             ...     73
Number of basis functions                   ...    626
Number of shells                            ...    306
Maximum angular momentum                    ...      2
Integral batch strategy                     ... SHARK/LIBINT Hybrid
RI-J (if used) integral strategy            ... SPLIT-RIJ (Revised 2003 algorithm where possible)
Printlevel                                  ...      1
Contraction scheme used                     ... SEGMENTED contraction
Prescreening option                         ... SCHWARTZ
   Thresh                                   ... 3.000e-11
   Tcut                                     ... 1.000e-12
   Tpresel                                  ... 1.000e-12 
Coulomb Range Separation                    ... NOT USED
Exchange Range Separation                   ... Long Range
   Mu parameter                             ... 3.000e-01
   Scaling (regular/separated)              ... 1.670e-01 8.330e-01
Multipole approximations                    ... NOT USED
Finite Nucleus Model                        ... NOT USED
CABS basis                                  ... NOT available
Auxiliary Coulomb fitting basis             ... AVAILABLE
   # of basis functions in Aux-J            ...   1905
   # of shells in Aux-J                     ...    655
   Maximum angular momentum in Aux-J        ...      4
Auxiliary J/K fitting basis                 ... NOT available
Auxiliary Correlation fitting basis         ... NOT available
Auxiliary 'external' fitting basis          ... NOT available

Checking pre-screening integrals            ... done (  0.0 sec) Dimension = 306
Check shell pair data                       ... done (  0.0 sec)
Shell pair information
Shell pair cut-off parameter TPreSel        ...   1.0e-12
Total number of shell pairs                 ...     46971
Shell pairs after pre-screening             ...     27100
Total number of primitive shell pairs       ...    162105
Primitive shell pairs kept                  ...     59951
          la=0 lb=0:   9480 shell pairs
          la=1 lb=0:  10380 shell pairs
          la=1 lb=1:   2884 shell pairs
          la=2 lb=0:   2712 shell pairs
          la=2 lb=1:   1449 shell pairs
          la=2 lb=2:    195 shell pairs

Calculating one electron integrals          ... done (  0.1 sec)
Calculating RI/J V-Matrix + Cholesky decomp.... done (  0.2 sec)
Calculating Nuclear repulsion               ... done (  0.0 sec) ENN=   2767.552559492728 Eh

Diagonalization of the overlap matrix:
Smallest eigenvalue                        ... 4.567e-04
Time for diagonalization                   ...    0.044 sec
Threshold for overlap eigenvalues          ... 1.000e-07
Number of eigenvalues below threshold      ... 0
Time for construction of square roots      ...    0.023 sec
Total time needed                          ...    0.070 sec

-------------------
DFT GRID GENERATION
-------------------

General Integration Accuracy     IntAcc      ... 4.388
Radial Grid Type                 RadialGrid  ... OptM3 with GC (2021)
Angular Grid (max. ang.)         AngularGrid ... 4 (Lebedev-302)
Angular grid pruning method      GridPruning ... 4 (adaptive)
Weight generation scheme         WeightScheme... mBecke (2022)
Basis function cutoff            BFCut       ... 1.0000e-11
Integration weight cutoff        WCut        ... 1.0000e-14
Partially contracted basis set               ... off
Rotationally invariant grid construction     ... off
Angular grids for H and He will be reduced by one unit

Total number of grid points                  ...   310040
Total number of batches                      ...     4883
Average number of points per batch           ...       63
Average number of grid points per atom       ...     4247

--------------------
COSX GRID GENERATION
--------------------

GRIDX 1
-------
General Integration Accuracy     IntAcc      ... 3.816
Radial Grid Type                 RadialGrid  ... OptM3 with GC (2021)
Angular Grid (max. ang.)         AngularGrid ... 1 (Lebedev-50)
Angular grid pruning method      GridPruning ... 4 (adaptive)
Weight generation scheme         WeightScheme... mBecke (2022)
Basis function cutoff            BFCut       ... 1.0000e-11
Integration weight cutoff        WCut        ... 1.0000e-14
Partially contracted basis set               ... on
Rotationally invariant grid construction     ... off
Angular grids for H and He will be reduced by one unit

Total number of grid points                  ...    39426
Total number of batches                      ...      350
Average number of points per batch           ...      112
Average number of grid points per atom       ...      540
UseSFitting                                  ... on

GRIDX 2
-------
General Integration Accuracy     IntAcc      ... 4.020
Radial Grid Type                 RadialGrid  ... OptM3 with GC (2021)
Angular Grid (max. ang.)         AngularGrid ... 2 (Lebedev-110)
Angular grid pruning method      GridPruning ... 4 (adaptive)
Weight generation scheme         WeightScheme... mBecke (2022)
Basis function cutoff            BFCut       ... 1.0000e-11
Integration weight cutoff        WCut        ... 1.0000e-14
Partially contracted basis set               ... on
Rotationally invariant grid construction     ... off
Angular grids for H and He will be reduced by one unit

Total number of grid points                  ...    81452
Total number of batches                      ...      679
Average number of points per batch           ...      119
Average number of grid points per atom       ...     1116
UseSFitting                                  ... on

GRIDX 3
-------
General Integration Accuracy     IntAcc      ... 4.338
Radial Grid Type                 RadialGrid  ... OptM3 with GC (2021)
Angular Grid (max. ang.)         AngularGrid ... 3 (Lebedev-194)
Angular grid pruning method      GridPruning ... 4 (adaptive)
Weight generation scheme         WeightScheme... mBecke (2022)
Basis function cutoff            BFCut       ... 1.0000e-11
Integration weight cutoff        WCut        ... 1.0000e-14
Partially contracted basis set               ... on
Rotationally invariant grid construction     ... off
Angular grids for H and He will be reduced by one unit

Total number of grid points                  ...   176357
Total number of batches                      ...     1418
Average number of points per batch           ...      124
Average number of grid points per atom       ...     2416
UseSFitting                                  ... on
Initializing property integral containers    ... done (  0.0 sec)

SHARK setup successfully completed in   4.3 seconds

Maximum memory used throughout the entire STARTUP-calculation: 95.4 MB


           ************************************************************
           *        Program running with 4 parallel MPI-processes     *
           *              working on a common directory               *
           ************************************************************
-------------------------------------------------------------------------------
                                 ORCA GUESS
                   Start orbitals & Density for SCF / CASSCF
-------------------------------------------------------------------------------

------------
SCF SETTINGS
------------
Hamiltonian:
 Density Functional     Method          .... DFT(GTOs)
 Exchange Functional    Exchange        .... WB97X-V
 Correlation Functional Correlation     .... WB97X-V
 Gradients option       PostSCFGGA      .... off
 Hybrid DFT is turned on
   Fraction HF Exchange ScalHFX         ....  0.167000
   Scaling of DF-GGA-X  ScalDFX         ....  0.000000
   Scaling of DF-GGA-C  ScalDFC         ....  1.000000
   Scaling of DF-LDA-C  ScalLDAC        ....  1.000000
   Perturbative correction              ....  0.000000
 Long-range corrected/Screened/Range-Separated Hybrid DFT is turned on
   Amount of maximum screened exact exchange              ....  0.833000
   Range separation parameter mu (erf(mu*r12)/r12)        ....  0.300000
 RI-approximation to the Coulomb term is turned on
   Number of AuxJ basis functions       .... 1905
   RIJ-COSX (HFX calculated with COS-X)).... on


General Settings:
 Integral files         IntName         .... inpS
 Hartree-Fock type      HFTyp           .... RHF
 Total Charge           Charge          ....    0
 Multiplicity           Mult            ....    1
 Number of Electrons    NEL             ....  220
 Basis Dimension        Dim             ....  626
 Nuclear Repulsion      ENuc            ....   2767.5525594927 Eh

Convergence Acceleration:
 AO-DIIS                CNVDIIS         .... on
   Start iteration      DIISMaxIt       ....    12
   Startup error        DIISStart       ....  0.200000
   # of expansion vecs  DIISMaxEq       ....     5
   Bias factor          DIISBfac        ....   1.050
   Max. coefficient     DIISMaxC        ....  10.000
 MO-DIIS                CNVKDIIS        .... off
 Trust-Rad. Augm. Hess. CNVTRAH         .... auto
   Auto Start mean grad. ratio tolernc. ....  1.125000
   Auto Start start iteration           ....     1
   Auto Start num. interpolation iter.  ....    10
   Max. Number of Micro iterations      ....    24
   Max. Number of Macro iterations      .... Maxiter - #DIIS iter
   Number of Davidson start vectors     ....     2
   Converg. threshold    (grad. norm)   ....   1.000e-04
   Grad. Scal. Fac. for Micro threshold ....   0.100
   Minimum threshold for Micro iter.    ....   1.000e-02
   NR start threshold (gradient norm)   ....   1.000e-04
   Initial trust radius                 ....   0.400
   Minimum AH scaling param. (alpha)    ....   1.000
   Maximum AH scaling param. (alpha)    .... 1000.000
   Quad. conv. algorithm                .... NR
   White noise on init. David. guess    .... on
   Maximum white noise                  ....   0.010
   Pseudo random numbers                .... off
   Inactive MOs                         .... canonical
   Orbital update algorithm             .... Taylor
   Preconditioner                       .... Diag
   Full preconditioner red. dimension   ....   250
 SOSCF                  CNVSOSCF        .... off
 Level Shifting         CNVShift        .... on
   Level shift para.    LevelShift      ....    0.2500
   Turn off err/grad.   ShiftErr        ....    0.0010
 Zerner damping         CNVZerner       .... off
 Static damping         CNVDamp         .... on
   Fraction old density DampFac         ....    0.7000
   Max. Damping (<1)    DampMax         ....    0.9800
   Min. Damping (>=0)   DampMin         ....    0.0000
   Turn off err/grad.   DampErr         ....    0.1000

SCF Procedure:
 Maximum # iterations   MaxIter         ....   125
 SCF integral mode      SCFMode         .... Direct
   Integral package                     .... SHARK and LIBINT hybrid scheme
 Reset frequency        DirectResetFreq ....    20
 Integral Threshold     Thresh          ....  3.000e-11 Eh
 Primitive CutOff       TCut            ....  1.000e-12 Eh

Convergence Tolerance:
 Convergence Check Mode ConvCheckMode   .... Total+1el-Energy
 Convergence forced     ConvForced      .... 0
 Energy Change          TolE            ....  1.000e-07 Eh
 1-El. energy change                    ....  1.000e-04 Eh
 DIIS Error             TolErr          ....  1.000e-07

---------------------
INITIAL GUESS: MOREAD
---------------------
Guess MOs are being read from file: inpS.ges
Input Geometry matches current geometry (good)
Input basis set matches current basis set (good)
Occupation numbers will be reassigned to an Aufbau configuration
MOs were renormalized
MOs were reorthogonalized (Cholesky)
                      ------------------
                      INITIAL GUESS DONE (   0.2 sec)
                      ------------------
             **** ENERGY FILE WAS UPDATED (inpS.en.tmp) ****
Finished Guess after   0.3 sec
Maximum memory used throughout the entire GUESS-calculation: 52.0 MB


           ************************************************************
           *        Program running with 4 parallel MPI-processes     *
           *              working on a common directory               *
           ************************************************************

-------------------------------------------------------------------------------------------
                                      ORCA LEAN-SCF
                              memory conserving SCF solver
-------------------------------------------------------------------------------------------

--------------------
CPCM SOLVATION MODEL
--------------------
CPCM parameters:
  Epsilon                                         ...       4.8030
  Refrac                                          ...       1.4459
  Rsolv                                           ...       1.3000
  Surface type                                    ... GAUSSIAN VDW
  Discretization scheme                           ... Constant charge density
    Threshold for H atoms                         ...       5.0000 (charges/Ang^2)
    Threshold for non-H atoms                     ...       5.0000 (charges/Ang^2)
  Epsilon function type                           ...         CPCM
Solvent:                                          ... CHLOROFORM
Radii:
  Scheme                                          ... Element-dependent radii
  Radius for C  used is    3.8550 Bohr (=   2.0400 Ang.)
  Radius for H  used is    2.4944 Bohr (=   1.3200 Ang.)
  Radius for O  used is    3.4469 Bohr (=   1.8240 Ang.)
Calculating surface                               ...        done! (  0.0s)
Cavity surface points                             ...         5405
Cavity Volume                                     ...    3612.9457
Cavity Surface-area                               ...    1803.3582
Calculating surface distance matrix               ...        done! (  0.2s)
Performing Cholesky decomposition & store         ...        done! (  0.9s)
Overall time for CPCM initialization              ...                 1.2s

----------------------------------------D-I-I-S--------------------------------------------
Iteration    Energy (Eh)           Delta-E    RMSDP     MaxDP     DIISErr   Damp  Time(sec)
-------------------------------------------------------------------------------------------
               ***  Starting incremental Fock matrix formation  ***
    1    -1168.3637185295251584     0.00e+00  3.13e-08  2.10e-06  4.47e-06  0.700  23.4

  HOMO= 109 E= -7.960 eV LUMO=  8.071 eV gap=  16.031 eV
    2    -1168.3637185178890832     1.16e-08  2.69e-08  1.34e-06  2.47e-06  0.700   4.8
                 **** Energy Check signals convergence ****

  HOMO= 109 E= -7.960 eV LUMO=  8.071 eV gap=  16.031 eV

               *****************************************************
               *                     SUCCESS                       *
               *           SCF CONVERGED AFTER   2 CYCLES          *
               *****************************************************

Recomputing exchange energy using gridx3       ... done (   40.482 sec)
Old exchange energy                            :    -56.782380184 Eh
New exchange energy                            :    -56.782432394 Eh
Exchange energy change after final integration :     -0.000052210 Eh
Total energy after final integration           :  -1168.363770728 Eh
             **** ENERGY FILE WAS UPDATED (inpS.en.tmp) ****

----------------
TOTAL SCF ENERGY
----------------

Total Energy       :      -1168.36377072780760 Eh          -31792.79452 eV

Components:
Nuclear Repulsion  :       2767.55255949272805 Eh           75308.93378 eV
Electronic Energy  :      -3935.90701167408452 Eh         -107101.47472 eV
One Electron Energy:      -7080.15133306072858 Eh         -192660.71245 eV
Two Electron Energy:       3144.24432138664406 Eh           85559.23773 eV
CPCM Dielectric    :         -0.00926633653243 Eh              -0.25215 eV

Virial components:
Potential Energy   :      -2321.66047392548626 Eh          -63175.59328 eV
Kinetic Energy     :       1153.29670319767843 Eh           31382.79876 eV
Virial Ratio       :          2.01306434631119

DFT components:
N(Alpha)           :      110.000003609044 electrons
N(Beta)            :      110.000003609044 electrons
N(Total)           :      220.000007218088 electrons
E(X)               :     -111.767799077060 Eh       
E(C)               :       -8.950199973488 Eh       
E(XC)              :     -120.717999050548 Eh       

CPCM Solvation Model Properties:
Surface-charge          :         -0.04231586857903
Corrected charge        :         -0.00000000000000
Outlying charge corr.   :          0.00006238031683 Eh               0.00170 eV
Free-energy (cav+disp)  :  This term is not implemented in the current solvation scheme

---------------
SCF CONVERGENCE
---------------

  Last Energy change         ...   -1.1636e-08  Tolerance :   1.0000e-07
  Last MAX-Density change    ...    1.3434e-06  Tolerance :   1.0000e-05
  Last RMS-Density change    ...    2.6919e-08  Tolerance :   1.0000e-06
  Last DIIS Error            ...    2.4727e-06  Tolerance :   1.0000e-07


----------------
ORBITAL ENERGIES
----------------

  NO   OCC          E(Eh)            E(eV) 
   0   2.0000     -19.212343      -522.7944 
   1   2.0000     -10.330309      -281.1020 
   2   2.0000     -10.294233      -280.1203 
   3   2.0000     -10.292052      -280.0610 
   4   2.0000     -10.287548      -279.9384 
   5   2.0000     -10.286560      -279.9115 
   6   2.0000     -10.285464      -279.8817 
   7   2.0000     -10.284117      -279.8451 
   8   2.0000     -10.282970      -279.8138 
   9   2.0000     -10.281941      -279.7858 
  10   2.0000     -10.281261      -279.7673 
  11   2.0000     -10.280962      -279.7592 
  12   2.0000     -10.279334      -279.7149 
  13   2.0000     -10.278055      -279.6801 
  14   2.0000     -10.277636      -279.6687 
  15   2.0000     -10.277504      -279.6651 
  16   2.0000     -10.277459      -279.6639 
  17   2.0000     -10.276967      -279.6505 
  18   2.0000     -10.274498      -279.5833 
  19   2.0000     -10.272975      -279.5419 
  20   2.0000     -10.272792      -279.5369 
  21   2.0000     -10.272245      -279.5220 
  22   2.0000     -10.270868      -279.4845 
  23   2.0000     -10.270258      -279.4679 
  24   2.0000     -10.269981      -279.4604 
  25   2.0000     -10.269925      -279.4589 
  26   2.0000     -10.268399      -279.4173 
  27   2.0000     -10.268195      -279.4118 
  28   2.0000     -10.267342      -279.3886 
  29   2.0000      -1.130858       -30.7722 
  30   2.0000      -0.998707       -27.1762 
  31   2.0000      -0.977285       -26.5933 
  32   2.0000      -0.956976       -26.0406 
  33   2.0000      -0.943124       -25.6637 
  34   2.0000      -0.918205       -24.9856 
  35   2.0000      -0.911006       -24.7897 
  36   2.0000      -0.890278       -24.2257 
  37   2.0000      -0.888046       -24.1650 
  38   2.0000      -0.873710       -23.7749 
  39   2.0000      -0.853548       -23.2262 
  40   2.0000      -0.834695       -22.7132 
  41   2.0000      -0.829018       -22.5587 
  42   2.0000      -0.809689       -22.0327 
  43   2.0000      -0.801365       -21.8062 
  44   2.0000      -0.797065       -21.6892 
  45   2.0000      -0.791474       -21.5371 
  46   2.0000      -0.761002       -20.7079 
  47   2.0000      -0.757261       -20.6061 
  48   2.0000      -0.722782       -19.6679 
  49   2.0000      -0.712939       -19.4000 
  50   2.0000      -0.703913       -19.1544 
  51   2.0000      -0.696462       -18.9517 
  52   2.0000      -0.688783       -18.7427 
  53   2.0000      -0.670393       -18.2423 
  54   2.0000      -0.655859       -17.8468 
  55   2.0000      -0.640970       -17.4417 
  56   2.0000      -0.630531       -17.1576 
  57   2.0000      -0.619858       -16.8672 
  58   2.0000      -0.607450       -16.5296 
  59   2.0000      -0.600973       -16.3533 
  60   2.0000      -0.591176       -16.0867 
  61   2.0000      -0.584888       -15.9156 
  62   2.0000      -0.575826       -15.6690 
  63   2.0000      -0.569384       -15.4937 
  64   2.0000      -0.561840       -15.2884 
  65   2.0000      -0.558463       -15.1965 
  66   2.0000      -0.555377       -15.1126 
  67   2.0000      -0.549874       -14.9628 
  68   2.0000      -0.547851       -14.9078 
  69   2.0000      -0.547104       -14.8874 
  70   2.0000      -0.538075       -14.6418 
  71   2.0000      -0.530236       -14.4285 
  72   2.0000      -0.523642       -14.2490 
  73   2.0000      -0.519540       -14.1374 
  74   2.0000      -0.514935       -14.0121 
  75   2.0000      -0.509628       -13.8677 
  76   2.0000      -0.505456       -13.7542 
  77   2.0000      -0.501166       -13.6374 
  78   2.0000      -0.500939       -13.6313 
  79   2.0000      -0.494113       -13.4455 
  80   2.0000      -0.488911       -13.3040 
  81   2.0000      -0.487559       -13.2671 
  82   2.0000      -0.486396       -13.2355 
  83   2.0000      -0.480395       -13.0722 
  84   2.0000      -0.472145       -12.8477 
  85   2.0000      -0.467792       -12.7293 
  86   2.0000      -0.463338       -12.6081 
  87   2.0000      -0.462519       -12.5858 
  88   2.0000      -0.459298       -12.4981 
  89   2.0000      -0.452307       -12.3079 
  90   2.0000      -0.449377       -12.2282 
  91   2.0000      -0.446500       -12.1499 
  92   2.0000      -0.440086       -11.9753 
  93   2.0000      -0.434417       -11.8211 
  94   2.0000      -0.428425       -11.6580 
  95   2.0000      -0.423965       -11.5367 
  96   2.0000      -0.422899       -11.5077 
  97   2.0000      -0.416706       -11.3392 
  98   2.0000      -0.416170       -11.3246 
  99   2.0000      -0.415417       -11.3041 
 100   2.0000      -0.411281       -11.1915 
 101   2.0000      -0.409746       -11.1498 
 102   2.0000      -0.405517       -11.0347 
 103   2.0000      -0.402237       -10.9454 
 104   2.0000      -0.392551       -10.6818 
 105   2.0000      -0.380359       -10.3501 
 106   2.0000      -0.372652       -10.1404 
 107   2.0000      -0.355634        -9.6773 
 108   2.0000      -0.337868        -9.1939 
 109   2.0000      -0.292522        -7.9599 
 110   0.0000       0.046605         1.2682 
 111   0.0000       0.099401         2.7049 
 112   0.0000       0.108013         2.9392 
 113   0.0000       0.133745         3.6394 
 114   0.0000       0.140355         3.8192 
 115   0.0000       0.142791         3.8855 
 116   0.0000       0.148275         4.0348 
 117   0.0000       0.157745         4.2925 
 118   0.0000       0.159841         4.3495 
 119   0.0000       0.165974         4.5164 
 120   0.0000       0.168353         4.5811 
*Only the first 10 virtual orbitals were printed.

                    ********************************
                    * MULLIKEN POPULATION ANALYSIS *
                    ********************************

-----------------------
MULLIKEN ATOMIC CHARGES
-----------------------
   0 C :   -0.174486
   1 C :    0.141942
   2 C :    0.068422
   3 H :    0.017326
   4 H :    0.030669
   5 C :   -0.170922
   6 C :    0.095822
   7 C :    0.024122
   8 H :    0.013631
   9 H :    0.027328
  10 H :    0.019839
  11 H :    0.022598
  12 O :   -0.359261
  13 H :    0.018131
  14 C :   -0.007982
  15 C :   -0.046117
  16 H :    0.035269
  17 H :    0.029363
  18 C :   -0.062725
  19 H :   -0.002575
  20 C :   -0.113371
  21 H :    0.003158
  22 C :    0.114227
  23 C :   -0.001579
  24 H :    0.014311
  25 H :    0.017101
  26 C :    0.106480
  27 H :    0.013123
  28 H :    0.015665
  29 C :   -0.412082
  30 H :    0.009010
  31 H :   -0.002500
  32 C :   -0.042447
  33 H :    0.010868
  34 C :    0.120544
  35 H :    0.178984
  36 C :    0.070735
  37 H :    0.007518
  38 H :    0.015337
  39 C :   -0.037778
  40 H :    0.008973
  41 H :    0.000988
  42 H :   -0.007872
  43 C :   -0.041951
  44 C :    0.091926
  45 H :    0.019773
  46 H :    0.024399
  47 H :    0.018744
  48 H :    0.000477
  49 C :    0.052588
  50 C :   -0.040079
  51 C :   -0.050789
  52 H :    0.003640
  53 H :    0.011711
  54 C :   -0.069667
  55 C :    0.019436
  56 C :   -0.141025
  57 H :    0.003009
  58 H :    0.007123
  59 C :    0.032948
  60 C :    0.011925
  61 H :    0.021566
  62 H :    0.021407
  63 H :    0.021493
  64 H :    0.016764
  65 H :    0.017093
  66 H :    0.019307
  67 H :    0.018570
  68 H :    0.019491
  69 H :    0.019183
  70 H :    0.031205
  71 H :    0.013126
  72 H :    0.016821
Sum of atomic charges:    0.0000000

--------------------------------
MULLIKEN REDUCED ORBITAL CHARGES
--------------------------------
  0 C s       :     3.102510  s :     3.102510
      pz      :     1.015653  p :     3.028945
      px      :     1.003434
      py      :     1.009858
      dz2     :     0.005145  d :     0.043031
      dxz     :     0.006522
      dyz     :     0.005813
      dx2y2   :     0.013953
      dxy     :     0.011599

  1 C s       :     2.939681  s :     2.939681
      pz      :     0.989655  p :     2.883981
      px      :     0.929882
      py      :     0.964444
      dz2     :     0.007925  d :     0.034396
      dxz     :     0.006608
      dyz     :     0.003915
      dx2y2   :     0.009845
      dxy     :     0.006103

  2 C s       :     3.085166  s :     3.085166
      pz      :     0.737225  p :     2.775760
      px      :     1.045307
      py      :     0.993228
      dz2     :     0.022909  d :     0.070651
      dxz     :     0.011412
      dyz     :     0.017571
      dx2y2   :     0.011426
      dxy     :     0.007333

  3 H s       :     0.960021  s :     0.960021
      pz      :     0.005102  p :     0.022653
      px      :     0.003676
      py      :     0.013875

  4 H s       :     0.946021  s :     0.946021
      pz      :     0.014299  p :     0.023310
      px      :     0.004632
      py      :     0.004380

  5 C s       :     3.108990  s :     3.108990
      pz      :     0.975322  p :     3.017126
      px      :     0.987271
      py      :     1.054532
      dz2     :     0.009582  d :     0.044806
      dxz     :     0.005499
      dyz     :     0.008945
      dx2y2   :     0.010961
      dxy     :     0.009819

  6 C s       :     2.955051  s :     2.955051
      pz      :     1.002627  p :     2.913681
      px      :     0.945749
      py      :     0.965305
      dz2     :     0.008779  d :     0.035447
      dxz     :     0.006200
      dyz     :     0.004353
      dx2y2   :     0.008820
      dxy     :     0.007295

  7 C s       :     3.002385  s :     3.002385
      pz      :     0.985259  p :     2.938708
      px      :     0.981805
      py      :     0.971644
      dz2     :     0.007554  d :     0.034786
      dxz     :     0.006212
      dyz     :     0.004535
      dx2y2   :     0.008524
      dxy     :     0.007961

  8 H s       :     0.963537  s :     0.963537
      pz      :     0.005785  p :     0.022832
      px      :     0.003738
      py      :     0.013309

  9 H s       :     0.949276  s :     0.949276
      pz      :     0.014391  p :     0.023396
      px      :     0.004580
      py      :     0.004425

 10 H s       :     0.957335  s :     0.957335
      pz      :     0.014031  p :     0.022826
      px      :     0.004701
      py      :     0.004094

 11 H s       :     0.954772  s :     0.954772
      pz      :     0.007923  p :     0.022630
      px      :     0.007359
      py      :     0.007348

 12 O s       :     3.713500  s :     3.713500
      pz      :     1.405055  p :     4.633624
      px      :     1.340847
      py      :     1.887722
      dz2     :     0.005377  d :     0.012137
      dxz     :     0.001396
      dyz     :     0.001624
      dx2y2   :     0.003195
      dxy     :     0.000546

 13 H s       :     0.961522  s :     0.961522
      pz      :     0.001868  p :     0.020347
      px      :     0.014082
      py      :     0.004397

 14 C s       :     3.194264  s :     3.194264
      pz      :     0.992969  p :     2.777351
      px      :     0.872803
      py      :     0.911579
      dz2     :     0.004062  d :     0.036366
      dxz     :     0.007635
      dyz     :     0.003215
      dx2y2   :     0.011103
      dxy     :     0.010352

 15 C s       :     3.123887  s :     3.123887
      pz      :     1.007900  p :     2.895966
      px      :     0.982083
      py      :     0.905983
      dz2     :     0.005389  d :     0.026264
      dxz     :     0.004106
      dyz     :     0.004604
      dx2y2   :     0.006426
      dxy     :     0.005739

 16 H s       :     0.940191  s :     0.940191
      pz      :     0.006797  p :     0.024540
      px      :     0.008512
      py      :     0.009231

 17 H s       :     0.946022  s :     0.946022
      pz      :     0.004873  p :     0.024615
      px      :     0.004377
      py      :     0.015365

 18 C s       :     3.200085  s :     3.200085
      pz      :     1.031391  p :     2.827458
      px      :     0.883000
      py      :     0.913067
      dz2     :     0.003553  d :     0.035182
      dxz     :     0.006745
      dyz     :     0.003120
      dx2y2   :     0.012105
      dxy     :     0.009658

 19 H s       :     0.978262  s :     0.978262
      pz      :     0.004737  p :     0.024313
      px      :     0.004746
      py      :     0.014830

 20 C s       :     3.099802  s :     3.099802
      pz      :     0.958142  p :     2.969448
      px      :     0.984451
      py      :     1.026854
      dz2     :     0.004436  d :     0.044121
      dxz     :     0.007098
      dyz     :     0.006846
      dx2y2   :     0.014164
      dxy     :     0.011577

 21 H s       :     0.972245  s :     0.972245
      pz      :     0.004648  p :     0.024597
      px      :     0.004318
      py      :     0.015631

 22 C s       :     2.925944  s :     2.925944
      pz      :     1.002612  p :     2.924320
      px      :     0.976048
      py      :     0.945660
      dz2     :     0.009738  d :     0.035509
      dxz     :     0.004105
      dyz     :     0.005495
      dx2y2   :     0.009709
      dxy     :     0.006463

 23 C s       :     3.000792  s :     3.000792
      pz      :     1.011393  p :     2.964346
      px      :     0.964266
      py      :     0.988687
      dz2     :     0.010006  d :     0.036441
      dxz     :     0.007307
      dyz     :     0.002984
      dx2y2   :     0.010183
      dxy     :     0.005962

 24 H s       :     0.962495  s :     0.962495
      pz      :     0.004942  p :     0.023195
      px      :     0.013426
      py      :     0.004826

 25 H s       :     0.959628  s :     0.959628
      pz      :     0.013927  p :     0.023271
      px      :     0.004729
      py      :     0.004615

 26 C s       :     2.969630  s :     2.969630
      pz      :     0.969603  p :     2.888567
      px      :     0.975943
      py      :     0.943022
      dz2     :     0.007336  d :     0.035323
      dxz     :     0.006445
      dyz     :     0.005384
      dx2y2   :     0.008495
      dxy     :     0.007663

 27 H s       :     0.964022  s :     0.964022
      pz      :     0.013917  p :     0.022855
      px      :     0.004273
      py      :     0.004666

 28 H s       :     0.961692  s :     0.961692
      pz      :     0.004816  p :     0.022643
      px      :     0.003760
      py      :     0.014067

 29 C s       :     3.255615  s :     3.255615
      pz      :     1.049573  p :     3.105449
      px      :     1.000332
      py      :     1.055543
      dz2     :     0.011848  d :     0.051017
      dxz     :     0.010374
      dyz     :     0.009296
      dx2y2   :     0.010669
      dxy     :     0.008831

 30 H s       :     0.967949  s :     0.967949
      pz      :     0.008661  p :     0.023041
      px      :     0.008006
      py      :     0.006374

 31 H s       :     0.979963  s :     0.979963
      pz      :     0.013408  p :     0.022538
      px      :     0.004807
      py      :     0.004323

 32 C s       :     3.034586  s :     3.034586
      pz      :     0.990097  p :     2.964123
      px      :     0.945027
      py      :     1.028998
      dz2     :     0.008889  d :     0.043738
      dxz     :     0.007095
      dyz     :     0.007586
      dx2y2   :     0.011110
      dxy     :     0.009057

 33 H s       :     0.967858  s :     0.967858
      pz      :     0.012705  p :     0.021273
      px      :     0.004081
      py      :     0.004487

 34 C s       :     2.898777  s :     2.898777
      pz      :     0.988745  p :     2.945867
      px      :     0.979036
      py      :     0.978086
      dz2     :     0.005468  d :     0.034811
      dxz     :     0.005983
      dyz     :     0.008053
      dx2y2   :     0.009025
      dxy     :     0.006284

 35 H s       :     0.752230  s :     0.752230
[...]
 Total          139.563          174.136          192.092  iso=     168.597

 Orientation: 
  X           0.2472102   -0.4654902    0.8498270
  Y          -0.1178801   -0.8849824   -0.4504558
  Z           0.9617647    0.0111795   -0.2736487

 --------------
 Nucleus  39C :
 --------------

Diamagnetic contribution to the shielding tensor (ppm) : 
           264.296          2.697        -6.281
             2.222        261.936         9.338
            -6.166          8.187       260.790

Paramagnetic contribution to the shielding tensor (ppm): 
           -99.672          2.096         9.244
             6.569       -126.280        -4.127
            13.831         -5.328      -130.758

Total shielding tensor (ppm): 
           164.623          4.794         2.962
             8.791        135.657         5.211
             7.665          2.859       130.032


 Diagonalized sT*s matrix:
 
 sDSO           254.904          268.241          263.876  iso=     262.341
 sPSO          -127.061         -132.904          -96.745  iso=    -118.903
        ---------------  ---------------  ---------------
 Total          127.843          135.338          167.131  iso=     143.437

 Orientation: 
  X          -0.0484806   -0.2658555   -0.9627931
  Y          -0.4263355    0.8772140   -0.2207569
  Z           0.9032650    0.3997705   -0.1558715

 --------------
 Nucleus  43C :
 --------------

Diamagnetic contribution to the shielding tensor (ppm) : 
           258.994         -1.848        -5.609
            -6.211        247.758        11.287
            -7.131         13.706       245.536

Paramagnetic contribution to the shielding tensor (ppm): 
           -94.315         -1.132         4.482
             9.694        -96.030        -8.754
             7.816        -12.133       -92.490

Total shielding tensor (ppm): 
           164.678         -2.980        -1.127
             3.483        151.727         2.533
             0.685          1.573       153.046


 Diagonalized sT*s matrix:
 
 sDSO           235.055          258.067          259.166  iso=     250.763
 sPSO           -84.832         -103.523          -94.481  iso=     -94.279
        ---------------  ---------------  ---------------
 Total          150.223          154.544          164.685  iso=     156.484

 Orientation: 
  X          -0.0161803    0.0108610   -0.9998101
  Y           0.8065190    0.5911709   -0.0066302
  Z          -0.5909867    0.8064732    0.0183249

 --------------
 Nucleus  44C :
 --------------

Diamagnetic contribution to the shielding tensor (ppm) : 
           250.405         -0.454         1.502
            -1.973        255.865         1.065
            -0.026          5.115       272.465

Paramagnetic contribution to the shielding tensor (ppm): 
           -70.908         -3.630        -2.422
            -0.357        -76.623        -4.031
            -0.782         -8.464       -79.482

Total shielding tensor (ppm): 
           179.497         -4.084        -0.921
            -2.331        179.243        -2.966
            -0.808         -3.348       192.983


 Diagonalized sT*s matrix:
 
 sDSO           253.721          254.598          270.416  iso=     259.579
 sPSO           -78.049          -72.224          -76.741  iso=     -75.671
        ---------------  ---------------  ---------------
 Total          175.673          182.375          193.676  iso=     183.908

 Orientation: 
  X           0.6572751    0.7535533   -0.0121174
  Y           0.7348443   -0.6443601   -0.2116693
  Z           0.1673121   -0.1302206    0.9772662

 --------------
 Nucleus  49C :
 --------------

Diamagnetic contribution to the shielding tensor (ppm) : 
           243.570         -7.838        -2.516
           -21.275        256.133         6.831
            -7.552          7.317       243.771

Paramagnetic contribution to the shielding tensor (ppm): 
           -69.653          2.599        -3.576
            19.492        -68.380         0.477
             2.817         -2.735       -77.161

Total shielding tensor (ppm): 
           173.917         -5.239        -6.092
            -1.783        187.753         7.308
            -4.734          4.582       166.610


 Diagonalized sT*s matrix:
 
 sDSO           240.265          237.071          266.138  iso=     247.825
 sPSO           -77.120          -62.660          -75.414  iso=     -71.731
        ---------------  ---------------  ---------------
 Total          163.145          174.411          190.724  iso=     176.093

 Orientation: 
  X           0.4012704   -0.8724089    0.2790786
  Y          -0.1663187   -0.3690172   -0.9144202
  Z           0.9007331    0.3205138   -0.2931736

 --------------
 Nucleus  50C :
 --------------

Diamagnetic contribution to the shielding tensor (ppm) : 
           263.759         12.943         7.986
            11.427        259.901        -2.465
            17.800        -11.460       256.450

Paramagnetic contribution to the shielding tensor (ppm): 
          -186.970        -30.984       -84.650
           -34.709       -157.233        28.785
           -88.603         44.789      -254.142

Total shielding tensor (ppm): 
            76.789        -18.041       -76.664
           -23.282        102.669        26.320
           -70.802         33.329         2.308


 Diagonalized sT*s matrix:
 
 sDSO           271.136          269.255          239.720  iso=     260.037
 sPSO          -312.995         -193.068          -92.281  iso=    -199.448
        ---------------  ---------------  ---------------
 Total          -41.859           76.187          147.439  iso=      60.589

 Orientation: 
  X          -0.5799214    0.4850487   -0.6545372
  Y          -0.0166923    0.7961927    0.6048128
  Z          -0.8145014   -0.3616696    0.4536326

 --------------
 Nucleus  51C :
 --------------

Diamagnetic contribution to the shielding tensor (ppm) : 
           264.137         12.076         8.904
            13.214        265.702        -6.705
            -0.344         -3.113       274.979

Paramagnetic contribution to the shielding tensor (ppm): 
          -184.729        -29.329       -84.709
           -39.265       -157.411        36.392
           -70.840         38.347      -273.850

Total shielding tensor (ppm): 
            79.408        -17.253       -75.805
           -26.051        108.290        29.687
           -71.184         35.234         1.129


 Diagonalized sT*s matrix:
 
 sDSO           275.527          277.789          251.501  iso=     268.272
 sPSO          -318.005         -199.030          -98.955  iso=    -205.330
        ---------------  ---------------  ---------------
 Total          -42.478           78.759          152.546  iso=      62.942

 Orientation: 
  X           0.5624214   -0.5202035    0.6427056
  Y          -0.0004126   -0.7774698   -0.6289201
  Z           0.8268506    0.3534530   -0.4374803

 --------------
 Nucleus  54C :
 --------------

Diamagnetic contribution to the shielding tensor (ppm) : 
           254.702         -1.108         0.226
             5.200        249.370        -2.528
             5.373          0.124       248.246

Paramagnetic contribution to the shielding tensor (ppm): 
           -88.445         14.399         1.197
            -0.508       -106.181         3.238
            -3.451         -0.900       -91.257

Total shielding tensor (ppm): 
           166.256         13.291         1.423
             4.692        143.190         0.710
             1.921         -0.776       156.989


 Diagonalized sT*s matrix:
 
 sDSO           248.524          247.962          255.832  iso=     250.773
 sPSO          -108.439          -91.151          -86.293  iso=     -95.294
        ---------------  ---------------  ---------------
 Total          140.085          156.812          169.538  iso=     155.478

 Orientation: 
  X          -0.3396814    0.1031806   -0.9348638
  Y           0.9398139    0.0763008   -0.3330587
  Z           0.0369656   -0.9917318   -0.1228885

 --------------
 Nucleus  55C :
 --------------

Diamagnetic contribution to the shielding tensor (ppm) : 
           239.538         -4.241        -0.721
            20.327        260.185         0.369
            10.392         -0.178       253.815

Paramagnetic contribution to the shielding tensor (ppm): 
           -60.507          3.891         0.210
           -16.517        -64.737         3.908
            -8.394          3.480       -77.665

Total shielding tensor (ppm): 
           179.031         -0.350        -0.511
             3.810        195.449         4.277
             1.998          3.301       176.149


 Diagonalized sT*s matrix:
 
 sDSO           253.033          238.813          261.692  iso=     251.179
 sPSO           -77.649          -59.929          -65.331  iso=     -67.636
        ---------------  ---------------  ---------------
 Total          175.384          178.884          196.360  iso=     183.543

 Orientation: 
  X          -0.1143096    0.9871659    0.1115204
  Y          -0.1754895   -0.1305558    0.9757862
  Z           0.9778225    0.0919711    0.1881610

 --------------
 Nucleus  56C :
 --------------

Diamagnetic contribution to the shielding tensor (ppm) : 
           252.330          3.715        -2.086
             5.350        223.073        -8.291
             2.510         -4.463       248.096

Paramagnetic contribution to the shielding tensor (ppm): 
           -77.476         -8.238        -0.130
            -5.724        -62.119        12.148
            -9.662          9.183       -89.829

Total shielding tensor (ppm): 
           174.854         -4.523        -2.217
            -0.374        160.955         3.857
            -7.152          4.719       158.267


 Diagonalized sT*s matrix:
 
 sDSO           246.239          229.584          247.676  iso=     241.166
 sPSO           -91.427          -67.186          -70.810  iso=     -76.474
        ---------------  ---------------  ---------------
 Total          154.812          162.398          176.866  iso=     164.692

 Orientation: 
  X           0.1211388    0.3375205   -0.9334909
  Y          -0.5311558    0.8164961    0.2262910
  Z           0.8385695    0.4684165    0.2781854

 --------------
 Nucleus  59C :
 --------------

Diamagnetic contribution to the shielding tensor (ppm) : 
           250.903          7.598         4.046
             8.837        221.180         1.478
            20.246          1.896       221.527

Paramagnetic contribution to the shielding tensor (ppm): 
           -66.704         -3.845        10.901
             0.414        -62.941        -1.376
            -8.262         -4.306       -37.496

Total shielding tensor (ppm): 
           184.199          3.753        14.947
             9.252        158.239         0.103
            11.985         -2.409       184.031


 Diagonalized sT*s matrix:
 
 sDSO           218.490          225.157          249.962  iso=     231.203
 sPSO           -62.576          -52.555          -52.010  iso=     -55.714
        ---------------  ---------------  ---------------
 Total          155.914          172.602          197.952  iso=     175.489

 Orientation: 
  X          -0.2959533   -0.6303640    0.7176719
  Y           0.9369778   -0.3376462    0.0898205
  Z           0.1856996    0.6990252    0.6905645

 --------------
 Nucleus  60C :
 --------------

Diamagnetic contribution to the shielding tensor (ppm) : 
           241.608          2.673        -1.905
             9.366        231.849       -10.635
           -23.138        -14.282       247.791

Paramagnetic contribution to the shielding tensor (ppm): 
           -65.323         -0.815         3.139
           -10.252        -55.947         3.620
            28.959          9.071       -53.612

Total shielding tensor (ppm): 
           176.285          1.858         1.234
            -0.886        175.902        -7.015
             5.821         -5.211       194.179


 Diagonalized sT*s matrix:
 
 sDSO           228.544          244.275          248.430  iso=     240.416
 sPSO           -55.343          -67.662          -51.877  iso=     -58.294
        ---------------  ---------------  ---------------
 Total          173.200          176.613          196.553  iso=     182.122

 Orientation: 
  X          -0.4925031    0.8544856    0.1652122
  Y           0.8093277    0.5194735   -0.2741094
  Z           0.3200458    0.0012889    0.9474012



--------------------------------
CHEMICAL SHIELDING SUMMARY (ppm)
--------------------------------


  Nucleus  Element    Isotropic     Anisotropy
  -------  -------  ------------   ------------
      0       C           61.410        151.836 
      1       C          154.533         12.157 
      2       C          132.339         50.827 
      5       C           50.772        177.618 
      6       C          167.933         31.860 
      7       C          164.887         17.277 
     14       C           71.854        133.308 
     15       C           83.824        119.410 
     18       C           80.226        134.018 
     20       C           52.147        175.777 
     22       C          169.160          7.233 
     23       C          174.176         13.154 
     26       C          158.699         24.157 
     29       C          154.324         16.816 
     32       C          142.698         28.251 
     34       C          174.830         23.849 
     36       C          168.597         35.243 
     39       C          143.437         35.541 
     43       C          156.484         12.301 
     44       C          183.908         14.652 
     49       C          176.093         21.946 
     50       C           60.589        130.275 
     51       C           62.942        134.405 
     54       C          155.478         21.090 
     55       C          183.543         19.226 
     56       C          164.692         18.261 
     59       C          175.489         33.694 
     60       C          182.122         21.646 


NMR shielding tensor and spin rotation calculation done in   1.0 sec 

Maximum memory used throughout the entire PROP-calculation: 51.4 MB

--------------------------------
SUGGESTED CITATIONS FOR THIS RUN
--------------------------------

Below you find a list of papers that are relevant to this ORCA run
We neither can nor want to force you to cite these papers, but we appreciate if you do
You receive ORCA, which is the product of decades of hard work by many enthusiastic individuals, for free
The only thing we kindly ask in return is that you cite our papers,
We deeply appreciate it, if you show your appreciation for ORCA by not just citing the generic ORCA reference.

Please note that relegating all ORCA citations to the supporting information does *not* help us.
SI sections are not indexed - citations you put there will not count into any citation statistics
But we need these citations in order to attract the funding resources that allow us to do what we are doing

Therefore, if you are a happy ORCA user, please consider citing a few of the papers listed below in the main body of your paper

In addition to the list printed below, the program has created the file inpS.bibtex that contains the list in bibtex format
You can import this file easily into all common literature databanks and citation aid programs


List of essential papers. We consider these as the minimum necessary citations

  1. Neese,F.
     Software update: the ORCA program system, version 5.0
     WIRES Comput. Molec. Sci., 2022 12(1)e1606
     doi.org/10.1002/wcms.1606

List of papers to cite with high priority. The work reported in these papers was absolutely
necessary for this run to complete.
Our perspective: the developers of density functionals and basis sets usually get cited in chemistry papers
Good! But without the algorithms to do something with them, the functionals or basis sets would not do anything.
Hence, in our opinion, the algorithm design and method developments papers are equally worthy of getting cited

  1. Neese,F.
     An improvement of the resolution of the identity approximation for the formation of the Coulomb matrix
     J. Comp. Chem., 2003 24(14)1740-1747
     doi.org/10.1002/jcc.10318
  2. Neese,F.; Wennmohs,F.; Hansen,A.; Becker,U.
     Efficient, approximate and parallel Hartree-Fock and hybrid DFT calculations. A 'chain-of-spheres' algorithm for the Hartree-Fock exchange
     Chem. Phys., 2009 356(1-3)98-109
     doi.org/10.1016/j.chemphys.2008.10.036
  3. Stoychev,G.L.; Auer,A.A.; Izsak,R.; Neese,F.
     Self-Consistent Field Calculation of Nuclear Magnetic Resonance Chemical Shielding Constants Using Gauge-Including Atomic Orbitals and Approximate Two-Electron Integrals
     J. Chem. Theory Comput., 2018 14(2)619-637
     doi.org/10.1021/acs.jctc.7b01006
  4. Garcia-Rates,M.; Neese,F.
     Effect of the Solute Cavity on the Solvation Energy and its Derivatives within the Framework of the Gaussian Charge Scheme
     J. Comput. Chem., 2020 41 922-939
     doi.org/10.1002/jcc.26139
  5. Helmich-Paris,B.; de Souza,B.; Neese,F.; Izsák,R.
     An improved chain of spheres for exchange algorithm
     J. Chem. Phys., 2021 155 104109
     doi.org/doi: 10.1063/5.0058766.
  6. Neese,F.
     The SHARK Integral Generation and Digestion System
     J. Comp. Chem., 2022  1-16
     doi.org/10.1002/jcc.26942
  7. Caldeweyher,E.; Bannwarth,C.; Grimme,S.
     Extension of the D3 dispersion coefficient model
     J. Chem. Phys., 2017 147 034112-XXXX
     doi.org/10.1063/1.4993215
  8. Caldeweyher,E.; Ehlert,S.; Hansen,A.; Neugebauer,H.; Spicher,S.; Bannwarth,C.; Grimme,S.
     A generally applicable atomic-charge dependent London dispersion correction
     J. Chem. Phys., 2019 150 154122-XXXX
     doi.org/10.1063/1.5090222
  9. Caldeweyher,E.; Mewes,J.; Ehlert,S.; Grimme,S.
     Extension and evaluation of the D4 London-dispersion model for periodic systems
     Phys. Chem. Chem. Phys., 2020 22(16)8499-8512
     doi.org/10.1039/D0CP00502A

List of suggested additional citations. These are papers that are important in the 'surrounding' of 
of this run, or papers that preceded the highly important papers. If you like your results we are grateful for a citation.

  1. Izsak,R.; Neese,F.
     An overlap fitted chain of spheres exchange method
     J. Chem. Phys., 2011 135 144105
     doi.org/10.1063/1.3646921
  2. Izsak,R.; Hansen,A.; Neese,F.
     The resolution of identity and chain of spheres approximations for the LPNO-CCSD singles Fock term
     Molec. Phys., 2012 110 2413-2417
     doi.org/10.1080/00268976.2012.687466
  3. Neese,F.
     The ORCA program system
     WIRES Comput. Molec. Sci., 2012 2(1)73-78
     doi.org/10.1002/wcms.81
  4. Izsak,R.; Neese,F.; Klopper,W.
     Robust fitting techniques in the chain of spheres approximation to the Fock exchange: The role of the complementary space
     J. Chem. Phys., 2013 139 
     doi.org/10.1063/1.4819264
  5. Neese,F.
     Software update: the ORCA program system, version 4.0
     WIRES Comput. Molec. Sci., 2018 8(1)1-6
     doi.org/10.1002/wcms.1327
  6. Neese,F.; Wennmohs,F.; Becker,U.; Riplinger,C.
     The ORCA quantum chemistry program package
     J. Chem. Phys., 2020 152 Art. No. L224108
     doi.org/10.1063/5.0004608

Timings for individual modules:

Sum of individual times          ...      175.768 sec (=   2.929 min)
Startup calculation              ...        4.471 sec (=   0.075 min)   2.5 %
SCF iterations                   ...       71.420 sec (=   1.190 min)  40.6 %
Property integrals               ...       59.863 sec (=   0.998 min)  34.1 %
SCF Response                     ...       38.703 sec (=   0.645 min)  22.0 %
Property calculations            ...        1.310 sec (=   0.022 min)   0.7 %
                             ****ORCA TERMINATED NORMALLY****
TOTAL RUN TIME: 0 days 0 hours 2 minutes 56 seconds 57 msec
