
                                 *****************
                                 * O   R   C   A *
                                 *****************

                                            #,                                       
                                            ###                                      
                                            ####                                     
                                            #####                                    
                                            ######                                   
                                           ########,                                 
                                     ,,################,,,,,                         
                               ,,#################################,,                 
                          ,,##########################################,,             
                       ,#########################################, ''#####,          
                    ,#############################################,,   '####,        
                  ,##################################################,,,,####,       
                ,###########''''           ''''###############################       
              ,#####''   ,,,,##########,,,,          '''####'''          '####       
            ,##' ,,,,###########################,,,                        '##       
           ' ,,###''''                  '''############,,,                           
         ,,##''                                '''############,,,,        ,,,,,,###''
      ,#''                                            '''#######################'''  
     '                                                          ''''####''''         
             ,#######,   #######,   ,#######,      ##                                
            ,#'     '#,  ##    ##  ,#'     '#,    #''#        ,####,   ,####,        
            ##       ##  ##   ,#'  ##            #'  '#       #'       #'  '#        
            ##       ##  #######   ##           ,######,      #####,   #    #        
            '#,     ,#'  ##    ##  '#,     ,#' ,#      #,     #,   #   #,  ,#        
             '#######'   ##     ##  '#######'  #'      '#     '####' # '####'        



                #########################################################
                #                        -***-                          #
                #          Department of theory and spectroscopy        #
                #                                                       #
                #                      Frank Neese                      #
                #                                                       #
                #     Directorship, Architecture, Infrastructure        #
                #                    SHARK, DRIVERS                     #
                #        Core code/Algorithms in most modules           #
                #                                                       #
                #        Max Planck Institute fuer Kohlenforschung      #
                #                Kaiser Wilhelm Platz 1                 #
                #                 D-45470 Muelheim/Ruhr                 #
                #                      Germany                          #
                #                                                       #
                #                  All rights reserved                  #
                #                        -***-                          #
                #########################################################


                         Program Version 6.0.0  -   RELEASE  -


 With contributions from (in alphabetic order):
   Daniel Aravena         : Magnetic Suceptibility
   Michael Atanasov       : Ab Initio Ligand Field Theory (pilot matlab implementation)
   Alexander A. Auer      : GIAO ZORA, VPT2 properties, NMR spectrum
   Ute Becker             : All parallelization in ORCA, NUMFREQ, NUMCALC
   Giovanni Bistoni       : ED, misc. LED, open-shell LED, HFLD
   Martin Brehm           : Molecular dynamics
   Dmytro Bykov           : pre 5.0 version of the SCF Hessian
   Marcos Casanova-Páez   : Triplet and SCS-CIS(D). UHF-(DLPNO)-IP/EA/STEOM-CCSD. UHF-CVS-IP/STEOM-CCSD
   Vijay G. Chilkuri      : MRCI spin determinant printing, contributions to CSF-ICE
   Pauline Colinet        : FMM embedding
   Dipayan Datta          : RHF DLPNO-CCSD density
   Achintya Kumar Dutta   : EOM-CC, STEOM-CC
   Nicolas Foglia         : Exact transition moments, OPA infrastructure, MCD improvements
   Dmitry Ganyushin       : Spin-Orbit,Spin-Spin,Magnetic field MRCI
   Miquel Garcia          : C-PCM and meta-GGA Hessian, CCSD/C-PCM, Gaussian charge scheme
   Tiago L. C. Gouveia    : GS-ROHF, GS-ROCIS
   Yang Guo               : DLPNO-NEVPT2, F12-NEVPT2, CIM, IAO-localization
   Andreas Hansen         : Spin unrestricted coupled pair/coupled cluster methods
   Ingolf Harden          : AUTO-CI MPn and infrastructure 
   Benjamin Helmich-Paris : MC-RPA, TRAH-(SCF,CASSCF), AVAS, COSX integrals, SCF dyn. polar.
   Lee Huntington         : MR-EOM, pCC
   Robert Izsak           : Overlap fitted RIJCOSX, COSX-SCS-MP3, EOM
   Riya Kayal             : Wick's Theorem for AUTO-CI, AUTO-CI UHF-CCSDT
   Emily Kempfer          : AUTO-CI, RHF CISDT and CCSDT
   Christian Kollmar      : KDIIS, OOCD, Brueckner-CCSD(T), CCSD density, CASPT2, CASPT2-K, improved NEVPT2
   Axel Koslowski         : Symmetry handling
   Simone Kossmann        : Meta GGA functionals, TD-DFT gradient, OOMP2, (MP2 Hessian; deprecated post 5.0)
   Lucas Lang             : DCDCAS
   Marvin Lechner         : AUTO-CI (C++ implementation), FIC-MRCC
   Spencer Leger          : CASSCF response
   Dagmar Lenk            : GEPOL surface, SMD, ORCA-2-JSON
   Dimitrios Liakos       : Extrapolation schemes; Compound Job, initial MDCI parallelization
   Dimitrios Manganas     : Further ROCIS development; embedding schemes. LFT, Crystal Embedding
   Dimitrios Pantazis     : SARC Basis sets
   Anastasios Papadopoulos: AUTO-CI, single reference methods and gradients
   Taras Petrenko         : pre 6.0 DFT Hessian and TD-DFT gradient, (ASA, deprecated), ECA, 1-Electron XAS/XES, NRVS
   Peter Pinski           : DLPNO-MP2, DLPNO-MP2 Gradient
   Christoph Reimann      : Effective Core Potentials
   Marius Retegan         : Local ZFS, SOC
   Christoph Riplinger    : Optimizer, TS searches, QM/MM, DLPNO-CCSD(T), (RO)-DLPNO pert. Triples
   Michael Roemelt        : Original ROCIS implementation
   Masaaki Saitow         : Open-shell DLPNO-CCSD energy and density
   Barbara Sandhoefer     : DKH picture change effects
   Kantharuban Sivalingam : CASSCF convergence/infrastructure, NEVPT2 and variants, FIC-MRCI
   Bernardo de Souza      : ESD, SOC TD-DFT
   Georgi Stoychev        : AutoAux, RI-MP2 NMR, DLPNO-MP2 response, X2C
   Van Anh Tran           : RI-MP2 g-tensors
   Willem Van den Heuvel  : Paramagnetic NMR
   Zikuan Wang            : NOTCH, Electric field optimization 
   Frank Wennmohs         : Technical directorship and infrastructure
   Hang Xu                : AUTO-CI-Response properties 


 We gratefully acknowledge several colleagues who have allowed us to
 interface, adapt or use parts of their codes:
   Stefan Grimme, W. Hujo, H. Kruse, P. Pracht,  : VdW corrections, initial TS optimization,
                  C. Bannwarth, S. Ehlert,         DFT functionals, gCP, sTDA/sTD-DF
                  L. Wittmann, M. Mueller
   Ed Valeev, F. Pavosevic, A. Kumar             : LibInt (2-el integral package), F12 methods
   Garnet Chan, S. Sharma, J. Yang, R. Olivares  : DMRG
   Ulf Ekstrom                                   : XCFun DFT Library
   Mihaly Kallay                                 : mrcc  (arbitrary order and MRCC methods)
   Frank Weinhold                                : gennbo (NPA and NBO analysis)
   Simon Mueller                                 : openCOSMO-RS
   Christopher J. Cramer and Donald G. Truhlar   : smd solvation model
   Lars Goerigk                                  : TD-DFT with DH, B97 family of functionals
   V. Asgeirsson, H. Jonsson                     : NEB implementation
   FAccTs GmbH                                   : IRC, NEB, NEB-TS, DLPNO-Multilevel, CI-OPT
                                                   MM, QMMM, 2- and 3-layer-ONIOM, Crystal-QMMM,
                                                   LR-CPCM, SF, NACMEs, symmetry and pop. for TD-DFT,
                                                   nearIR, NL-DFT gradient (VV10), updates on ESD,
                                                   ML-optimized integration grids, MBIS, APM,
                                                   GOAT, DOCKER, SOLVATOR, interface openCOSMO-RS
   S Lehtola, MJT Oliveira, MAL Marques          : LibXC Library
   Liviu Ungur et al                             : ANISO software


 Your calculation uses the libint2 library for the computation of 2-el integrals
 For citations please refer to: http://libint.valeyev.net

 Your ORCA version has been built with support for libXC version: 6.2.2
 For citations please refer to: https://libxc.gitlab.io

 This ORCA versions uses:
   CBLAS   interface :  Fast vector & matrix operations
   LAPACKE interface :  Fast linear algebra routines
   SCALAPACK package :  Parallel linear algebra routines
   Shared memory     :  Shared parallel matrices
   BLAS/LAPACK       :  OpenBLAS 0.3.27  USE64BITINT DYNAMIC_ARCH NO_AFFINITY Zen SINGLE_THREADED
        Core in use  :  Zen
   Copyright (c) 2011-2014, The OpenBLAS Project


NOTE: MaxCore=8000 MB was set to SCF,MP2,MDCI,CIPSI,MRCI and CIS
      => If you want to overwrite this, your respective input block should be placed after the MaxCore statement
Your calculation utilizes the atom-pairwise dispersion correction
based on EEQ partial charges (D4)


================================================================================

----- Orbital basis set information -----
Your calculation utilizes the basis: pcJ-0
   F. Jensen, Theor. Chem. Acc. 126, 371 (2010).

----- AuxJ basis set information -----
Your calculation utilizes the auxiliary basis: def2/J
   F. Weigend, Phys. Chem. Chem. Phys. 8, 1057 (2006).

================================================================================
                                        WARNINGS
                       Please study these warnings very carefully!
================================================================================

WARNING: Old DensityContainer found on disk!
         Will remove this file - 
         If you want to keep old densities, please start your calculation with a different basename. 


================================================================================
                                       INPUT FILE
================================================================================
NAME = inpJ
|  1> ! pbe0
|  2> ! D4
|  3> ! pcJ-0
|  4> ! def2/J RIJCOSX
|  5> ! DEFGRID2
|  6> ! scfconv7
|  7> ! smallprint printgap noloewdin
|  8> ! NOSOSCF
|  9> %MaxCore 8000
| 10> %output
| 11>        print[P_BondOrder_M] 1
| 12>        print[P_Mayer] 1
| 13>        print[P_basis] 2
| 14> end
| 15> %pal
| 16>     nprocs 4
| 17> end
| 18> ! CPCM(chloroform)
| 19> *xyz 0 1
| 20> C   -5.0420712100   0.1777732900  -0.4780462600
| 21> C   -6.4850292200  -0.2440945100  -0.6230889500
| 22> C   -7.3967425800   0.6716815800   0.2037095700
| 23> H   -6.6180309600  -1.2862664000  -0.3111779300
| 24> H   -6.7932571000  -0.1636708100  -1.6760722000
| 25> C   -4.7993454000   1.6027466000  -0.7946461600
| 26> C   -5.7347628900   2.5654246800  -0.0969187300
| 27> C   -7.2018716100   2.1292311700  -0.2170926200
| 28> H   -5.6004893100   3.5778010300  -0.4926190000
| 29> H   -5.4632836600   2.5987998600   0.9691939200
| 30> H   -7.5322108100   2.2345546200  -1.2594810200
| 31> H   -7.8383151400   2.7760397200   0.3978222200
| 32> O   -7.1599673300   0.4880747300   1.6095098100
| 33> H   -8.4436427100   0.3828614500   0.0485059200
| 34> C   -4.1001449000  -0.6848428100  -0.0274669700
| 35> C   -3.8610390100   2.0115590100  -1.6555813100
| 36> H   -3.2100307100   1.3030980400  -2.1609059900
| 37> H   -3.7309929800   3.0674777100  -1.8808853600
| 38> C   -2.7181585800  -0.3677233200   0.2490797500
| 39> H   -4.4338473700  -1.7027894800   0.1706291600
| 40> C   -1.7494480700  -1.2385407900   0.6038216100
| 41> H   -2.4485665800   0.6829240800   0.1686352500
| 42> C   -1.9140655000  -2.7304854700   0.7435318700
| 43> C   -0.8965516200  -3.4973689400  -0.1237940600
| 44> H   -2.9275794300  -3.0618804800   0.5016691700
| 45> H   -1.7317108100  -2.9935414500   1.7976621200
| 46> C    0.5455453600  -3.0174732400   0.0913220300
| 47> H   -1.1713832000  -3.3854989400  -1.1802421500
| 48> H   -0.9651818400  -4.5681528600   0.1040645100
| 49> C    0.6777477500  -1.5002758200  -0.0985632600
| 50> H    1.2065802100  -3.5635355200  -0.5898335600
| 51> H    0.8618327100  -3.2682938800   1.1150853800
| 52> C   -0.3376154700  -0.8167157800   0.8729570300
| 53> H   -0.0764466200  -1.2162700800   1.8700312500
| 54> C    0.0643566000   0.6551747300   0.8573355700
| 55> H   -6.2029021700   0.4267831700   1.7397632300
| 56> C    1.6075159900   0.6095207600   0.7384169000
| 57> H   -0.2792509900   1.1853332600   1.7517515800
| 58> H   -0.3698793300   1.1677949000  -0.0083175100
| 59> C    1.9995371500  -0.8628836100   0.4118736900
| 60> H    2.0994077800   0.9426291200   1.6576620800
| 61> H    1.9590525100   1.2763090000  -0.0576641200
| 62> H    2.2490988000  -1.3773225100   1.3543484400
| 63> C    3.2527582700  -0.9280728600  -0.4848965000
| 64> C    0.4035165600  -1.0990823900  -1.5539120400
| 65> H    0.6060154200  -0.0367469100  -1.7235387900
| 66> H   -0.6395337300  -1.2806644100  -1.8311648400
| 67> H    1.0389743400  -1.6714582400  -2.2386198800
| 68> H    3.0337241300  -0.3984482100  -1.4237445400
| 69> C    3.6941723400  -2.3612169400  -0.8181813300
| 70> C    4.3875200700  -0.2108697900   0.1968037100
| 71> C    5.0395695000   0.8440724300  -0.2898591900
| 72> H    4.6871588600  -0.6187898800   1.1676668600
| 73> H    4.7277687700   1.2526953600  -1.2546656600
| 74> C    6.1770146000   1.5460745100   0.3996048900
| 75> C    5.8338841100   3.0311918700   0.5895358600
| 76> C    7.5233406700   1.3139581900  -0.3403724600
| 77> H    6.2899111700   1.0914898900   1.3953741500
| 78> H    7.6029954800   0.2250424500  -0.4783380900
| 79> C    8.7169537000   1.7602156700   0.5087183800
| 80> C    7.5800962700   1.9677775400  -1.7231292400
| 81> H    5.6277758500   3.5156684600  -0.3713367600
| 82> H    6.6462722700   3.5778991000   1.0793143800
| 83> H    4.9368393100   3.1330594700   1.2093993300
| 84> H    8.6881237200   1.3065711100   1.5060520400
| 85> H    8.7360997200   2.8491964200   0.6312404100
| 86> H    9.6584892300   1.4679968500   0.0302567100
| 87> H    6.7417549200   1.6627037300  -2.3580041500
| 88> H    8.5067091300   1.6876987900  -2.2362622500
| 89> H    7.5663015000   3.0607895000  -1.6428177000
| 90> H    2.9716010500  -2.8706405500  -1.4608037400
| 91> H    3.8139652400  -2.9541909500   0.0968983400
| 92> H    4.6567880900  -2.3476920800  -1.3405469600
| 93> *
| 94> %eprnmr
| 95>  Nuclei = all C { ssfc }
| 96>  SpinSpinRThresh 8.0
| 97> end
| 98> 
| 99>                          ****END OF INPUT****
================================================================================

                       ****************************
                       * Single Point Calculation *
                       ****************************

---------------------------------
CARTESIAN COORDINATES (ANGSTROEM)
---------------------------------
  C     -5.042071    0.177773   -0.478046
  C     -6.485029   -0.244095   -0.623089
  C     -7.396743    0.671682    0.203710
  H     -6.618031   -1.286266   -0.311178
  H     -6.793257   -0.163671   -1.676072
  C     -4.799345    1.602747   -0.794646
  C     -5.734763    2.565425   -0.096919
  C     -7.201872    2.129231   -0.217093
  H     -5.600489    3.577801   -0.492619
  H     -5.463284    2.598800    0.969194
  H     -7.532211    2.234555   -1.259481
  H     -7.838315    2.776040    0.397822
  O     -7.159967    0.488075    1.609510
  H     -8.443643    0.382861    0.048506
  C     -4.100145   -0.684843   -0.027467
  C     -3.861039    2.011559   -1.655581
  H     -3.210031    1.303098   -2.160906
  H     -3.730993    3.067478   -1.880885
  C     -2.718159   -0.367723    0.249080
  H     -4.433847   -1.702789    0.170629
  C     -1.749448   -1.238541    0.603822
  H     -2.448567    0.682924    0.168635
  C     -1.914065   -2.730485    0.743532
  C     -0.896552   -3.497369   -0.123794
  H     -2.927579   -3.061880    0.501669
  H     -1.731711   -2.993541    1.797662
  C      0.545545   -3.017473    0.091322
  H     -1.171383   -3.385499   -1.180242
  H     -0.965182   -4.568153    0.104065
  C      0.677748   -1.500276   -0.098563
  H      1.206580   -3.563536   -0.589834
  H      0.861833   -3.268294    1.115085
  C     -0.337615   -0.816716    0.872957
  H     -0.076447   -1.216270    1.870031
  C      0.064357    0.655175    0.857336
  H     -6.202902    0.426783    1.739763
  C      1.607516    0.609521    0.738417
  H     -0.279251    1.185333    1.751752
  H     -0.369879    1.167795   -0.008318
  C      1.999537   -0.862884    0.411874
  H      2.099408    0.942629    1.657662
  H      1.959053    1.276309   -0.057664
  H      2.249099   -1.377323    1.354348
  C      3.252758   -0.928073   -0.484896
  C      0.403517   -1.099082   -1.553912
  H      0.606015   -0.036747   -1.723539
  H     -0.639534   -1.280664   -1.831165
  H      1.038974   -1.671458   -2.238620
  H      3.033724   -0.398448   -1.423745
  C      3.694172   -2.361217   -0.818181
  C      4.387520   -0.210870    0.196804
  C      5.039569    0.844072   -0.289859
  H      4.687159   -0.618790    1.167667
  H      4.727769    1.252695   -1.254666
  C      6.177015    1.546075    0.399605
  C      5.833884    3.031192    0.589536
  C      7.523341    1.313958   -0.340372
  H      6.289911    1.091490    1.395374
  H      7.602995    0.225042   -0.478338
  C      8.716954    1.760216    0.508718
  C      7.580096    1.967778   -1.723129
  H      5.627776    3.515668   -0.371337
  H      6.646272    3.577899    1.079314
  H      4.936839    3.133059    1.209399
  H      8.688124    1.306571    1.506052
  H      8.736100    2.849196    0.631240
  H      9.658489    1.467997    0.030257
  H      6.741755    1.662704   -2.358004
  H      8.506709    1.687699   -2.236262
  H      7.566301    3.060789   -1.642818
  H      2.971601   -2.870641   -1.460804
  H      3.813965   -2.954191    0.096898
  H      4.656788   -2.347692   -1.340547

----------------------------
CARTESIAN COORDINATES (A.U.)
----------------------------
  NO LB      ZA    FRAG     MASS         X           Y           Z
   0 C     6.0000    0    12.011   -9.528134    0.335943   -0.903377
   1 C     6.0000    0    12.011  -12.254929   -0.461272   -1.177467
   2 C     6.0000    0    12.011  -13.977818    1.269294    0.384955
   3 H     1.0000    0     1.008  -12.506266   -2.430691   -0.588041
   4 H     1.0000    0     1.008  -12.837395   -0.309293   -3.167317
   5 C     6.0000    0    12.011   -9.069448    3.028752   -1.501664
   6 C     6.0000    0    12.011  -10.837131    4.847950   -0.183150
   7 C     6.0000    0    12.011  -13.609565    4.023664   -0.410246
   8 H     1.0000    0     1.008  -10.583391    6.761064   -0.930915
   9 H     1.0000    0     1.008  -10.324110    4.911020    1.831511
  10 H     1.0000    0     1.008  -14.233816    4.222696   -2.380074
  11 H     1.0000    0     1.008  -14.812269    5.245955    0.751775
  12 O     8.0000    0    15.999  -13.530377    0.922328    3.041533
  13 H     1.0000    0     1.008  -15.956172    0.723503    0.091663
  14 C     6.0000    0    12.011   -7.748151   -1.294165   -0.051905
  15 C     6.0000    0    12.011   -7.296306    3.801296   -3.128595
  16 H     1.0000    0     1.008   -6.066079    2.462498   -4.083521
  17 H     1.0000    0     1.008   -7.050555    5.796693   -3.554358
  18 C     6.0000    0    12.011   -5.136575   -0.694896    0.470693
  19 H     1.0000    0     1.008   -8.378757   -3.217806    0.322442
  20 C     6.0000    0    12.011   -3.305978   -2.340503    1.141057
  21 H     1.0000    0     1.008   -4.627120    1.290539    0.318674
  22 C     6.0000    0    12.011   -3.617060   -5.159870    1.405072
  23 C     6.0000    0    12.011   -1.694237   -6.609069   -0.233937
  24 H     1.0000    0     1.008   -5.532323   -5.786116    0.948017
  25 H     1.0000    0     1.008   -3.272459   -5.656974    3.397089
  26 C     6.0000    0    12.011    1.030931   -5.702198    0.172574
  27 H     1.0000    0     1.008   -2.213593   -6.397666   -2.230334
  28 H     1.0000    0     1.008   -1.823929   -8.632558    0.196653
  29 C     6.0000    0    12.011    1.280758   -2.835110   -0.186258
  30 H     1.0000    0     1.008    2.280106   -6.734106   -1.114624
  31 H     1.0000    0     1.008    1.628628   -6.176180    2.107206
  32 C     6.0000    0    12.011   -0.638001   -1.543369    1.649650
  33 H     1.0000    0     1.008   -0.144463   -2.298417    3.533847
  34 C     6.0000    0    12.011    0.121616    1.238101    1.620129
  35 H     1.0000    0     1.008  -11.721786    0.806503    3.287676
  36 C     6.0000    0    12.011    3.037765    1.151827    1.395406
  37 H     1.0000    0     1.008   -0.527708    2.239955    3.310331
  38 H     1.0000    0     1.008   -0.698971    2.206813   -0.015718
  39 C     6.0000    0    12.011    3.778578   -1.630614    0.778328
  40 H     1.0000    0     1.008    3.967306    1.781311    3.132527
  41 H     1.0000    0     1.008    3.702073    2.411874   -0.108969
  42 H     1.0000    0     1.008    4.250181   -2.602762    2.559348
  43 C     6.0000    0    12.011    6.146822   -1.753804   -0.916322
  44 C     6.0000    0    12.011    0.762536   -2.076965   -2.936468
  45 H     1.0000    0     1.008    1.145203   -0.069442   -3.257016
  46 H     1.0000    0     1.008   -1.208544   -2.420105   -3.460400
  47 H     1.0000    0     1.008    1.963377   -3.158598   -4.230378
  48 H     1.0000    0     1.008    5.732908   -0.752958   -2.690487
  49 C     6.0000    0    12.011    6.980974   -4.462053   -1.546139
  50 C     6.0000    0    12.011    8.291211   -0.398486    0.371905
  51 C     6.0000    0    12.011    9.523406    1.595066   -0.547754
  52 H     1.0000    0     1.008    8.857447   -1.169343    2.206571
  53 H     1.0000    0     1.008    8.934188    2.367251   -2.370974
  54 C     6.0000    0    12.011   11.672866    2.921657    0.755144
  55 C     6.0000    0    12.011   11.024443    5.728122    1.114061
  56 C     6.0000    0    12.011   14.217053    2.483021   -0.643211
  57 H     1.0000    0     1.008   11.886210    2.062617    2.636875
  58 H     1.0000    0     1.008   14.367579    0.425269   -0.903928
  59 C     6.0000    0    12.011   16.472655    3.326326    0.961338
  60 C     6.0000    0    12.011   14.324306    3.718561   -3.256242
  61 H     1.0000    0     1.008   10.634955    6.643651   -0.701725
  62 H     1.0000    0     1.008   12.559634    6.761249    2.039609
  63 H     1.0000    0     1.008    9.329274    5.920624    2.285434
  64 H     1.0000    0     1.008   16.418174    2.469062    2.846026
  65 H     1.0000    0     1.008   16.508836    5.384201    1.192871
  66 H     1.0000    0     1.008   18.251900    2.774112    0.057177
  67 H     1.0000    0     1.008   12.740070    3.142055   -4.455982
  68 H     1.0000    0     1.008   16.075351    3.189289   -4.225923
  69 H     1.0000    0     1.008   14.298238    5.784054   -3.104476
  70 H     1.0000    0     1.008    5.615512   -5.424724   -2.760519
  71 H     1.0000    0     1.008    7.207350   -5.582612    0.183111
  72 H     1.0000    0     1.008    8.800054   -4.436495   -2.533267

--------------------------------
INTERNAL COORDINATES (ANGSTROEM)
--------------------------------
 C      0   0   0     0.000000000000     0.00000000     0.00000000
 C      1   0   0     1.510343550727     0.00000000     0.00000000
 C      2   1   0     1.534100026234   110.44377111     0.00000000
 H      2   1   3     1.095947168228   110.74598934   237.88219311
 H      2   1   3     1.100111868090   109.82676830   118.76495733
 C      1   2   3     1.479763578999   113.90003528   306.00208538
 C      6   1   2     1.512804856181   114.37378841    49.94499699
 C      3   2   1     1.529542410450   110.17324892    56.77449379
 H      7   6   1     1.095223252129   110.22908579   188.70421658
 H      7   6   1     1.100641202868   108.27188992    72.02179133
 H      8   3   2     1.098540209838   108.30681631    64.49076495
 H      8   3   2     1.096148679552   109.51127909   181.47492678
 O      3   2   1     1.437375493448   110.66834094   292.74100054
 H      3   2   1     1.097043810730   109.49521613   177.23977721
 C      1   2   3     1.354383035196   121.23064814   122.72196425
 C      6   1   2     1.337443756047   123.17188502   231.90392276
 H     16   6   1     1.086775866911   121.35295448   359.01300238
 H     16   6   1     1.087491694623   120.93412506   178.39963694
 C     15   1   2     1.444620728062   126.09925047   185.09636256
 H     15   1   2     1.089410316717   116.26924522     3.09605126
 C     19  15   1     1.350024038852   126.52293759   185.22071691
 H     19  15   1     1.087663147841   115.78562369     5.84936875
 C     21  19  15     1.507486909790   125.75950505     1.86885803
 C     23  21  19     1.541330276548   111.60324890   124.89449347
 H     23  21  19     1.093403267147   112.37591952     1.21233157
 H     23  21  19     1.101654331242   107.87400044   243.47800774
 C     24  23  21     1.534997887549   112.69274995    50.89368964
 H     24  23  21     1.097328511035   109.00717778   288.75802213
 H     24  23  21     1.096908308999   109.11721511   172.83726646
 C     27  24  23     1.534738383743   111.87917985   306.49076142
 H     27  24  23     1.095045215661   108.90813074   182.97350686
 H     27  24  23     1.100472661188   109.21609419    66.50402257
 C     21  19  15     1.497879001716   122.81249160   180.04473947
 H     33  21  19     1.105445524233   106.43697651   127.10861967
 C     33  21  19     1.525872618701   121.20600522     4.48594996
 H     13   3   2     0.967830733773   107.61449663    42.28221791
 C     35  33  21     1.548407839685   103.58510686   196.88077798
 H     35  33  21     1.095040748914   112.08564830    74.82483154
 H     35  33  21     1.095762536550   110.79105903   315.22554106
 C     30  27  24     1.553686560168   115.98855877   166.25843849
 H     37  35  33     1.094500074703   111.98856318   249.51484594
 H     37  35  33     1.096325440871   110.94048725   130.92119890
 H     40  30  27     1.102355230119   106.38159628   321.10556939
 C     40  30  27     1.542403834151   118.87419185    81.85984017
 C     30  27  24     1.534339918431   111.12766630   294.09740768
 H     45  30  27     1.094685203464   111.57166167   186.45949903
 H     45  30  27     1.094438236066   111.54560163    66.41462349
 H     45  30  27     1.095557177870   110.64232657   306.25886837
 H     44  40  30     1.099960847751   108.30684271    60.92787727
 C     44  40  30     1.536172878663   113.51844091   300.06373212
 C     44  40  30     1.505582864764   109.20850297   178.17961816
 C     51  44  40     1.332258355177   125.49935695   239.90226024
 H     51  44  40     1.094877828950   115.48566081    60.55771625
 H     52  51  44     1.093180643217   118.60597049     1.33716288
 C     52  51  44     1.503977723721   124.91060991   180.35146832
 C     55  52  51     1.536029257373   109.81785401   237.27467912
 C     55  52  51     1.553717590582   111.54780896   110.69841356
 H     55  52  51     1.100431384239   107.43344050   354.59905599
 H     57  55  52     1.100507561372   105.67891362   309.02260649
 C     57  55  52     1.531278243303   111.58105104   192.42423017
 C     57  55  52     1.530593758383   113.48919672    67.01473014
 H     56  55  52     1.095661614260   111.16803275   301.64920612
 H     56  55  52     1.094872739863   111.86030186   180.66500533
 H     56  55  52     1.095124240704   110.05413669    60.67230846
 H     60  57  55     1.096037856980   111.31150867    52.44710035
 H     60  57  55     1.096018837333   111.41741031   291.75461210
 H     60  57  55     1.095813196979   110.48252568   172.47355996
 H     61  57  55     1.094966848820   112.11110757   305.68902181
 H     61  57  55     1.095609868735   110.19874581   185.69081624
 H     61  57  55     1.096045338405   111.05854416    66.73931237
 H     50  44  40     1.092970834648   111.86532278    67.60379793
 H     50  44  40     1.096968239227   110.77493798   306.91863465
 H     50  44  40     1.095298066917   110.15059527   187.53085151

---------------------------
INTERNAL COORDINATES (A.U.)
---------------------------
 C      0   0   0     0.000000000000     0.00000000     0.00000000
 C      1   0   0     2.854135679008     0.00000000     0.00000000
 C      2   1   0     2.899028911624   110.44377111     0.00000000
 H      2   1   3     2.071040005197   110.74598934   237.88219311
 H      2   1   3     2.078910147366   109.82676830   118.76495733
 C      1   2   3     2.796347907260   113.90003528   306.00208538
 C      6   1   2     2.858786872248   114.37378841    49.94499699
 C      3   2   1     2.890416265969   110.17324892    56.77449379
 H      7   6   1     2.069672002026   110.22908579   188.70421658
 H      7   6   1     2.079910445131   108.27188992    72.02179133
 H      8   3   2     2.075940143694   108.30681631    64.49076495
 H      8   3   2     2.071420806413   109.51127909   181.47492678
 O      3   2   1     2.716246034226   110.66834094   292.74100054
 H      3   2   1     2.073112359193   109.49521613   177.23977721
 C      1   2   3     2.559413016949   121.23064814   122.72196425
 C      6   1   2     2.527402418453   123.17188502   231.90392276
 H     16   6   1     2.053708757416   121.35295448   359.01300238
 H     16   6   1     2.055061475752   120.93412506   178.39963694
 C     15   1   2     2.729937543424   126.09925047   185.09636256
 H     15   1   2     2.058687146063   116.26924522     3.09605126
 C     19  15   1     2.551175707640   126.52293759   185.22071691
 H     19  15   1     2.055385475378   115.78562369     5.84936875
 C     21  19  15     2.848737409975   125.75950505     1.86885803
 C     23  21  19     2.912692104596   111.60324890   124.89449347
 H     23  21  19     2.066232728843   112.37591952     1.21233157
 H     23  21  19     2.081824980295   107.87400044   243.47800774
 C     24  23  21     2.900725623616   112.69274995    50.89368964
 H     24  23  21     2.073650364799   109.00717778   288.75802213
 H     24  23  21     2.072856298030   109.11721511   172.83726646
 C     27  24  23     2.900235232492   111.87917985   306.49076142
 H     27  24  23     2.069335561860   108.90813074   182.97350686
 H     27  24  23     2.079591947514   109.21609419    66.50402257
 C     21  19  15     2.830581094995   122.81249160   180.04473947
 H     33  21  19     2.088989296770   106.43697651   127.10861967
 C     33  21  19     2.883481364594   121.20600522     4.48594996
 H     13   3   2     1.828935030822   107.61449663    42.28221791
 C     35  33  21     2.926066760620   103.58510686   196.88077798
 H     35  33  21     2.069327120931   112.08564830    74.82483154
 H     35  33  21     2.070691101891   110.79105903   315.22554106
 C     30  27  24     2.936042096671   115.98855877   166.25843849
 H     37  35  33     2.068305394745   111.98856318   249.51484594
 H     37  35  33     2.071754836896   110.94048725   130.92119890
 H     40  30  27     2.083149487221   106.38159628   321.10556939
 C     40  30  27     2.914720834455   118.87419185    81.85984017
 C     30  27  24     2.899482242178   111.12766630   294.09740768
 H     45  30  27     2.068655237403   111.57166167   186.45949903
 H     45  30  27     2.068188536657   111.54560163    66.41462349
 H     45  30  27     2.070303030227   110.64232657   306.25886837
 H     44  40  30     2.078624760285   108.30684271    60.92787727
 C     44  40  30     2.902946035031   113.51844091   300.06373212
 C     44  40  30     2.845139286328   109.20850297   178.17961816
 C     51  44  40     2.517603430912   125.49935695   239.90226024
 H     51  44  40     2.069019246818   115.48566081    60.55771625
 H     52  51  44     2.065812030584   118.60597049     1.33716288
 C     52  51  44     2.842106009351   124.91060991   180.35146832
 C     55  52  51     2.902674630126   109.81785401   237.27467912
 C     55  52  51     2.936100735657   111.54780896   110.69841356
 H     55  52  51     2.079513945385   107.43344050   354.59905599
 H     57  55  52     2.079657899303   105.67891362   309.02260649
 C     57  55  52     2.893696514675   111.58105104   192.42423017
 C     57  55  52     2.892403025634   113.48919672    67.01473014
 H     56  55  52     2.070500386402   111.16803275   301.64920612
 H     56  55  52     2.069009629838   111.86030186   180.66500533
 H     56  55  52     2.069484897549   110.05413669    60.67230846
 H     60  57  55     2.071211382102   111.31150867    52.44710035
 H     60  57  55     2.071175440177   111.41741031   291.75461210
 H     60  57  55     2.070786836227   110.48252568   172.47355996
 H     61  57  55     2.069187469993   112.11110757   305.68902181
 H     61  57  55     2.070402601531   110.19874581   185.69081624
 H     61  57  55     2.071225519947   111.05854416    66.73931237
 H     50  44  40     2.065415549849   111.86532278    67.60379793
 H     50  44  40     2.072969549749   110.77493798   306.91863465
 H     50  44  40     2.069813381486   110.15059527   187.53085151

---------------------
BASIS SET INFORMATION
---------------------
There are 3 groups of distinct atoms

 Group   1 Type C   : 7s4p contracted to 4s3p pattern {4111/211}
 Group   2 Type H   : 5s contracted to 3s pattern {311}
 Group   3 Type O   : 7s4p contracted to 4s3p pattern {4111/211}

Atom   0C    basis set group =>   1
Atom   1C    basis set group =>   1
Atom   2C    basis set group =>   1
Atom   3H    basis set group =>   2
Atom   4H    basis set group =>   2
Atom   5C    basis set group =>   1
Atom   6C    basis set group =>   1
Atom   7C    basis set group =>   1
Atom   8H    basis set group =>   2
Atom   9H    basis set group =>   2
Atom  10H    basis set group =>   2
Atom  11H    basis set group =>   2
Atom  12O    basis set group =>   3
Atom  13H    basis set group =>   2
Atom  14C    basis set group =>   1
Atom  15C    basis set group =>   1
Atom  16H    basis set group =>   2
Atom  17H    basis set group =>   2
Atom  18C    basis set group =>   1
Atom  19H    basis set group =>   2
Atom  20C    basis set group =>   1
Atom  21H    basis set group =>   2
Atom  22C    basis set group =>   1
Atom  23C    basis set group =>   1
Atom  24H    basis set group =>   2
Atom  25H    basis set group =>   2
Atom  26C    basis set group =>   1
Atom  27H    basis set group =>   2
Atom  28H    basis set group =>   2
Atom  29C    basis set group =>   1
Atom  30H    basis set group =>   2
Atom  31H    basis set group =>   2
Atom  32C    basis set group =>   1
Atom  33H    basis set group =>   2
Atom  34C    basis set group =>   1
Atom  35H    basis set group =>   2
Atom  36C    basis set group =>   1
Atom  37H    basis set group =>   2
Atom  38H    basis set group =>   2
Atom  39C    basis set group =>   1
Atom  40H    basis set group =>   2
Atom  41H    basis set group =>   2
Atom  42H    basis set group =>   2
Atom  43C    basis set group =>   1
Atom  44C    basis set group =>   1
Atom  45H    basis set group =>   2
Atom  46H    basis set group =>   2
Atom  47H    basis set group =>   2
Atom  48H    basis set group =>   2
Atom  49C    basis set group =>   1
Atom  50C    basis set group =>   1
Atom  51C    basis set group =>   1
Atom  52H    basis set group =>   2
Atom  53H    basis set group =>   2
Atom  54C    basis set group =>   1
Atom  55C    basis set group =>   1
Atom  56C    basis set group =>   1
Atom  57H    basis set group =>   2
Atom  58H    basis set group =>   2
Atom  59C    basis set group =>   1
Atom  60C    basis set group =>   1
Atom  61H    basis set group =>   2
Atom  62H    basis set group =>   2
Atom  63H    basis set group =>   2
Atom  64H    basis set group =>   2
Atom  65H    basis set group =>   2
Atom  66H    basis set group =>   2
Atom  67H    basis set group =>   2
Atom  68H    basis set group =>   2
Atom  69H    basis set group =>   2
Atom  70H    basis set group =>   2
Atom  71H    basis set group =>   2
Atom  72H    basis set group =>   2

-------------------------
BASIS SET IN INPUT FORMAT
-------------------------

 # Basis set for element : H 
 NewGTO H 
 S 3 
   1    1357.7500000000      0.0012928364
   2      54.3100000000      0.0588280685
   3       4.3448000000      0.9761499708
 S 1 
   1       0.6604910000      1.0000000000
 S 1 
   1       0.1366870000      1.0000000000
  end;

 # Basis set for element : C 
 NewGTO C 
 S 4 
   1  139534.0000000000      0.0001655246
   2    5581.3600000000      0.0074486101
   3     446.5090000000      0.1285821065
   4      67.4620000000      0.9218029311
 S 1 
   1      15.0674000000      1.0000000000
 S 1 
   1       3.9387600000      1.0000000000
 S 1 
   1       0.2999150000      1.0000000000
 P 2 
   1      28.3900000000      0.0816325586
   2       4.3676900000      0.9660360576
 P 1 
   1       0.8698170000      1.0000000000
 P 1 
   1       0.1889340000      1.0000000000
  end;

 # Basis set for element : O 
 NewGTO O 
 S 4 
   1  253789.0000000000      0.0001641076
   2   10151.6000000000      0.0074010921
   3     812.1250000000      0.1277711901
   4     122.6930000000      0.9223372164
 S 1 
   1      27.5608000000      1.0000000000
 S 1 
   1       7.3172600000      1.0000000000
 S 1 
   1       0.5792400000      1.0000000000
 P 2 
   1      53.4157000000      0.0793786106
   2       8.2177900000      0.9670506337
 P 1 
   1       1.6754400000      1.0000000000
 P 1 
   1       0.3506720000      1.0000000000
  end;

---------------------------------
AUXILIARY/J BASIS SET INFORMATION
---------------------------------
There are 3 groups of distinct atoms

 Group   1 Type C   : 12s5p4d2f1g contracted to 6s4p3d1f1g pattern {711111/2111/211/2/1}
 Group   2 Type H   : 5s2p1d contracted to 3s1p1d pattern {311/2/1}
 Group   3 Type O   : 12s5p4d2f1g contracted to 6s4p3d1f1g pattern {711111/2111/211/2/1}

Atom   0C    basis set group =>   1
Atom   1C    basis set group =>   1
Atom   2C    basis set group =>   1
Atom   3H    basis set group =>   2
Atom   4H    basis set group =>   2
Atom   5C    basis set group =>   1
Atom   6C    basis set group =>   1
Atom   7C    basis set group =>   1
Atom   8H    basis set group =>   2
Atom   9H    basis set group =>   2
Atom  10H    basis set group =>   2
Atom  11H    basis set group =>   2
Atom  12O    basis set group =>   3
Atom  13H    basis set group =>   2
Atom  14C    basis set group =>   1
Atom  15C    basis set group =>   1
Atom  16H    basis set group =>   2
Atom  17H    basis set group =>   2
Atom  18C    basis set group =>   1
Atom  19H    basis set group =>   2
Atom  20C    basis set group =>   1
Atom  21H    basis set group =>   2
Atom  22C    basis set group =>   1
Atom  23C    basis set group =>   1
Atom  24H    basis set group =>   2
Atom  25H    basis set group =>   2
Atom  26C    basis set group =>   1
Atom  27H    basis set group =>   2
Atom  28H    basis set group =>   2
Atom  29C    basis set group =>   1
Atom  30H    basis set group =>   2
Atom  31H    basis set group =>   2
Atom  32C    basis set group =>   1
Atom  33H    basis set group =>   2
Atom  34C    basis set group =>   1
Atom  35H    basis set group =>   2
Atom  36C    basis set group =>   1
Atom  37H    basis set group =>   2
Atom  38H    basis set group =>   2
Atom  39C    basis set group =>   1
Atom  40H    basis set group =>   2
Atom  41H    basis set group =>   2
Atom  42H    basis set group =>   2
Atom  43C    basis set group =>   1
Atom  44C    basis set group =>   1
Atom  45H    basis set group =>   2
Atom  46H    basis set group =>   2
Atom  47H    basis set group =>   2
Atom  48H    basis set group =>   2
Atom  49C    basis set group =>   1
Atom  50C    basis set group =>   1
Atom  51C    basis set group =>   1
Atom  52H    basis set group =>   2
Atom  53H    basis set group =>   2
Atom  54C    basis set group =>   1
Atom  55C    basis set group =>   1
Atom  56C    basis set group =>   1
Atom  57H    basis set group =>   2
Atom  58H    basis set group =>   2
Atom  59C    basis set group =>   1
Atom  60C    basis set group =>   1
Atom  61H    basis set group =>   2
Atom  62H    basis set group =>   2
Atom  63H    basis set group =>   2
Atom  64H    basis set group =>   2
Atom  65H    basis set group =>   2
Atom  66H    basis set group =>   2
Atom  67H    basis set group =>   2
Atom  68H    basis set group =>   2
Atom  69H    basis set group =>   2
Atom  70H    basis set group =>   2
Atom  71H    basis set group =>   2
Atom  72H    basis set group =>   2

-------------------------------------
AUXILIARY/J BASIS SET IN INPUT FORMAT
-------------------------------------

 # Auxiliary/J basis set for element : H 
 NewAuxJGTO H 
 S 3 
   1      15.6752927000      0.1007184237
   2       3.6063578000      0.3404257499
   3       1.2080016000      0.6491996172
 S 1 
   1       0.4726794000      1.0000000000
 S 1 
   1       0.2018100000      1.0000000000
 P 2 
   1       2.0281365000      0.5596620919
   2       0.5358730000      0.5596620919
 D 1 
   1       2.2165124000      1.0000000000
  end;

 # Auxiliary/J basis set for element : C 
 NewAuxJGTO C 
 S 7 
   1    1861.0916331000      0.0134602335
   2     642.9939764000      0.0299160374
   3     235.1105725000      0.1008649584
   4      90.7028894000      0.2370970548
   5      36.7794552000      0.3924037254
   6      15.6046273000      0.3195862154
   7       6.8907294000      0.0530104441
 S 1 
   1       3.1478850000     -1.0000000000
 S 1 
   1       1.4777287000      1.0000000000
 S 1 
   1       0.7076466000      1.0000000000
 S 1 
   1       0.3430122000      1.0000000000
 S 1 
   1       0.1669453000      1.0000000000
 P 2 
   1      13.5472892000     -0.6769313712
   2       5.4669419000     -0.3779500978
 P 1 
   1       2.1751721000      1.0000000000
 P 1 
   1       0.8582194000      1.0000000000
 P 1 
   1       0.3376720000      1.0000000000
 D 2 
   1       5.9287253000     -0.3533329857
   2       1.9809209000     -0.7456525731
 D 1 
   1       0.8055417000     -1.0000000000
 D 1 
   1       0.3531244000     -1.0000000000
 F 2 
   1       1.6755626000      0.6311076882
   2       0.5997536000      0.4968166032
 G 1 
   1       1.0024600000     -1.0000000000
  end;

 # Auxiliary/J basis set for element : O 
 NewAuxJGTO O 
 S 7 
   1    2876.8216605000      0.0168151159
   2    1004.7443032000      0.0340137548
   3     369.7579954000      0.1194951309
   4     142.9442404000      0.2664627624
   5      57.8366425000      0.4202764046
   6      24.3864983000      0.2765077335
   7      10.6622662000      0.0057008815
 S 1 
   1       4.8070437000     -1.0000000000
 S 1 
   1       2.2210770000      1.0000000000
 S 1 
   1       1.0447795000      1.0000000000
 S 1 
   1       0.4968425000      1.0000000000
 S 1 
   1       0.2371384000      1.0000000000
 P 2 
   1      64.2613382000     -0.2731534179
   2      16.3006076000     -0.8168011598
 P 1 
   1       4.3550542000      1.0000000000
 P 1 
   1       1.2019554000      1.0000000000
 P 1 
   1       0.3354196000      1.0000000000
 D 2 
   1       9.2146611000     -0.4661230638
   2       2.8435251000     -0.6600908911
 D 1 
   1       0.9955759000     -1.0000000000
 D 1 
   1       0.3649441000     -1.0000000000
 F 2 
   1       2.6420115000      0.5931563945
   2       0.7345613000      0.5931563945
 G 1 
   1       1.3931000000     -1.0000000000
  end;


Checking for AutoStart:
The File: inpJ.gbw exists
Trying to determine its content:
     ... Fine, the file contains calculation information
     ... Fine, the calculation information was read
     ... Fine, the file contains a basis set
     ... Fine, the basis set was read
     ... Fine, the file contains a geometry
     ... Fine, the geometry was read
     ... Fine, the file contains a set of orbitals
     ... Fine, the orbitals can be read
     => possible old guess file was deleted
     => GBW file was renamed to GES file
     => GES file is set as startup file
     => Guess is set to MORead
     ... now leaving AutoStart



           ************************************************************
           *        Program running with 4 parallel MPI-processes     *
           *              working on a common directory               *
           ************************************************************
------------------------------------------------------------------------------
                             ORCA STARTUP CALCULATIONS
                           -- RI-GTO INTEGRALS CHOSEN --
------------------------------------------------------------------------------
------------------------------------------------------------------------------
                   ___                                                        
                  /   \      - P O W E R E D   B Y -                         
                 /     \                                                     
                 |  |  |   _    _      __       _____    __    __             
                 |  |  |  | |  | |    /  \     |  _  \  |  |  /  |          
                  \  \/   | |  | |   /    \    | | | |  |  | /  /          
                 / \  \   | |__| |  /  /\  \   | |_| |  |  |/  /          
                |  |  |   |  __  | /  /__\  \  |    /   |      \           
                |  |  |   | |  | | |   __   |  |    \   |  |\   \          
                \     /   | |  | | |  |  |  |  | |\  \  |  | \   \       
                 \___/    |_|  |_| |__|  |__|  |_| \__\ |__|  \__/        
                                                                              
                      - O R C A' S   B I G   F R I E N D -                    
                                      &                                       
                       - I N T E G R A L  F E E D E R -                       
                                                                              
 v1 FN, 2020, v2 2021, v3 2022-2024                                           
------------------------------------------------------------------------------


----------------------
SHARK INTEGRAL PACKAGE
----------------------

Number of atoms                             ...     73
Number of basis functions                   ...    509
Number of shells                            ...    335
Maximum angular momentum                    ...      1
Integral batch strategy                     ... SHARK/LIBINT Hybrid
RI-J (if used) integral strategy            ... SPLIT-RIJ (Revised 2003 algorithm where possible)
Printlevel                                  ...      1
Contraction scheme used                     ... SEGMENTED contraction
Prescreening option                         ... SCHWARTZ
   Thresh                                   ... 3.000e-11
   Tcut                                     ... 1.000e-12
   Tpresel                                  ... 1.000e-12 
Coulomb Range Separation                    ... NOT USED
Exchange Range Separation                   ... NOT USED
Multipole approximations                    ... NOT USED
Finite Nucleus Model                        ... NOT USED
CABS basis                                  ... NOT available
Auxiliary Coulomb fitting basis             ... AVAILABLE
   # of basis functions in Aux-J            ...   1905
   # of shells in Aux-J                     ...    655
   Maximum angular momentum in Aux-J        ...      4
Auxiliary J/K fitting basis                 ... NOT available
Auxiliary Correlation fitting basis         ... NOT available
Auxiliary 'external' fitting basis          ... NOT available

Checking pre-screening integrals            ... done (  0.0 sec) Dimension = 335
Check shell pair data                       ... done (  0.0 sec)
Shell pair information
Shell pair cut-off parameter TPreSel        ...   1.0e-12
Total number of shell pairs                 ...     56280
Shell pairs after pre-screening             ...     21556
Total number of primitive shell pairs       ...    145865
Primitive shell pairs kept                  ...     37077
          la=0 lb=0:  10824 shell pairs
          la=1 lb=0:   8883 shell pairs
          la=1 lb=1:   1849 shell pairs

Calculating one electron integrals          ... done (  0.0 sec)
Calculating RI/J V-Matrix + Cholesky decomp.... done (  0.2 sec)
Calculating Nuclear repulsion               ... done (  0.0 sec) ENN=   2767.552559492728 Eh

Diagonalization of the overlap matrix:
Smallest eigenvalue                        ... 7.559e-03
Time for diagonalization                   ...    0.025 sec
Threshold for overlap eigenvalues          ... 1.000e-07
Number of eigenvalues below threshold      ... 0
Time for construction of square roots      ...    0.013 sec
Total time needed                          ...    0.040 sec

-------------------
DFT GRID GENERATION
-------------------

General Integration Accuracy     IntAcc      ... 4.388
Radial Grid Type                 RadialGrid  ... OptM3 with GC (2021)
Angular Grid (max. ang.)         AngularGrid ... 4 (Lebedev-302)
Angular grid pruning method      GridPruning ... 4 (adaptive)
Weight generation scheme         WeightScheme... mBecke (2022)
Basis function cutoff            BFCut       ... 1.0000e-11
Integration weight cutoff        WCut        ... 1.0000e-14
Partially contracted basis set               ... off
Rotationally invariant grid construction     ... off
Angular grids for H and He will be reduced by one unit

Total number of grid points                  ...   310040
Total number of batches                      ...     4883
Average number of points per batch           ...       63
Average number of grid points per atom       ...     4247

--------------------
COSX GRID GENERATION
--------------------

GRIDX 1
-------
General Integration Accuracy     IntAcc      ... 3.816
Radial Grid Type                 RadialGrid  ... OptM3 with GC (2021)
Angular Grid (max. ang.)         AngularGrid ... 1 (Lebedev-50)
Angular grid pruning method      GridPruning ... 4 (adaptive)
Weight generation scheme         WeightScheme... mBecke (2022)
Basis function cutoff            BFCut       ... 1.0000e-11
Integration weight cutoff        WCut        ... 1.0000e-14
Partially contracted basis set               ... on
Rotationally invariant grid construction     ... off
Angular grids for H and He will be reduced by one unit

Total number of grid points                  ...    39426
Total number of batches                      ...      350
Average number of points per batch           ...      112
Average number of grid points per atom       ...      540
UseSFitting                                  ... on

GRIDX 2
-------
General Integration Accuracy     IntAcc      ... 4.020
Radial Grid Type                 RadialGrid  ... OptM3 with GC (2021)
Angular Grid (max. ang.)         AngularGrid ... 2 (Lebedev-110)
Angular grid pruning method      GridPruning ... 4 (adaptive)
Weight generation scheme         WeightScheme... mBecke (2022)
Basis function cutoff            BFCut       ... 1.0000e-11
Integration weight cutoff        WCut        ... 1.0000e-14
Partially contracted basis set               ... on
Rotationally invariant grid construction     ... off
Angular grids for H and He will be reduced by one unit

Total number of grid points                  ...    81452
Total number of batches                      ...      679
Average number of points per batch           ...      119
Average number of grid points per atom       ...     1116
UseSFitting                                  ... on

GRIDX 3
-------
General Integration Accuracy     IntAcc      ... 4.338
Radial Grid Type                 RadialGrid  ... OptM3 with GC (2021)
Angular Grid (max. ang.)         AngularGrid ... 3 (Lebedev-194)
Angular grid pruning method      GridPruning ... 4 (adaptive)
Weight generation scheme         WeightScheme... mBecke (2022)
Basis function cutoff            BFCut       ... 1.0000e-11
Integration weight cutoff        WCut        ... 1.0000e-14
Partially contracted basis set               ... on
Rotationally invariant grid construction     ... off
Angular grids for H and He will be reduced by one unit

Total number of grid points                  ...   176357
Total number of batches                      ...     1418
Average number of points per batch           ...      124
Average number of grid points per atom       ...     2416
UseSFitting                                  ... on
Initializing property integral containers    ... done (  0.0 sec)

SHARK setup successfully completed in   3.5 seconds

Maximum memory used throughout the entire STARTUP-calculation: 85.4 MB


           ************************************************************
           *        Program running with 4 parallel MPI-processes     *
           *              working on a common directory               *
           ************************************************************
-------------------------------------------------------------------------------
                                 ORCA GUESS
                   Start orbitals & Density for SCF / CASSCF
-------------------------------------------------------------------------------

------------
SCF SETTINGS
------------
Hamiltonian:
 Density Functional     Method          .... DFT(GTOs)
 Exchange Functional    Exchange        .... PBE
   PBE kappa parameter   XKappa         ....  0.804000
   PBE mue parameter    XMuePBE         ....  0.219520
 Correlation Functional Correlation     .... PBE
   PBE beta parameter  CBetaPBE         ....  0.066725
 LDA part of GGA corr.  LDAOpt          .... PW91-LDA
 Gradients option       PostSCFGGA      .... off
 Hybrid DFT is turned on
   Fraction HF Exchange ScalHFX         ....  0.250000
   Scaling of DF-GGA-X  ScalDFX         ....  0.750000
   Scaling of DF-GGA-C  ScalDFC         ....  1.000000
   Scaling of DF-LDA-C  ScalLDAC        ....  1.000000
   Perturbative correction              ....  0.000000
   NL short-range parameter             ....  6.900000
 RI-approximation to the Coulomb term is turned on
   Number of AuxJ basis functions       .... 1905
   RIJ-COSX (HFX calculated with COS-X)).... on


General Settings:
 Integral files         IntName         .... inpJ
 Hartree-Fock type      HFTyp           .... RHF
 Total Charge           Charge          ....    0
 Multiplicity           Mult            ....    1
 Number of Electrons    NEL             ....  220
 Basis Dimension        Dim             ....  509
 Nuclear Repulsion      ENuc            ....   2767.5525594927 Eh

Convergence Acceleration:
 AO-DIIS                CNVDIIS         .... on
   Start iteration      DIISMaxIt       ....    12
   Startup error        DIISStart       ....  0.200000
   # of expansion vecs  DIISMaxEq       ....     5
   Bias factor          DIISBfac        ....   1.050
   Max. coefficient     DIISMaxC        ....  10.000
 MO-DIIS                CNVKDIIS        .... off
 Trust-Rad. Augm. Hess. CNVTRAH         .... auto
   Auto Start mean grad. ratio tolernc. ....  1.125000
   Auto Start start iteration           ....     1
   Auto Start num. interpolation iter.  ....    10
   Max. Number of Micro iterations      ....    24
   Max. Number of Macro iterations      .... Maxiter - #DIIS iter
   Number of Davidson start vectors     ....     2
   Converg. threshold    (grad. norm)   ....   1.000e-04
   Grad. Scal. Fac. for Micro threshold ....   0.100
   Minimum threshold for Micro iter.    ....   1.000e-02
   NR start threshold (gradient norm)   ....   1.000e-04
   Initial trust radius                 ....   0.400
   Minimum AH scaling param. (alpha)    ....   1.000
   Maximum AH scaling param. (alpha)    .... 1000.000
   Quad. conv. algorithm                .... NR
   White noise on init. David. guess    .... on
   Maximum white noise                  ....   0.010
   Pseudo random numbers                .... off
   Inactive MOs                         .... canonical
   Orbital update algorithm             .... Taylor
   Preconditioner                       .... Diag
   Full preconditioner red. dimension   ....   250
 SOSCF                  CNVSOSCF        .... off
 Level Shifting         CNVShift        .... on
   Level shift para.    LevelShift      ....    0.2500
   Turn off err/grad.   ShiftErr        ....    0.0010
 Zerner damping         CNVZerner       .... off
 Static damping         CNVDamp         .... on
   Fraction old density DampFac         ....    0.7000
   Max. Damping (<1)    DampMax         ....    0.9800
   Min. Damping (>=0)   DampMin         ....    0.0000
   Turn off err/grad.   DampErr         ....    0.1000

SCF Procedure:
 Maximum # iterations   MaxIter         ....   125
 SCF integral mode      SCFMode         .... Direct
   Integral package                     .... SHARK and LIBINT hybrid scheme
 Reset frequency        DirectResetFreq ....    20
 Integral Threshold     Thresh          ....  3.000e-11 Eh
 Primitive CutOff       TCut            ....  1.000e-12 Eh

Convergence Tolerance:
 Convergence Check Mode ConvCheckMode   .... Total+1el-Energy
 Convergence forced     ConvForced      .... 0
 Energy Change          TolE            ....  1.000e-07 Eh
 1-El. energy change                    ....  1.000e-04 Eh
 DIIS Error             TolErr          ....  1.000e-07

---------------------
INITIAL GUESS: MOREAD
---------------------
Guess MOs are being read from file: inpJ.ges
Input Geometry matches current geometry (good)
Input basis set matches current basis set (good)
Occupation numbers will be reassigned to an Aufbau configuration
MOs were renormalized
MOs were reorthogonalized (Cholesky)
                      ------------------
                      INITIAL GUESS DONE (   0.1 sec)
                      ------------------
             **** ENERGY FILE WAS UPDATED (inpJ.en.tmp) ****
Finished Guess after   0.2 sec
Maximum memory used throughout the entire GUESS-calculation: 36.4 MB


           ************************************************************
           *        Program running with 4 parallel MPI-processes     *
           *              working on a common directory               *
           ************************************************************

-------------------------------------------------------------------------------------------
                                      ORCA LEAN-SCF
                              memory conserving SCF solver
-------------------------------------------------------------------------------------------

--------------------
CPCM SOLVATION MODEL
--------------------
CPCM parameters:
  Epsilon                                         ...       4.8030
  Refrac                                          ...       1.4459
  Rsolv                                           ...       1.3000
  Surface type                                    ... GAUSSIAN VDW
  Discretization scheme                           ... Constant charge density
    Threshold for H atoms                         ...       5.0000 (charges/Ang^2)
    Threshold for non-H atoms                     ...       5.0000 (charges/Ang^2)
  Epsilon function type                           ...         CPCM
Solvent:                                          ... CHLOROFORM
Radii:
  Scheme                                          ... Element-dependent radii
  Radius for C  used is    3.8550 Bohr (=   2.0400 Ang.)
  Radius for H  used is    2.4944 Bohr (=   1.3200 Ang.)
  Radius for O  used is    3.4469 Bohr (=   1.8240 Ang.)
Calculating surface                               ...        done! (  0.0s)
Cavity surface points                             ...         5405
Cavity Volume                                     ...    3612.9457
Cavity Surface-area                               ...    1803.3582
Calculating surface distance matrix               ...        done! (  0.2s)
Performing Cholesky decomposition & store         ...        done! (  1.0s)
Overall time for CPCM initialization              ...                 1.2s

----------------------------------------D-I-I-S--------------------------------------------
Iteration    Energy (Eh)           Delta-E    RMSDP     MaxDP     DIISErr   Damp  Time(sec)
-------------------------------------------------------------------------------------------
               ***  Starting incremental Fock matrix formation  ***
    1    -1165.5119336551360902     0.00e+00  4.15e-08  5.62e-06  6.54e-06  0.700   6.2

  HOMO= 109 E= -6.013 eV LUMO=  5.937 eV gap=  11.951 eV
    2    -1165.5119336895627384    -3.44e-08  2.80e-08  3.36e-06  3.27e-06  0.700   2.0
                 **** Energy Check signals convergence ****

  HOMO= 109 E= -6.013 eV LUMO=  5.937 eV gap=  11.951 eV

               *****************************************************
               *                     SUCCESS                       *
               *           SCF CONVERGED AFTER   2 CYCLES          *
               *****************************************************

Recomputing exchange energy using gridx3       ... done (    8.136 sec)
Old exchange energy                            :    -42.067387104 Eh
New exchange energy                            :    -42.067346906 Eh
Exchange energy change after final integration :      0.000040198 Eh
Total energy after final integration           :  -1165.511893491 Eh
             **** ENERGY FILE WAS UPDATED (inpJ.en.tmp) ****

----------------
TOTAL SCF ENERGY
----------------

Total Energy       :      -1165.51189349142987 Eh          -31715.19099 eV

Components:
Nuclear Repulsion  :       2767.55255949272805 Eh           75308.93378 eV
Electronic Energy  :      -3933.05084302226669 Eh         -107023.75442 eV
One Electron Energy:      -7076.87120837447492 Eh         -192571.45572 eV
Two Electron Energy:       3143.82036535220823 Eh           85547.70130 eV
CPCM Dielectric    :         -0.01365016002395 Eh              -0.37144 eV

Virial components:
Potential Energy   :      -2322.40892983377626 Eh          -63195.95980 eV
Kinetic Energy     :       1156.89703634234638 Eh           31480.76881 eV
Virial Ratio       :          2.00744652019882

DFT components:
N(Alpha)           :      109.999996185014 electrons
N(Beta)            :      109.999996185014 electrons
N(Total)           :      219.999992370028 electrons
E(X)               :     -125.744715452209 Eh       
E(C)               :       -7.326021166378 Eh       
E(XC)              :     -133.070736618587 Eh       

CPCM Solvation Model Properties:
Surface-charge          :         -0.03367563357867
Corrected charge        :         -0.00000000000000
Outlying charge corr.   :          0.00003950686857 Eh               0.00108 eV
Free-energy (cav+disp)  :  This term is not implemented in the current solvation scheme

---------------
SCF CONVERGENCE
---------------

  Last Energy change         ...    3.4427e-08  Tolerance :   1.0000e-07
  Last MAX-Density change    ...    3.3591e-06  Tolerance :   1.0000e-05
  Last RMS-Density change    ...    2.8047e-08  Tolerance :   1.0000e-06
  Last DIIS Error            ...    3.2741e-06  Tolerance :   1.0000e-07


----------------
ORBITAL ENERGIES
----------------

  NO   OCC          E(Eh)            E(eV) 
   0   2.0000     -19.212478      -522.7981 
   1   2.0000     -10.300516      -280.2913 
   2   2.0000     -10.270545      -279.4758 
   3   2.0000     -10.268428      -279.4181 
   4   2.0000     -10.263895      -279.2948 
   5   2.0000     -10.257630      -279.1243 
   6   2.0000     -10.257156      -279.1114 
   7   2.0000     -10.250606      -278.9332 
   8   2.0000     -10.249777      -278.9106 
   9   2.0000     -10.248757      -278.8829 
  10   2.0000     -10.248212      -278.8680 
  11   2.0000     -10.247703      -278.8542 
  12   2.0000     -10.246369      -278.8179 
  13   2.0000     -10.245438      -278.7925 
  14   2.0000     -10.245332      -278.7897 
  15   2.0000     -10.244680      -278.7719 
  16   2.0000     -10.243935      -278.7516 
  17   2.0000     -10.243110      -278.7292 
  18   2.0000     -10.241822      -278.6941 
  19   2.0000     -10.241532      -278.6863 
  20   2.0000     -10.240365      -278.6545 
  21   2.0000     -10.234641      -278.4987 
  22   2.0000     -10.234432      -278.4931 
  23   2.0000     -10.233126      -278.4575 
  24   2.0000     -10.226491      -278.2770 
  25   2.0000     -10.225945      -278.2621 
  26   2.0000     -10.224969      -278.2355 
  27   2.0000     -10.224179      -278.2140 
  28   2.0000     -10.221042      -278.1287 
  29   2.0000      -1.043237       -28.3879 
  30   2.0000      -0.901706       -24.5367 
  31   2.0000      -0.882307       -24.0088 
  32   2.0000      -0.859933       -23.4000 
  33   2.0000      -0.846382       -23.0312 
  34   2.0000      -0.823164       -22.3994 
  35   2.0000      -0.814595       -22.1663 
  36   2.0000      -0.796176       -21.6651 
  37   2.0000      -0.795213       -21.6388 
  38   2.0000      -0.778077       -21.1726 
  39   2.0000      -0.758480       -20.6393 
  40   2.0000      -0.741160       -20.1680 
  41   2.0000      -0.734571       -19.9887 
  42   2.0000      -0.715286       -19.4639 
  43   2.0000      -0.703540       -19.1443 
  44   2.0000      -0.703027       -19.1303 
  45   2.0000      -0.695777       -18.9331 
  46   2.0000      -0.670878       -18.2555 
  47   2.0000      -0.663012       -18.0415 
  48   2.0000      -0.630664       -17.1612 
  49   2.0000      -0.622225       -16.9316 
  50   2.0000      -0.612278       -16.6609 
  51   2.0000      -0.604821       -16.4580 
  52   2.0000      -0.596700       -16.2370 
  53   2.0000      -0.577611       -15.7176 
  54   2.0000      -0.563638       -15.3374 
  55   2.0000      -0.550708       -14.9855 
  56   2.0000      -0.540455       -14.7065 
  57   2.0000      -0.529561       -14.4101 
  58   2.0000      -0.515409       -14.0250 
  59   2.0000      -0.509763       -13.8714 
  60   2.0000      -0.500504       -13.6194 
  61   2.0000      -0.492169       -13.3926 
  62   2.0000      -0.484938       -13.1958 
  63   2.0000      -0.481124       -13.0920 
  64   2.0000      -0.472777       -12.8649 
  65   2.0000      -0.469614       -12.7789 
  66   2.0000      -0.464924       -12.6512 
  67   2.0000      -0.459325       -12.4989 
  68   2.0000      -0.458426       -12.4744 
  69   2.0000      -0.455850       -12.4043 
  70   2.0000      -0.450481       -12.2582 
  71   2.0000      -0.440812       -11.9951 
  72   2.0000      -0.434755       -11.8303 
  73   2.0000      -0.432129       -11.7588 
  74   2.0000      -0.425759       -11.5855 
  75   2.0000      -0.422995       -11.5103 
  76   2.0000      -0.414749       -11.2859 
  77   2.0000      -0.413524       -11.2526 
  78   2.0000      -0.412688       -11.2298 
  79   2.0000      -0.404120       -10.9967 
  80   2.0000      -0.401510       -10.9256 
  81   2.0000      -0.398713       -10.8495 
  82   2.0000      -0.398147       -10.8341 
  83   2.0000      -0.392373       -10.6770 
  84   2.0000      -0.383708       -10.4412 
  85   2.0000      -0.382333       -10.4038 
  86   2.0000      -0.375912       -10.2291 
  87   2.0000      -0.375371       -10.2144 
  88   2.0000      -0.372920       -10.1477 
  89   2.0000      -0.364604        -9.9214 
  90   2.0000      -0.360673        -9.8144 
  91   2.0000      -0.359526        -9.7832 
  92   2.0000      -0.352810        -9.6004 
  93   2.0000      -0.345725        -9.4077 
  94   2.0000      -0.341956        -9.3051 
  95   2.0000      -0.340333        -9.2609 
  96   2.0000      -0.334915        -9.1135 
  97   2.0000      -0.332168        -9.0387 
  98   2.0000      -0.330752        -9.0002 
  99   2.0000      -0.329046        -8.9538 
 100   2.0000      -0.328459        -8.9378 
 101   2.0000      -0.325605        -8.8602 
 102   2.0000      -0.319289        -8.6883 
 103   2.0000      -0.317097        -8.6287 
 104   2.0000      -0.311053        -8.4642 
 105   2.0000      -0.300602        -8.1798 
 106   2.0000      -0.276673        -7.5287 
 107   2.0000      -0.275215        -7.4890 
 108   2.0000      -0.258394        -7.0313 
 109   2.0000      -0.220985        -6.0133 
 110   0.0000      -0.031812        -0.8656 
 111   0.0000       0.019175         0.5218 
 112   0.0000       0.025838         0.7031 
 113   0.0000       0.080119         2.1802 
 114   0.0000       0.087716         2.3869 
 115   0.0000       0.101352         2.7579 
 116   0.0000       0.105154         2.8614 
 117   0.0000       0.107048         2.9129 
 118   0.0000       0.110267         3.0005 
 119   0.0000       0.113815         3.0971 
 120   0.0000       0.117576         3.1994 
*Only the first 10 virtual orbitals were printed.

                    ********************************
                    * MULLIKEN POPULATION ANALYSIS *
                    ********************************

-----------------------
MULLIKEN ATOMIC CHARGES
-----------------------
   0 C :    0.077837
   1 C :   -0.500679
   2 C :   -0.074106
   3 H :    0.222974
   4 H :    0.219908
   5 C :    0.138608
   6 C :   -0.479816
   7 C :   -0.439761
   8 H :    0.225345
   9 H :    0.207419
  10 H :    0.208814
  11 H :    0.227895
  12 O :   -0.488149
  13 H :    0.247276
  14 C :   -0.280270
  15 C :   -0.514072
  16 H :    0.200994
  17 H :    0.196966
  18 C :   -0.260069
  19 H :    0.220074
  20 C :    0.154006
  21 H :    0.220039
  22 C :   -0.479604
  23 C :   -0.427516
  24 H :    0.211782
  25 H :    0.207184
  26 C :   -0.397330
  27 H :    0.208565
  28 H :    0.217394
  29 C :    0.002810
  30 H :    0.222040
  31 H :    0.194546
  32 C :   -0.230057
  33 H :    0.227956
  34 C :   -0.433164
  35 H :    0.340988
  36 C :   -0.416393
  37 H :    0.207964
  38 H :    0.198054
  39 C :   -0.187359
  40 H :    0.207263
  41 H :    0.206338
  42 H :    0.210258
  43 C :   -0.250641
  44 C :   -0.627083
  45 H :    0.205278
  46 H :    0.209106
  47 H :    0.200760
  48 H :    0.219942
  49 C :   -0.620029
  50 C :   -0.175563
  51 C :   -0.176946
  52 H :    0.207764
  53 H :    0.212114
  54 C :   -0.242686
  55 C :   -0.627886
  56 C :   -0.197749
  57 H :    0.223982
  58 H :    0.220791
  59 C :   -0.612567
  60 C :   -0.618184
  61 H :    0.198592
  62 H :    0.208278
  63 H :    0.203555
  64 H :    0.200727
  65 H :    0.197785
  66 H :    0.204498
  67 H :    0.204454
  68 H :    0.203132
  69 H :    0.197910
  70 H :    0.211243
  71 H :    0.193486
  72 H :    0.202984
Sum of atomic charges:   -0.0000000

--------------------------------
MULLIKEN REDUCED ORBITAL CHARGES
--------------------------------
  0 C s       :     3.354319  s :     3.354319
      pz      :     0.998835  p :     2.567844
      px      :     0.807796
      py      :     0.761212

  1 C s       :     3.377943  s :     3.377943
      pz      :     1.136689  p :     3.122736
      px      :     0.873106
      py      :     1.112941

  2 C s       :     3.312679  s :     3.312679
      pz      :     0.706026  p :     2.761428
      px      :     1.141402
      py      :     0.913999

  3 H s       :     0.777026  s :     0.777026

  4 H s       :     0.780092  s :     0.780092

  5 C s       :     3.341363  s :     3.341363
      pz      :     0.885139  p :     2.520029
      px      :     0.866317
      py      :     0.768573

  6 C s       :     3.367230  s :     3.367230
      pz      :     1.136132  p :     3.112586
      px      :     0.888465
      py      :     1.087988

  7 C s       :     3.338581  s :     3.338581
      pz      :     1.179402  p :     3.101180
      px      :     0.966974
      py      :     0.954804

  8 H s       :     0.774655  s :     0.774655

  9 H s       :     0.792581  s :     0.792581

 10 H s       :     0.791186  s :     0.791186

 11 H s       :     0.772105  s :     0.772105

 12 O s       :     3.685044  s :     3.685044
      pz      :     1.438911  p :     4.803106
      px      :     1.457150
      py      :     1.907044

 13 H s       :     0.752724  s :     0.752724

 14 C s       :     3.394279  s :     3.394279
      pz      :     0.980690  p :     2.885990
      px      :     0.825118
      py      :     1.080182

 15 C s       :     3.385113  s :     3.385113
      pz      :     0.989377  p :     3.128959
      px      :     0.992751
      py      :     1.146830

 16 H s       :     0.799006  s :     0.799006

 17 H s       :     0.803034  s :     0.803034

 18 C s       :     3.397104  s :     3.397104
      pz      :     1.015171  p :     2.862965
      px      :     0.764463
      py      :     1.083332

 19 H s       :     0.779926  s :     0.779926

 20 C s       :     3.351049  s :     3.351049
      pz      :     0.941493  p :     2.494945
      px      :     0.758426
      py      :     0.795026

 21 H s       :     0.779961  s :     0.779961

 22 C s       :     3.372629  s :     3.372629
      pz      :     1.112697  p :     3.106975
      px      :     1.110656
      py      :     0.883621

 23 C s       :     3.327502  s :     3.327502
      pz      :     1.101735  p :     3.100014
      px      :     0.889983
      py      :     1.108297

 24 H s       :     0.788218  s :     0.788218

 25 H s       :     0.792816  s :     0.792816

 26 C s       :     3.349713  s :     3.349713
      pz      :     1.172583  p :     3.047617
      px      :     0.965069
      py      :     0.909965

 27 H s       :     0.791435  s :     0.791435

 28 H s       :     0.782606  s :     0.782606

 29 C s       :     3.317470  s :     3.317470
      pz      :     0.869397  p :     2.679721
      px      :     0.905946
      py      :     0.904378

 30 H s       :     0.777960  s :     0.777960

 31 H s       :     0.805454  s :     0.805454

 32 C s       :     3.362790  s :     3.362790
      pz      :     1.083124  p :     2.867268
      px      :     0.864067
      py      :     0.920076

 33 H s       :     0.772044  s :     0.772044

 34 C s       :     3.344623  s :     3.344623
      pz      :     1.189847  p :     3.088541
      px      :     0.935284
      py      :     0.963410

 35 H s       :     0.659012  s :     0.659012

 36 C s       :     3.336159  s :     3.336159
      pz      :     1.172464  p :     3.080234
      px      :     0.932549
      py      :     0.975221

 37 H s       :     0.792036  s :     0.792036

 38 H s       :     0.801946  s :     0.801946

 39 C s       :     3.337510  s :     3.337510
      pz      :     1.066057  p :     2.849849
      px      :     0.860426
      py      :     0.923365

 40 H s       :     0.792737  s :     0.792737

 41 H s       :     0.793662  s :     0.793662

 42 H s       :     0.789742  s :     0.789742

 43 C s       :     3.346444  s :     3.346444
      pz      :     1.081541  p :     2.904197
      px      :     0.877522
      py      :     0.945134

 44 C s       :     3.365893  s :     3.365893
      pz      :     0.953126  p :     3.261189
      px      :     1.161894
      py      :     1.146170

 45 H s       :     0.794722  s :     0.794722

 46 H s       :     0.790894  s :     0.790894

 47 H s       :     0.799240  s :     0.799240

 48 H s       :     0.780058  s :     0.780058

 49 C s       :     3.347383  s :     3.347383
      pz      :     1.149664  p :     3.272646
      px      :     1.151803
      py      :     0.971178

 50 C s       :     3.333116  s :     3.333116
      pz      :     1.058469  p :     2.842447
      px      :     0.902443
      py      :     0.881536

 51 C s       :     3.335585  s :     3.335585
      pz      :     1.055022  p :     2.841361
      px      :     0.903056
      py      :     0.883283

 52 H s       :     0.792236  s :     0.792236

 53 H s       :     0.787886  s :     0.787886

 54 C s       :     3.339660  s :     3.339660
      pz      :     1.105838  p :     2.903026
      px      :     0.880889
      py      :     0.916299

 55 C s       :     3.346516  s :     3.346516
      pz      :     1.158179  p :     3.281370
      px      :     1.160776
      py      :     0.962415

 56 C s       :     3.311740  s :     3.311740
      pz      :     0.879635  p :     2.886009
      px      :     0.879209
      py      :     1.127165

 57 H s       :     0.776018  s :     0.776018

 58 H s       :     0.779209  s :     0.779209

 59 C s       :     3.341421  s :     3.341421
      pz      :     1.096591  p :     3.271146
      px      :     1.033625
      py      :     1.140930

 60 C s       :     3.344090  s :     3.344090
      pz      :     0.988006  p :     3.274094
      px      :     1.166230
      py      :     1.119858

 61 H s       :     0.801408  s :     0.801408

 62 H s       :     0.791722  s :     0.791722

 63 H s       :     0.796445  s :     0.796445

 64 H s       :     0.799273  s :     0.799273

 65 H s       :     0.802215  s :     0.802215

 66 H s       :     0.795502  s :     0.795502

 67 H s       :     0.795546  s :     0.795546

 68 H s       :     0.796868  s :     0.796868

 69 H s       :     0.802090  s :     0.802090

 70 H s       :     0.788757  s :     0.788757

 71 H s       :     0.806514  s :     0.806514

 72 H s       :     0.797016  s :     0.797016


------------------------
MULLIKEN OVERLAP CHARGES
------------------------
B(  0-C ,  1-C ) :   0.5247 B(  0-C ,  2-C ) :  -0.1802 B(  0-C ,  3-H ) :  -0.0795 
B(  0-C ,  4-H ) :  -0.0863 B(  0-C ,  5-C ) :   0.4156 B(  0-C ,  6-C ) :  -0.1418 
B(  0-C , 14-C ) :   0.9501 B(  0-C , 15-C ) :  -0.2022 B(  0-C , 18-C ) :  -0.1866 
B(  0-C , 19-H ) :  -0.0751 B(  1-C ,  2-C ) :   0.5265 B(  1-C ,  3-H ) :   0.8090 
B(  1-C ,  4-H ) :   0.7737 B(  1-C ,  5-C ) :  -0.1410 B(  1-C ,  7-C ) :  -0.1579 
B(  1-C , 12-O ) :  -0.1099 B(  1-C , 13-H ) :  -0.0572 B(  1-C , 14-C ) :  -0.1137 
B(  2-C ,  3-H ) :  -0.0592 B(  2-C ,  4-H ) :  -0.0536 B(  2-C ,  6-C ) :  -0.1580 
B(  2-C ,  7-C ) :   0.5149 B(  2-C , 10-H ) :  -0.0624 B(  2-C , 11-H ) :  -0.0697 
B(  2-C , 12-O ) :   0.6965 B(  2-C , 13-H ) :   0.8216 B(  2-C , 35-H ) :  -0.1153 
B(  5-C ,  6-C ) :   0.5303 B(  5-C ,  7-C ) :  -0.1575 B(  5-C ,  8-H ) :  -0.0730 
B(  5-C ,  9-H ) :  -0.0939 B(  5-C , 14-C ) :  -0.1991 B(  5-C , 15-C ) :   1.0623 
B(  5-C , 16-H ) :  -0.0996 B(  5-C , 17-H ) :  -0.0951 B(  6-C ,  7-C ) :   0.5527 
B(  6-C ,  8-H ) :   0.8228 B(  6-C ,  9-H ) :   0.7937 B(  6-C , 10-H ) :  -0.0741 
B(  6-C , 11-H ) :  -0.0561 B(  6-C , 15-C ) :  -0.1298 B(  7-C ,  9-H ) :  -0.0776 
B(  7-C , 10-H ) :   0.7763 B(  7-C , 11-H ) :   0.8044 B(  7-C , 12-O ) :  -0.1079 
B(  7-C , 13-H ) :  -0.0827 B( 12-O , 35-H ) :   0.6663 B( 14-C , 18-C ) :   0.6118 
B( 14-C , 19-H ) :   0.8212 B( 14-C , 20-C ) :  -0.1942 B( 14-C , 21-H ) :  -0.0738 
B( 15-C , 16-H ) :   0.8137 B( 15-C , 17-H ) :   0.8065 B( 18-C , 19-H ) :  -0.0600 
B( 18-C , 20-C ) :   0.9183 B( 18-C , 21-H ) :   0.8333 B( 18-C , 22-C ) :  -0.1508 
B( 18-C , 32-C ) :  -0.1496 B( 20-C , 21-H ) :  -0.0831 B( 20-C , 22-C ) :   0.5335 
B( 20-C , 23-C ) :  -0.1719 B( 20-C , 24-H ) :  -0.0673 B( 20-C , 25-H ) :  -0.0918 
B( 20-C , 29-C ) :  -0.1249 B( 20-C , 32-C ) :   0.5189 B( 20-C , 33-H ) :  -0.0914 
[...]
        0.0000         1.7172        0.0000
        0.0000         0.0000        1.7172

 Diagonalized JT*J matrix:
 
 J[55,60](FC)             1.717            1.717            1.717  iso=      1.717
                ---------------  ---------------  ---------------  ---------------
 J[55,60](Total)          1.717            1.717            1.717  iso=      1.717



-----------------------------------------------------------
 NUCLEUS A = C   56 NUCLEUS B = C   59 
 ( 13C  gnA =  1.405  13C  gnB =  1.405) r(AB) =     1.5313
-----------------------------------------------------------

Fermi-contact contribution to J (Hz):
       26.3223         0.0000        0.0000
        0.0000        26.3223        0.0000
        0.0000         0.0000       26.3223

Total spin-spin coupling tensor J (Hz):
       26.3223         0.0000        0.0000
        0.0000        26.3223        0.0000
        0.0000         0.0000       26.3223

 Diagonalized JT*J matrix:
 
 J[56,59](FC)            26.322           26.322           26.322  iso=     26.322
                ---------------  ---------------  ---------------  ---------------
 J[56,59](Total)         26.322           26.322           26.322  iso=     26.322



-----------------------------------------------------------
 NUCLEUS A = C   56 NUCLEUS B = C   60 
 ( 13C  gnA =  1.405  13C  gnB =  1.405) r(AB) =     1.5306
-----------------------------------------------------------

Fermi-contact contribution to J (Hz):
       26.4221         0.0000        0.0000
        0.0000        26.4221        0.0000
        0.0000         0.0000       26.4221

Total spin-spin coupling tensor J (Hz):
       26.4221         0.0000        0.0000
        0.0000        26.4221        0.0000
        0.0000         0.0000       26.4221

 Diagonalized JT*J matrix:
 
 J[56,60](FC)            26.422           26.422           26.422  iso=     26.422
                ---------------  ---------------  ---------------  ---------------
 J[56,60](Total)         26.422           26.422           26.422  iso=     26.422



-----------------------------------------------------------
 NUCLEUS A = C   59 NUCLEUS B = C   60 
 ( 13C  gnA =  1.405  13C  gnB =  1.405) r(AB) =     2.5133
-----------------------------------------------------------

Fermi-contact contribution to J (Hz):
       -0.8871         0.0000        0.0000
        0.0000        -0.8871        0.0000
        0.0000         0.0000       -0.8871

Total spin-spin coupling tensor J (Hz):
       -0.8871         0.0000        0.0000
        0.0000        -0.8871        0.0000
        0.0000         0.0000       -0.8871

 Diagonalized JT*J matrix:
 
 J[59,60](FC)            -0.887           -0.887           -0.887  iso=     -0.887
                ---------------  ---------------  ---------------  ---------------
 J[59,60](Total)         -0.887           -0.887           -0.887  iso=     -0.887



-----------------------------------------------------------------------------
                SUMMARY OF ISOTROPIC COUPLING CONSTANTS J (Hz)                
-----------------------------------------------------------------------------
                  0 C        1 C        2 C        5 C        6 C        7 C  
      0 C        0.000     33.146     -3.765     41.292     -0.894      2.279
      1 C       33.146      0.000     23.396     -1.208      1.442     -0.670
      2 C       -3.765     23.396      0.000      2.290     -2.776     25.915
      5 C       41.292     -1.208      2.290      0.000     30.361     -2.780
      6 C       -0.894      1.442     -2.776     30.361      0.000     24.836
      7 C        2.279     -0.670     25.915     -2.780     24.836      0.000
     14 C       69.363     -0.375      2.839     -3.010      2.178     -0.621
     15 C       -3.414      2.417     -0.865     64.583     -1.076      2.600
     18 C       -2.393      4.173     -1.102      3.185     -0.817      0.191
     20 C        6.815     -1.103      1.091     -1.384      0.608     -0.102
     22 C       -0.927      0.328     -0.331      0.423     -0.182      0.038
     23 C        0.819     -0.285      0.280     -0.340      0.152      0.000
     26 C       -0.094      0.039      0.000      0.048      0.000      0.000
     29 C        1.165     -0.367      0.000     -0.449      0.208      0.000
     32 C       -1.123      0.545     -0.377      0.471     -0.214      0.045
     34 C        0.022     -0.015      0.014     -0.015      0.005     -0.001
     36 C       -0.016      0.000      0.000      0.016     -0.008      0.000
     39 C       -0.070      0.000      0.000      0.030      0.000      0.000
     43 C        0.000      0.000      0.000      0.000      0.000      0.000
     44 C        0.010     -0.003      0.000     -0.002     -0.003      0.000
     49 C        0.000      0.000      0.000      0.000      0.000      0.000
     50 C        0.000      0.000      0.000      0.000      0.000      0.000
     51 C        0.000      0.000      0.000      0.000      0.000      0.000
     54 C        0.000      0.000      0.000      0.000      0.000      0.000
     55 C        0.000      0.000      0.000      0.000      0.000      0.000
     56 C        0.000      0.000      0.000      0.000      0.000      0.000
     59 C        0.000      0.000      0.000      0.000      0.000      0.000
     60 C        0.000      0.000      0.000      0.000      0.000      0.000
                 14 C       15 C       18 C       20 C       22 C       23 C  
      0 C       69.363     -3.414     -2.393      6.815     -0.927      0.819
      1 C       -0.375      2.417      4.173     -1.103      0.328     -0.285
      2 C        2.839     -0.865     -1.102      1.091     -0.331      0.280
      5 C       -3.010     64.583      3.185     -1.384      0.423     -0.340
      6 C        2.178     -1.076     -0.817      0.608     -0.182      0.152
      7 C       -0.621      2.600      0.191     -0.102      0.038      0.000
     14 C        0.000      3.102     54.136     -2.645      3.777     -0.916
     15 C        3.102      0.000     -1.146      1.008     -0.272      0.251
     18 C       54.136     -1.146      0.000     69.972     -2.161      2.356
     20 C       -2.645      1.008     69.972      0.000     32.149     -2.964
     22 C        3.777     -0.272     -2.161     32.149      0.000     24.257
     23 C       -0.916      0.251      2.356     -2.964     24.257      0.000
     26 C        0.135     -0.034     -0.353      1.025     -1.925     25.414
     29 C       -1.135      0.327      2.285     -2.444      1.085     -2.215
     32 C        4.379     -0.316     -1.286     36.799     -0.216      1.524
     34 C        0.073      0.003      2.471     -1.368      1.608     -0.265
     36 C        0.015     -0.014     -0.145      3.429      0.072      0.166
     39 C        0.254     -0.023     -0.044      2.882     -0.333      2.541
     43 C        0.008      0.017      0.279      0.178      0.002     -0.114
     44 C        0.005      0.027     -0.051      0.695     -0.135      0.586
     49 C        0.000      0.000     -0.009     -0.050      0.137      0.042
     50 C        0.000      0.000      0.022      0.128     -0.005      0.118
     51 C        0.000      0.000      0.016      0.048      0.000     -0.003
     54 C        0.000      0.000      0.000      0.000      0.000      0.000
     55 C        0.000      0.000      0.000      0.000      0.000      0.000
     56 C        0.000      0.000      0.000      0.000      0.000      0.000
     59 C        0.000      0.000      0.000      0.000      0.000      0.000
     60 C        0.000      0.000      0.000      0.000      0.000      0.000
                 26 C       29 C       32 C       34 C       36 C       39 C  
      0 C       -0.094      1.165     -1.123      0.022     -0.016     -0.070
      1 C        0.039     -0.367      0.545     -0.015      0.000      0.000
      2 C        0.000      0.000     -0.377      0.014      0.000      0.000
      5 C        0.048     -0.449      0.471     -0.015      0.016      0.030
      6 C        0.000      0.208     -0.214      0.005     -0.008      0.000
      7 C        0.000      0.000      0.045     -0.001      0.000      0.000
     14 C        0.135     -1.135      4.379      0.073      0.015      0.254
     15 C       -0.034      0.327     -0.316      0.003     -0.014     -0.023
     18 C       -0.353      2.285     -1.286      2.471     -0.145     -0.044
     20 C        1.025     -2.444     36.799     -1.368      3.429      2.882
     22 C       -1.925      1.085     -0.216      1.608      0.072     -0.333
     23 C       25.414     -2.215      1.524     -0.265      0.166      2.541
     26 C        0.000     27.830     -0.915      2.270      3.032     -0.588
     29 C       27.830      0.000     23.091      0.848      0.769     28.370
     32 C       -0.915     23.091      0.000     27.925      1.177      3.371
     34 C        2.270      0.848     27.925      0.000     25.927      0.196
     36 C        3.032      0.769      1.177     25.927      0.000     26.947
     39 C       -0.588     28.370      3.371      0.196     26.947      0.000
     43 C       -0.019     -0.633      2.701      1.807      0.346     28.811
     44 C       -0.571     27.284     -0.965      0.807      0.282     -1.191
     49 C        0.351      0.062     -0.029      0.045      3.212     -1.262
     50 C       -0.118      3.561     -0.088     -0.039      0.680     -1.875
     51 C       -0.022      0.227      0.125      0.067     -0.007      3.246
     54 C       -0.001      0.091     -0.014     -0.005     -0.029     -0.520
     55 C        0.000      0.107      0.031     -0.004     -0.020      0.814
     56 C        0.000      0.008      0.000      0.008      0.059      0.712
     59 C        0.000      0.000      0.000      0.000      0.002      0.020
     60 C        0.000      0.000      0.000      0.000     -0.002     -0.020
                 43 C       44 C       49 C       50 C       51 C       54 C  
      0 C        0.000      0.010      0.000      0.000      0.000      0.000
      1 C        0.000     -0.003      0.000      0.000      0.000      0.000
      2 C        0.000      0.000      0.000      0.000      0.000      0.000
      5 C        0.000     -0.002      0.000      0.000      0.000      0.000
      6 C        0.000     -0.003      0.000      0.000      0.000      0.000
      7 C        0.000      0.000      0.000      0.000      0.000      0.000
     14 C        0.008      0.005      0.000      0.000      0.000      0.000
     15 C        0.017      0.027      0.000      0.000      0.000      0.000
     18 C        0.279     -0.051     -0.009      0.022      0.016      0.000
     20 C        0.178      0.695     -0.050      0.128      0.048      0.000
     22 C        0.002     -0.135      0.137     -0.005      0.000      0.000
     23 C       -0.114      0.586      0.042      0.118     -0.003      0.000
     26 C       -0.019     -0.571      0.351     -0.118     -0.022     -0.001
     29 C       -0.633     27.284      0.062      3.561      0.227      0.091
     32 C        2.701     -0.965     -0.029     -0.088      0.125     -0.014
     34 C        1.807      0.807      0.045     -0.039      0.067     -0.005
     36 C        0.346      0.282      3.212      0.680     -0.007     -0.029
     39 C       28.811     -1.191     -1.262     -1.875      3.246     -0.520
     43 C        0.000      1.465     25.920     36.011     -0.389      4.168
     44 C        1.465      0.000     -0.106     -0.168     -0.006      0.001
     49 C       25.920     -0.106      0.000     -3.043      3.533     -0.782
     50 C       36.011     -0.168     -3.043      0.000     69.037     -0.335
     51 C       -0.389     -0.006      3.533     69.037      0.000     36.361
     54 C        4.168      0.001     -0.782     -0.335     36.361      0.000
     55 C       -0.546     -0.002      0.825      3.603     -2.185     26.208
     56 C       -0.702      0.001      1.240      3.195     -2.338     25.729
     59 C        0.080      0.000      0.106     -0.013      3.048     -0.426
     60 C        0.028      0.000     -0.033     -0.120      0.905     -1.666
                 55 C       56 C       59 C       60 C  
      0 C        0.000      0.000      0.000      0.000
      1 C        0.000      0.000      0.000      0.000
      2 C        0.000      0.000      0.000      0.000
      5 C        0.000      0.000      0.000      0.000
      6 C        0.000      0.000      0.000      0.000
      7 C        0.000      0.000      0.000      0.000
     14 C        0.000      0.000      0.000      0.000
     15 C        0.000      0.000      0.000      0.000
     18 C        0.000      0.000      0.000      0.000
     20 C        0.000      0.000      0.000      0.000
     22 C        0.000      0.000      0.000      0.000
     23 C        0.000      0.000      0.000      0.000
     26 C        0.000      0.000      0.000      0.000
     29 C        0.107      0.008      0.000      0.000
     32 C        0.031      0.000      0.000      0.000
     34 C       -0.004      0.008      0.000      0.000
     36 C       -0.020      0.059      0.002     -0.002
     39 C        0.814      0.712      0.020     -0.020
     43 C       -0.546     -0.702      0.080      0.028
     44 C       -0.002      0.001      0.000      0.000
     49 C        0.825      1.240      0.106     -0.033
     50 C        3.603      3.195     -0.013     -0.120
     51 C       -2.185     -2.338      3.048      0.905
     54 C       26.208     25.729     -0.426     -1.666
     55 C        0.000     -1.915      0.675      1.717
     56 C       -1.915      0.000     26.322     26.422
     59 C        0.675     26.322      0.000     -0.887
     60 C        1.717     26.422     -0.887      0.000

NMR spin-spin coupling calculation done in   0.3 sec 

Maximum memory used throughout the entire PROP-calculation: 33.9 MB

--------------------------------
SUGGESTED CITATIONS FOR THIS RUN
--------------------------------

Below you find a list of papers that are relevant to this ORCA run
We neither can nor want to force you to cite these papers, but we appreciate if you do
You receive ORCA, which is the product of decades of hard work by many enthusiastic individuals, for free
The only thing we kindly ask in return is that you cite our papers,
We deeply appreciate it, if you show your appreciation for ORCA by not just citing the generic ORCA reference.

Please note that relegating all ORCA citations to the supporting information does *not* help us.
SI sections are not indexed - citations you put there will not count into any citation statistics
But we need these citations in order to attract the funding resources that allow us to do what we are doing

Therefore, if you are a happy ORCA user, please consider citing a few of the papers listed below in the main body of your paper

In addition to the list printed below, the program has created the file inpJ.bibtex that contains the list in bibtex format
You can import this file easily into all common literature databanks and citation aid programs


List of essential papers. We consider these as the minimum necessary citations

  1. Neese,F.
     Software update: the ORCA program system, version 5.0
     WIRES Comput. Molec. Sci., 2022 12(1)e1606
     doi.org/10.1002/wcms.1606

List of papers to cite with high priority. The work reported in these papers was absolutely
necessary for this run to complete.
Our perspective: the developers of density functionals and basis sets usually get cited in chemistry papers
Good! But without the algorithms to do something with them, the functionals or basis sets would not do anything.
Hence, in our opinion, the algorithm design and method developments papers are equally worthy of getting cited

  1. Neese,F.
     An improvement of the resolution of the identity approximation for the formation of the Coulomb matrix
     J. Comp. Chem., 2003 24(14)1740-1747
     doi.org/10.1002/jcc.10318
  2. Neese,F.; Wennmohs,F.; Hansen,A.; Becker,U.
     Efficient, approximate and parallel Hartree-Fock and hybrid DFT calculations. A 'chain-of-spheres' algorithm for the Hartree-Fock exchange
     Chem. Phys., 2009 356(1-3)98-109
     doi.org/10.1016/j.chemphys.2008.10.036
  3. Stoychev,G.L.; Auer,A.A.; Izsak,R.; Neese,F.
     Self-Consistent Field Calculation of Nuclear Magnetic Resonance Chemical Shielding Constants Using Gauge-Including Atomic Orbitals and Approximate Two-Electron Integrals
     J. Chem. Theory Comput., 2018 14(2)619-637
     doi.org/10.1021/acs.jctc.7b01006
  4. Garcia-Rates,M.; Neese,F.
     Effect of the Solute Cavity on the Solvation Energy and its Derivatives within the Framework of the Gaussian Charge Scheme
     J. Comput. Chem., 2020 41 922-939
     doi.org/10.1002/jcc.26139
  5. Helmich-Paris,B.; de Souza,B.; Neese,F.; Izsák,R.
     An improved chain of spheres for exchange algorithm
     J. Chem. Phys., 2021 155 104109
     doi.org/doi: 10.1063/5.0058766.
  6. Neese,F.
     The SHARK Integral Generation and Digestion System
     J. Comp. Chem., 2022  1-16
     doi.org/10.1002/jcc.26942
  7. Grimme,S.; Bannwarth,C.; Dohm,S.; Hansen,A.; Pisarek,J.; Pracht,P.; Seibert,J.; Neese,F.
     Fully Automated Quantum-Chemistry-Based Computation of Spin-Spin-Coupled Nuclear Magnetic Resonance Spectra
     Angew. Chem., Int. Ed., 2017 56 14763-14769
     doi.org/10.1002/anie.201708266
  8. Caldeweyher,E.; Bannwarth,C.; Grimme,S.
     Extension of the D3 dispersion coefficient model
     J. Chem. Phys., 2017 147 034112-XXXX
     doi.org/10.1063/1.4993215
  9. Caldeweyher,E.; Ehlert,S.; Hansen,A.; Neugebauer,H.; Spicher,S.; Bannwarth,C.; Grimme,S.
     A generally applicable atomic-charge dependent London dispersion correction
     J. Chem. Phys., 2019 150 154122-XXXX
     doi.org/10.1063/1.5090222
 10. Caldeweyher,E.; Mewes,J.; Ehlert,S.; Grimme,S.
     Extension and evaluation of the D4 London-dispersion model for periodic systems
     Phys. Chem. Chem. Phys., 2020 22(16)8499-8512
     doi.org/10.1039/D0CP00502A

List of suggested additional citations. These are papers that are important in the 'surrounding' of 
of this run, or papers that preceded the highly important papers. If you like your results we are grateful for a citation.

  1. Izsak,R.; Neese,F.
     An overlap fitted chain of spheres exchange method
     J. Chem. Phys., 2011 135 144105
     doi.org/10.1063/1.3646921
  2. Izsak,R.; Hansen,A.; Neese,F.
     The resolution of identity and chain of spheres approximations for the LPNO-CCSD singles Fock term
     Molec. Phys., 2012 110 2413-2417
     doi.org/10.1080/00268976.2012.687466
  3. Neese,F.
     The ORCA program system
     WIRES Comput. Molec. Sci., 2012 2(1)73-78
     doi.org/10.1002/wcms.81
  4. Izsak,R.; Neese,F.; Klopper,W.
     Robust fitting techniques in the chain of spheres approximation to the Fock exchange: The role of the complementary space
     J. Chem. Phys., 2013 139 
     doi.org/10.1063/1.4819264
  5. Neese,F.
     Software update: the ORCA program system, version 4.0
     WIRES Comput. Molec. Sci., 2018 8(1)1-6
     doi.org/10.1002/wcms.1327
  6. Neese,F.; Wennmohs,F.; Becker,U.; Riplinger,C.
     The ORCA quantum chemistry program package
     J. Chem. Phys., 2020 152 Art. No. L224108
     doi.org/10.1063/5.0004608

Timings for individual modules:

Sum of individual times          ...      136.726 sec (=   2.279 min)
Startup calculation              ...        3.700 sec (=   0.062 min)   2.7 %
SCF iterations                   ...       18.871 sec (=   0.315 min)  13.8 %
Property integrals               ...        0.648 sec (=   0.011 min)   0.5 %
SCF Response                     ...      112.966 sec (=   1.883 min)  82.6 %
Property calculations            ...        0.541 sec (=   0.009 min)   0.4 %
                             ****ORCA TERMINATED NORMALLY****
TOTAL RUN TIME: 0 days 0 hours 2 minutes 16 seconds 989 msec
