
                                 *****************
                                 * O   R   C   A *
                                 *****************

                                            #,                                       
                                            ###                                      
                                            ####                                     
                                            #####                                    
                                            ######                                   
                                           ########,                                 
                                     ,,################,,,,,                         
                               ,,#################################,,                 
                          ,,##########################################,,             
                       ,#########################################, ''#####,          
                    ,#############################################,,   '####,        
                  ,##################################################,,,,####,       
                ,###########''''           ''''###############################       
              ,#####''   ,,,,##########,,,,          '''####'''          '####       
            ,##' ,,,,###########################,,,                        '##       
           ' ,,###''''                  '''############,,,                           
         ,,##''                                '''############,,,,        ,,,,,,###''
      ,#''                                            '''#######################'''  
     '                                                          ''''####''''         
             ,#######,   #######,   ,#######,      ##                                
            ,#'     '#,  ##    ##  ,#'     '#,    #''#        ######   ,####,        
            ##       ##  ##   ,#'  ##            #'  '#       #        #'  '#        
            ##       ##  #######   ##           ,######,      #####,   #    #        
            '#,     ,#'  ##    ##  '#,     ,#' ,#      #,         ##   #,  ,#        
             '#######'   ##     ##  '#######'  #'      '#     #####' # '####'        



                  #######################################################
                  #                        -***-                        #
                  #          Department of theory and spectroscopy      #
                  #    Directorship and core code : Frank Neese         #
                  #        Max Planck Institute fuer Kohlenforschung    #
                  #                Kaiser Wilhelm Platz 1               #
                  #                 D-45470 Muelheim/Ruhr               #
                  #                      Germany                        #
                  #                                                     #
                  #                  All rights reserved                #
                  #                        -***-                        #
                  #######################################################


                         Program Version 5.0.2 -  RELEASE  -


 With contributions from (in alphabetic order):
   Daniel Aravena         : Magnetic Suceptibility
   Michael Atanasov       : Ab Initio Ligand Field Theory (pilot matlab implementation)
   Alexander A. Auer      : GIAO ZORA, VPT2 properties, NMR spectrum
   Ute Becker             : Parallelization
   Giovanni Bistoni       : ED, misc. LED, open-shell LED, HFLD
   Martin Brehm           : Molecular dynamics
   Dmytro Bykov           : SCF Hessian
   Vijay G. Chilkuri      : MRCI spin determinant printing, contributions to CSF-ICE
   Dipayan Datta          : RHF DLPNO-CCSD density
   Achintya Kumar Dutta   : EOM-CC, STEOM-CC
   Dmitry Ganyushin       : Spin-Orbit,Spin-Spin,Magnetic field MRCI
   Miquel Garcia          : C-PCM and meta-GGA Hessian, CC/C-PCM, Gaussian charge scheme
   Yang Guo               : DLPNO-NEVPT2, F12-NEVPT2, CIM, IAO-localization
   Andreas Hansen         : Spin unrestricted coupled pair/coupled cluster methods
   Benjamin Helmich-Paris : MC-RPA, TRAH-SCF, COSX integrals
   Lee Huntington         : MR-EOM, pCC
   Robert Izsak           : Overlap fitted RIJCOSX, COSX-SCS-MP3, EOM
   Marcus Kettner         : VPT2
   Christian Kollmar      : KDIIS, OOCD, Brueckner-CCSD(T), CCSD density, CASPT2, CASPT2-K
   Simone Kossmann        : Meta GGA functionals, TD-DFT gradient, OOMP2, MP2 Hessian
   Martin Krupicka        : Initial AUTO-CI
   Lucas Lang             : DCDCAS
   Marvin Lechner         : AUTO-CI (C++ implementation), FIC-MRCC
   Dagmar Lenk            : GEPOL surface, SMD
   Dimitrios Liakos       : Extrapolation schemes; Compound Job, initial MDCI parallelization
   Dimitrios Manganas     : Further ROCIS development; embedding schemes
   Dimitrios Pantazis     : SARC Basis sets
   Anastasios Papadopoulos: AUTO-CI, single reference methods and gradients
   Taras Petrenko         : DFT Hessian,TD-DFT gradient, ASA, ECA, R-Raman, ABS, FL, XAS/XES, NRVS
   Peter Pinski           : DLPNO-MP2, DLPNO-MP2 Gradient
   Christoph Reimann      : Effective Core Potentials
   Marius Retegan         : Local ZFS, SOC
   Christoph Riplinger    : Optimizer, TS searches, QM/MM, DLPNO-CCSD(T), (RO)-DLPNO pert. Triples
   Tobias Risthaus        : Range-separated hybrids, TD-DFT gradient, RPA, STAB
   Michael Roemelt        : Original ROCIS implementation
   Masaaki Saitow         : Open-shell DLPNO-CCSD energy and density
   Barbara Sandhoefer     : DKH picture change effects
   Avijit Sen             : IP-ROCIS
   Kantharuban Sivalingam : CASSCF convergence, NEVPT2, FIC-MRCI
   Bernardo de Souza      : ESD, SOC TD-DFT
   Georgi Stoychev        : AutoAux, RI-MP2 NMR, DLPNO-MP2 response
   Willem Van den Heuvel  : Paramagnetic NMR
   Boris Wezisla          : Elementary symmetry handling
   Frank Wennmohs         : Technical directorship


 We gratefully acknowledge several colleagues who have allowed us to
 interface, adapt or use parts of their codes:
   Stefan Grimme, W. Hujo, H. Kruse, P. Pracht,  : VdW corrections, initial TS optimization,
                  C. Bannwarth, S. Ehlert          DFT functionals, gCP, sTDA/sTD-DF
   Ed Valeev, F. Pavosevic, A. Kumar             : LibInt (2-el integral package), F12 methods
   Garnet Chan, S. Sharma, J. Yang, R. Olivares  : DMRG
   Ulf Ekstrom                                   : XCFun DFT Library
   Mihaly Kallay                                 : mrcc  (arbitrary order and MRCC methods)
   Jiri Pittner, Ondrej Demel                    : Mk-CCSD
   Frank Weinhold                                : gennbo (NPA and NBO analysis)
   Christopher J. Cramer and Donald G. Truhlar   : smd solvation model
   Lars Goerigk                                  : TD-DFT with DH, B97 family of functionals
   V. Asgeirsson, H. Jonsson                     : NEB implementation
   FAccTs GmbH                                   : IRC, NEB, NEB-TS, DLPNO-Multilevel, CI-OPT
                                                   MM, QMMM, 2- and 3-layer-ONIOM, Crystal-QMMM,
                                                   LR-CPCM, SF, NACMEs, symmetry and pop. for TD-DFT,
                                                   nearIR, NL-DFT gradient (VV10), updates on ESD,
                                                   ML-optimized integration grids
   S Lehtola, MJT Oliveira, MAL Marques          : LibXC Library
   Liviu Ungur et al                             : ANISO software


 Your calculation uses the libint2 library for the computation of 2-el integrals
 For citations please refer to: http://libint.valeyev.net

 Your ORCA version has been built with support for libXC version: 5.1.0
 For citations please refer to: https://tddft.org/programs/libxc/

 This ORCA versions uses:
   CBLAS   interface :  Fast vector & matrix operations
   LAPACKE interface :  Fast linear algebra routines
   SCALAPACK package :  Parallel linear algebra routines
   Shared memory     :  Shared parallel matrices
   BLAS/LAPACK       :  OpenBLAS 0.3.15  USE64BITINT DYNAMIC_ARCH NO_AFFINITY Zen SINGLE_THREADED
        Core in use  :  Zen
   Copyright (c) 2011-2014, The OpenBLAS Project


Your calculation utilizes the atom-pairwise dispersion correction
based on tight binding partial charges (D4)
Cite in your paper:
E.Caldeweyher, C.Bannwarth, S.Grimme, J.Chem.Phys., (2017), 147, 034112.
E.Caldeweyher, S.Ehlert, A.Hansen, H.Neugebauer, S.Grimme, J.Chem.Phys., (2018), in progress.
   

================================================================================

----- Orbital basis set information -----
Your calculation utilizes the basis: pcJ-0
   F. Jensen, Theor. Chem. Acc. 126, 371 (2010).

----- AuxJ basis set information -----
Your calculation utilizes the auxiliary basis: def2/J
   F. Weigend, Phys. Chem. Chem. Phys. 8, 1057 (2006).

================================================================================
                                        WARNINGS
                       Please study these warnings very carefully!
================================================================================


INFO   : the flag for use of the SHARK integral package has been found!

================================================================================
                                       INPUT FILE
================================================================================
NAME = inpJ
|  1> ! pbe0
|  2> ! D4
|  3> ! pcJ-0
|  4> ! def2/J RIJCOSX
|  5> ! DEFGRID2
|  6> ! scfconv7
|  7> ! smallprint printgap noloewdin
|  8> ! NOSOSCF
|  9> %MaxCore 4000
| 10> %output
| 11>        print[P_BondOrder_M] 1
| 12>        print[P_Mayer] 1
| 13>        print[P_basis] 2
| 14> end
| 15> %pal
| 16>     nprocs 4
| 17> end
| 18> ! CPCM(chloroform)
| 19> *xyz 0 1
| 20> C   -5.1451683500   0.3167439700   0.2058890500
| 21> C   -6.5338977300  -0.1429816500  -0.1709338100
| 22> C   -7.0392642900   0.5560964200  -1.4389504500
| 23> H   -7.2357820500   0.1088881000   0.6421475400
| 24> H   -6.5581428100  -1.2295562500  -0.3086754500
| 25> C   -4.9877230200   1.7857294600   0.2608439200
| 26> C   -5.5411157700   2.5197918000  -0.9396865200
| 27> C   -6.9702475900   2.0699218900  -1.2724533100
| 28> H   -4.8983241400   2.3022035400  -1.8062491000
| 29> H   -5.5063979500   3.6012958400  -0.7711362500
| 30> H   -7.3178374500   2.5588334200  -2.1901692500
| 31> H   -7.6498512500   2.3657425500  -0.4590031200
| 32> O   -8.3605435600   0.1172442700  -1.7810863400
| 33> H   -6.4122087300   0.2532822200  -2.2891889000
| 34> C   -4.1510535200  -0.5773291200   0.4201361100
| 35> C   -4.4443809000   2.4288729500   1.3006491900
| 36> H   -4.0753002600   1.8903462800   2.1690015800
| 37> H   -4.3673907300   3.5135672200   1.3089266300
| 38> C   -2.7650011400  -0.2726491600   0.6888678100
| 39> H   -4.4249160200  -1.6282919200   0.3382271800
| 40> C   -1.7886157600  -1.1624543400   0.9693761600
| 41> H   -2.4905730900   0.7788788900   0.6437833300
| 42> C   -1.9702679400  -2.6516799800   1.1185904200
| 43> C   -0.9916776500  -3.4404715700   0.2276901300
| 44> H   -2.9969371000  -2.9679554000   0.9145430200
| 45> H   -1.7620658500  -2.9118079000   2.1688874500
| 46> C    0.4629651800  -2.9814446400   0.3974385600
| 47> H   -1.2949817800  -3.3326918500  -0.8213975400
| 48> H   -1.0698309100  -4.5084121100   0.4658676300
| 49> C    0.6132307000  -1.4681170200   0.1868610700
| 50> H    1.0979016800  -3.5460069700  -0.2932592000
| 51> H    0.8021058200  -3.2244848200   1.4157830400
| 52> C   -0.3613727000  -0.7593553700   1.1800197100
| 53> H   -0.0716460800  -1.1450247900   2.1752594900
| 54> C    0.0597645600   0.7046148400   1.1258344900
| 55> H   -8.9477411400   0.3693470600  -1.0558904800
| 56> C    1.6007497500   0.6279359500   1.0011429800
| 57> H   -0.2668978300   1.2635660700   2.0092275500
| 58> H   -0.3756342400   1.2000086900   0.2507066300
| 59> C    1.9638863700  -0.8503591400   0.6522575300
| 60> H    2.0890175400   0.9386540400   1.9289108800
| 61> H    1.9696522200   1.3010396400   0.2180157300
| 62> H    2.2292751800  -1.3796225300   1.5809671800
| 63> C    3.1629469000  -0.9360850800  -0.3022562300
| 64> C    0.2912011800  -1.0763674300  -1.2617346000
| 65> H   -0.7684909000  -1.2286210900  -1.4891358900
| 66> H    0.8758702600  -1.6755779700  -1.9677527800
| 67> H    0.5173012000  -0.0229249300  -1.4544889900
| 68> H    2.8991116100  -0.3732066500  -1.2117570600
| 69> C    3.5210541700  -2.3691583700  -0.7376271200
| 70> C    4.4233070700  -0.2998071900   0.2456886600
| 71> C    4.7252106700  -0.0919883800   1.5268928400
| 72> H    5.1599243100  -0.0571493900  -0.5215046100
| 73> H    3.9848061900  -0.3490385800   2.2868021500
| 74> C    6.0002144700   0.4772058300   2.1021954400
| 75> C    5.6391758900   1.5612144700   3.1330128500
| 76> C    7.0351500500   0.9495683300   1.0597772800
| 77> H    6.4760527900  -0.3449830300   2.6643345500
| 78> H    7.0936828700   0.1653304100   0.2912870600
| 79> C    8.4332385600   1.0709303000   1.6745467000
| 80> C    6.6442371100   2.2628327900   0.3732456100
| 81> H    5.0090385600   1.1384012800   3.9230140200
| 82> H    5.0797652500   2.3781736800   2.6647455600
| 83> H    6.5308254500   1.9832549500   3.6075008300
| 84> H    9.1687181200   1.3386848100   0.9076032500
| 85> H    8.7496043500   0.1268239200   2.1323951800
| 86> H    8.4652608200   1.8495744600   2.4452286700
| 87> H    6.7407914600   3.1074493000   1.0652417600
| 88> H    5.6126248400   2.2442689800   0.0076174500
| 89> H    7.3047618400   2.4585029500  -0.4787047500
| 90> H    4.4626797300  -2.3722891600  -1.2981322900
| 91> H    2.7519040100  -2.8085144700  -1.3780956700
| 92> H    3.6518823500  -3.0112809200   0.1413059100
| 93> *
| 94> %eprnmr
| 95>  Nuclei = all H { ssfc }
| 96>  SpinSpinRThresh 8.0
| 97> end
| 98> 
| 99>                          ****END OF INPUT****
================================================================================

                       ****************************
                       * Single Point Calculation *
                       ****************************

---------------------------------
CARTESIAN COORDINATES (ANGSTROEM)
---------------------------------
  C     -5.145168    0.316744    0.205889
  C     -6.533898   -0.142982   -0.170934
  C     -7.039264    0.556096   -1.438950
  H     -7.235782    0.108888    0.642148
  H     -6.558143   -1.229556   -0.308675
  C     -4.987723    1.785729    0.260844
  C     -5.541116    2.519792   -0.939687
  C     -6.970248    2.069922   -1.272453
  H     -4.898324    2.302204   -1.806249
  H     -5.506398    3.601296   -0.771136
  H     -7.317837    2.558833   -2.190169
  H     -7.649851    2.365743   -0.459003
  O     -8.360544    0.117244   -1.781086
  H     -6.412209    0.253282   -2.289189
  C     -4.151054   -0.577329    0.420136
  C     -4.444381    2.428873    1.300649
  H     -4.075300    1.890346    2.169002
  H     -4.367391    3.513567    1.308927
  C     -2.765001   -0.272649    0.688868
  H     -4.424916   -1.628292    0.338227
  C     -1.788616   -1.162454    0.969376
  H     -2.490573    0.778879    0.643783
  C     -1.970268   -2.651680    1.118590
  C     -0.991678   -3.440472    0.227690
  H     -2.996937   -2.967955    0.914543
  H     -1.762066   -2.911808    2.168887
  C      0.462965   -2.981445    0.397439
  H     -1.294982   -3.332692   -0.821398
  H     -1.069831   -4.508412    0.465868
  C      0.613231   -1.468117    0.186861
  H      1.097902   -3.546007   -0.293259
  H      0.802106   -3.224485    1.415783
  C     -0.361373   -0.759355    1.180020
  H     -0.071646   -1.145025    2.175259
  C      0.059765    0.704615    1.125834
  H     -8.947741    0.369347   -1.055890
  C      1.600750    0.627936    1.001143
  H     -0.266898    1.263566    2.009228
  H     -0.375634    1.200009    0.250707
  C      1.963886   -0.850359    0.652258
  H      2.089018    0.938654    1.928911
  H      1.969652    1.301040    0.218016
  H      2.229275   -1.379623    1.580967
  C      3.162947   -0.936085   -0.302256
  C      0.291201   -1.076367   -1.261735
  H     -0.768491   -1.228621   -1.489136
  H      0.875870   -1.675578   -1.967753
  H      0.517301   -0.022925   -1.454489
  H      2.899112   -0.373207   -1.211757
  C      3.521054   -2.369158   -0.737627
  C      4.423307   -0.299807    0.245689
  C      4.725211   -0.091988    1.526893
  H      5.159924   -0.057149   -0.521505
  H      3.984806   -0.349039    2.286802
  C      6.000214    0.477206    2.102195
  C      5.639176    1.561214    3.133013
  C      7.035150    0.949568    1.059777
  H      6.476053   -0.344983    2.664335
  H      7.093683    0.165330    0.291287
  C      8.433239    1.070930    1.674547
  C      6.644237    2.262833    0.373246
  H      5.009039    1.138401    3.923014
  H      5.079765    2.378174    2.664746
  H      6.530825    1.983255    3.607501
  H      9.168718    1.338685    0.907603
  H      8.749604    0.126824    2.132395
  H      8.465261    1.849574    2.445229
  H      6.740791    3.107449    1.065242
  H      5.612625    2.244269    0.007617
  H      7.304762    2.458503   -0.478705
  H      4.462680   -2.372289   -1.298132
  H      2.751904   -2.808514   -1.378096
  H      3.651882   -3.011281    0.141306

----------------------------
CARTESIAN COORDINATES (A.U.)
----------------------------
  NO LB      ZA    FRAG     MASS         X           Y           Z
   0 C     6.0000    0    12.011   -9.722959    0.598559    0.389074
   1 C     6.0000    0    12.011  -12.347277   -0.270196   -0.323018
   2 C     6.0000    0    12.011  -13.302282    1.050870   -2.719222
   3 H     1.0000    0     1.008  -13.673646    0.205769    1.213483
   4 H     1.0000    0     1.008  -12.393094   -2.323525   -0.583312
   5 C     6.0000    0    12.011   -9.425431    3.374540    0.492924
   6 C     6.0000    0    12.011  -10.471191    4.761716   -1.775750
   7 C     6.0000    0    12.011  -13.171859    3.911585   -2.404588
   8 H     1.0000    0     1.008   -9.256491    4.350534   -3.413316
   9 H     1.0000    0     1.008  -10.405584    6.805463   -1.457236
  10 H     1.0000    0     1.008  -13.828709    4.835494   -4.138820
  11 H     1.0000    0     1.008  -14.456124    4.470606   -0.867390
  12 O     8.0000    0    15.999  -15.799138    0.221560   -3.365765
  13 H     1.0000    0     1.008  -12.117318    0.478634   -4.325940
  14 C     6.0000    0    12.011   -7.844354   -1.090994    0.793942
  15 C     6.0000    0    12.011   -8.398663    4.589905    2.457871
  16 H     1.0000    0     1.008   -7.701201    3.572237    4.098819
  17 H     1.0000    0     1.008   -8.253172    6.639680    2.473513
  18 C     6.0000    0    12.011   -5.225095   -0.515232    1.301772
  19 H     1.0000    0     1.008   -8.361879   -3.077026    0.639157
  20 C     6.0000    0    12.011   -3.379994   -2.196720    1.831855
  21 H     1.0000    0     1.008   -4.706501    1.471868    1.216574
  22 C     6.0000    0    12.011   -3.723267   -5.010949    2.113830
  23 C     6.0000    0    12.011   -1.873999   -6.501549    0.430272
  24 H     1.0000    0     1.008   -5.663390   -5.608623    1.728236
  25 H     1.0000    0     1.008   -3.329822   -5.502519    4.098603
  26 C     6.0000    0    12.011    0.874877   -5.634114    0.751050
  27 H     1.0000    0     1.008   -2.447161   -6.297875   -1.552216
  28 H     1.0000    0     1.008   -2.021687   -8.519664    0.880362
  29 C     6.0000    0    12.011    1.158838   -2.774339    0.353116
  30 H     1.0000    0     1.008    2.074733   -6.700982   -0.554180
  31 H     1.0000    0     1.008    1.515760   -6.093393    2.675442
  32 C     6.0000    0    12.011   -0.682895   -1.434974    2.229914
  33 H     1.0000    0     1.008   -0.135391   -2.163783    4.110645
  34 C     6.0000    0    12.011    0.112939    1.331529    2.127519
  35 H     1.0000    0     1.008  -16.908780    0.697965   -1.995344
  36 C     6.0000    0    12.011    3.024979    1.186627    1.891886
  37 H     1.0000    0     1.008   -0.504364    2.387794    3.796890
  38 H     1.0000    0     1.008   -0.709846    2.267688    0.473767
  39 C     6.0000    0    12.011    3.711207   -1.606946    1.232588
  40 H     1.0000    0     1.008    3.947671    1.773799    3.645113
  41 H     1.0000    0     1.008    3.722103    2.458609    0.411990
  42 H     1.0000    0     1.008    4.212720   -2.607109    2.987595
  43 C     6.0000    0    12.011    5.977103   -1.768944   -0.571181
  44 C     6.0000    0    12.011    0.550290   -2.034040   -2.384333
  45 H     1.0000    0     1.008   -1.452237   -2.321757   -2.814059
  46 H     1.0000    0     1.008    1.655155   -3.166383   -3.718514
  47 H     1.0000    0     1.008    0.977558   -0.043322   -2.748586
  48 H     1.0000    0     1.008    5.478527   -0.705258   -2.289889
  49 C     6.0000    0    12.011    6.653828   -4.477060   -1.393913
  50 C     6.0000    0    12.011    8.358839   -0.566553    0.464284
  51 C     6.0000    0    12.011    8.929354   -0.173833    2.885409
  52 H     1.0000    0     1.008    9.750844   -0.107997   -0.985501
  53 H     1.0000    0     1.008    7.530192   -0.659587    4.321430
  54 C     6.0000    0    12.011   11.338762    0.901788    3.972574
  55 C     6.0000    0    12.011   10.656498    2.950268    5.920536
  56 C     6.0000    0    12.011   13.294507    1.794424    2.002689
  57 H     1.0000    0     1.008   12.237966   -0.651923    5.034863
  58 H     1.0000    0     1.008   13.405118    0.312429    0.550453
  59 C     6.0000    0    12.011   15.936511    2.023765    3.164435
  60 C     6.0000    0    12.011   12.555789    4.276134    0.705332
  61 H     1.0000    0     1.008    9.465711    2.151267    7.413422
  62 H     1.0000    0     1.008    9.599365    4.494097    5.035639
  63 H     1.0000    0     1.008   12.341472    3.747809    6.817189
  64 H     1.0000    0     1.008   17.326366    2.529748    1.715122
  65 H     1.0000    0     1.008   16.534356    0.239662    4.029643
  66 H     1.0000    0     1.008   15.997025    3.495189    4.620813
  67 H     1.0000    0     1.008   12.738250    5.872228    2.013015
  68 H     1.0000    0     1.008   10.606324    4.241054    0.014395
  69 H     1.0000    0     1.008   13.803999    4.645897   -0.904621
  70 H     1.0000    0     1.008    8.433243   -4.482977   -2.453115
  71 H     1.0000    0     1.008    5.200345   -5.307323   -2.604223
  72 H     1.0000    0     1.008    6.901058   -5.690496    0.267029

--------------------------------
INTERNAL COORDINATES (ANGSTROEM)
--------------------------------
 C      0   0   0     0.000000000000     0.00000000     0.00000000
 C      1   0   0     1.510600014689     0.00000000     0.00000000
 C      2   1   0     1.533613936830   111.74438084     0.00000000
 H      2   1   3     1.103259376278   109.36262457   241.47561089
 H      2   1   3     1.095538655027   110.70471511   122.89197582
 C      1   2   3     1.478420589516   114.17765432    50.51403020
 C      6   1   2     1.512072879237   114.44887489   312.05419587
 C      3   2   1     1.524517023889   110.32978019   305.01544005
 H      7   6   1     1.100661817065   108.38427346   289.89915849
 H      7   6   1     1.095109815991   110.22045124   172.70874041
 H      8   3   2     1.096383026808   109.69638546   179.06218278
 H      8   3   2     1.100487259890   108.64440798   296.48208680
 O      3   2   1     1.433676074334   111.19067817   180.34715288
 H      3   2   1     1.098999789312   109.02900897    65.18791788
 C      1   2   3     1.354080052363   120.89433350   232.65458765
 C      6   1   2     1.337927205649   123.35130207   129.85359129
 H     16   6   1     1.086401107484   121.39093450     0.65953552
 H     16   6   1     1.087454671083   120.94056758   181.34153708
 C     15   1   2     1.444364152392   126.48975094   175.20173294
 H     15   1   2     1.089143034089   116.14420161   357.95937937
 C     19  15   1     1.350469030764   126.40337362   176.38611728
 H     19  15   1     1.087683136258   115.99796543   355.44671202
 C     21  19  15     1.507665552011   125.75170518   357.04216264
 C     23  21  19     1.540627941736   111.83707420   127.55235645
 H     23  21  19     1.093487561355   112.35556025     3.40686080
 H     23  21  19     1.101879528928   107.74375199   246.18676237
 C     24  23  21     1.534765785005   112.64006891    50.76601864
 H     24  23  21     1.097358101380   109.08583369   288.61116339
 H     24  23  21     1.096965564879   109.12535565   172.66652770
 C     27  24  23     1.535279483107   111.86401052   306.25445079
 H     27  24  23     1.094960446389   109.00331100   182.60569312
 H     27  24  23     1.100504603689   109.17010220    66.13591149
 C     21  19  15     1.497959357623   122.73598868   177.39670394
 H     33  21  19     1.105976778940   106.39750446   124.18629648
 C     33  21  19     1.524303580523   121.11033502     1.76290294
 H     13   3   2     0.966574285839   107.51717780    62.53651957
 C     35  33  21     1.547922149411   103.31656881   194.97600366
 H     35  33  21     1.095225133484   112.27649125    73.17776337
 H     35  33  21     1.095826607182   110.65833382   313.50422077
 C     30  27  24     1.556434837115   115.79502303   166.41384289
 H     37  35  33     1.093482712472   111.22933727   251.83994407
 H     37  35  33     1.096560942017   111.22503596   133.50639571
 H     40  30  27     1.101386658023   105.69435050   322.04453269
 C     40  30  27     1.534989123552   118.01937435    82.93750150
 C     30  27  24     1.534796458218   111.13184610   294.65934914
 H     45  30  27     1.094458691816   111.33076837    67.35481338
 H     45  30  27     1.095149704308   110.90354261   307.23764664
 H     45  30  27     1.094539434975   111.62521331   187.23242722
 H     44  40  30     1.101650101883   107.32328706    62.29776817
 C     44  40  30     1.539963533074   114.16875575   303.49116347
 C     44  40  30     1.514463903136   113.68060683   179.74246249
 C     51  44  40     1.332598436264   127.00713494    23.36620195
 H     51  44  40     1.090904798642   113.63747827   199.40230440
 H     52  51  44     1.091666505279   118.61210745   356.52399923
 C     52  51  44     1.510162183436   128.04756111   176.72757881
 C     55  52  51     1.538833363494   108.82105710   132.32575771
 C     55  52  51     1.543001492693   115.10664840     4.03116045
 H     55  52  51     1.103819281984   106.09434870   246.61830404
 H     57  55  52     1.099560104960   106.82975115   315.00975069
 C     57  55  52     1.532097140955   111.42167467   198.75914351
 C     57  55  52     1.532580243404   113.19569868    73.94759064
 H     56  55  52     1.095420420158   110.25285245    58.18878405
 H     56  55  52     1.095279356983   111.03093458   299.03036216
 H     56  55  52     1.094667048820   111.76751774   177.99956524
 H     60  57  55     1.095821571380   110.54745921   176.03346258
 H     60  57  55     1.095923993933   111.27358315    56.01891529
 H     60  57  55     1.096021373843   111.41298334   295.36782450
 H     61  57  55     1.096156222025   110.79351411    71.59199683
 H     61  57  55     1.094647176967   112.05355731   311.05593860
 H     61  57  55     1.095627284418   110.33993466   190.48726498
 H     50  44  40     1.095825963686   110.30913097   187.97566730
 H     50  44  40     1.093080836340   112.09017500    67.98910205
 H     50  44  40     1.096339661385   110.25144400   306.93279531

---------------------------
INTERNAL COORDINATES (A.U.)
---------------------------
 C      0   0   0     0.000000000000     0.00000000     0.00000000
 C      1   0   0     2.854620325659     0.00000000     0.00000000
 C      2   1   0     2.898110335773   111.74438084     0.00000000
 H      2   1   3     2.084858075846   109.36262457   241.47561089
 H      2   1   3     2.070268027126   110.70471511   122.89197582
 C      1   2   3     2.793810024936   114.17765432    50.51403020
 C      6   1   2     2.857403636289   114.44887489   312.05419587
 C      3   2   1     2.880919661651   110.32978019   305.01544005
 H      7   6   1     2.079949400316   108.38427346   289.89915849
 H      7   6   1     2.069457638791   110.22045124   172.70874041
 H      8   3   2     2.071863658546   109.69638546   179.06218278
 H      8   3   2     2.079619535061   108.64440798   296.48208680
 O      3   2   1     2.709255145246   111.19067817   180.34715288
 H      3   2   1     2.076808623036   109.02900897    65.18791788
 C      1   2   3     2.558840462371   120.89433350   232.65458765
 C      6   1   2     2.528316005799   123.35130207   129.85359129
 H     16   6   1     2.053000564734   121.39093450     0.65953552
 H     16   6   1     2.054991511400   120.94056758   181.34153708
 C     15   1   2     2.729452685674   126.48975094   175.20173294
 H     15   1   2     2.058182055096   116.14420161   357.95937937
 C     19  15   1     2.552016620486   126.40337362   176.38611728
 H     19  15   1     2.055423248013   115.99796543   355.44671202
 C     21  19  15     2.849074994847   125.75170518   357.04216264
 C     23  21  19     2.911364884149   111.83707420   127.55235645
 H     23  21  19     2.066392021810   112.35556025     3.40686080
 H     23  21  19     2.082250542248   107.74375199   246.18676237
 C     24  23  21     2.900287013373   112.64006891    50.76601864
 H     24  23  21     2.073706282448   109.08583369   288.61116339
 H     24  23  21     2.072964495964   109.12535565   172.66652770
 C     27  24  23     2.901257762101   111.86401052   306.25445079
 H     27  24  23     2.069175371151   109.00331100   182.60569312
 H     27  24  23     2.079652310092   109.17010220    66.13591149
 C     21  19  15     2.830732945652   122.73598868   177.39670394
 H     33  21  19     2.089993222673   106.39750446   124.18629648
 C     33  21  19     2.880516312143   121.11033502     1.76290294
 H     13   3   2     1.826560688326   107.51717780    62.53651957
 C     35  33  21     2.925148939017   103.31656881   194.97600366
 H     35  33  21     2.069675557272   112.27649125    73.17776337
 H     35  33  21     2.070812177838   110.65833382   313.50422077
 C     30  27  24     2.941235587442   115.79502303   166.41384289
 H     37  35  33     2.066382858749   111.22933727   251.83994407
 H     37  35  33     2.072199869566   111.22503596   133.50639571
 H     40  30  27     2.081319151218   105.69435050   322.04453269
 C     40  30  27     2.900709062061   118.01937435    82.93750150
 C     30  27  24     2.900344977345   111.13184610   294.65934914
 H     45  30  27     2.068227192422   111.33076837    67.35481338
 H     45  30  27     2.069533016787   110.90354261   307.23764664
 H     45  30  27     2.068379774879   111.62521331   187.23242722
 H     44  40  30     2.081816987966   107.32328706    62.29776817
 C     44  40  30     2.910109333736   114.16875575   303.49116347
 C     44  40  30     2.861922016637   113.68060683   179.74246249
 C     51  44  40     2.518246091030   127.00713494    23.36620195
 H     51  44  40     2.061511307613   113.63747827   199.40230440
 H     52  51  44     2.062950724553   118.61210745   356.52399923
 C     52  51  44     2.853792944498   128.04756111   176.72757881
 C     55  52  51     2.907973622745   108.82105710   132.32575771
 C     55  52  51     2.915850245422   115.10664840     4.03116045
 H     55  52  51     2.085916144292   106.09434870   246.61830404
 H     57  55  52     2.077867466159   106.82975115   315.00975069
 C     57  55  52     2.895244006969   111.42167467   198.75914351
 C     57  55  52     2.896156938291   113.19569868    73.94759064
 H     56  55  52     2.070044595603   110.25285245    58.18878405
 H     56  55  52     2.069778024835   111.03093458   299.03036216
 H     56  55  52     2.068620930097   111.76751774   177.99956524
 H     60  57  55     2.070802661551   110.54745921   176.03346258
 H     60  57  55     2.070996212126   111.27358315    56.01891529
 H     60  57  55     2.071180233487   111.41298334   295.36782450
 H     61  57  55     2.071435059620   110.79351411    71.59199683
 H     61  57  55     2.068583377737   112.05355731   311.05593860
 H     61  57  55     2.070435512401   110.33993466   190.48726498
 H     50  44  40     2.070810961807   110.30913097   187.97566730
 H     50  44  40     2.065623422921   112.09017500    67.98910205
 H     50  44  40     2.071781709773   110.25144400   306.93279531

---------------------
BASIS SET INFORMATION
---------------------
There are 3 groups of distinct atoms

 Group   1 Type C   : 7s4p contracted to 4s3p pattern {4111/211}
 Group   2 Type H   : 5s contracted to 3s pattern {311}
 Group   3 Type O   : 7s4p contracted to 4s3p pattern {4111/211}

Atom   0C    basis set group =>   1
Atom   1C    basis set group =>   1
Atom   2C    basis set group =>   1
Atom   3H    basis set group =>   2
Atom   4H    basis set group =>   2
Atom   5C    basis set group =>   1
Atom   6C    basis set group =>   1
Atom   7C    basis set group =>   1
Atom   8H    basis set group =>   2
Atom   9H    basis set group =>   2
Atom  10H    basis set group =>   2
Atom  11H    basis set group =>   2
Atom  12O    basis set group =>   3
Atom  13H    basis set group =>   2
Atom  14C    basis set group =>   1
Atom  15C    basis set group =>   1
Atom  16H    basis set group =>   2
Atom  17H    basis set group =>   2
Atom  18C    basis set group =>   1
Atom  19H    basis set group =>   2
Atom  20C    basis set group =>   1
Atom  21H    basis set group =>   2
Atom  22C    basis set group =>   1
Atom  23C    basis set group =>   1
Atom  24H    basis set group =>   2
Atom  25H    basis set group =>   2
Atom  26C    basis set group =>   1
Atom  27H    basis set group =>   2
Atom  28H    basis set group =>   2
Atom  29C    basis set group =>   1
Atom  30H    basis set group =>   2
Atom  31H    basis set group =>   2
Atom  32C    basis set group =>   1
Atom  33H    basis set group =>   2
Atom  34C    basis set group =>   1
Atom  35H    basis set group =>   2
Atom  36C    basis set group =>   1
Atom  37H    basis set group =>   2
Atom  38H    basis set group =>   2
Atom  39C    basis set group =>   1
Atom  40H    basis set group =>   2
Atom  41H    basis set group =>   2
Atom  42H    basis set group =>   2
Atom  43C    basis set group =>   1
Atom  44C    basis set group =>   1
Atom  45H    basis set group =>   2
Atom  46H    basis set group =>   2
Atom  47H    basis set group =>   2
Atom  48H    basis set group =>   2
Atom  49C    basis set group =>   1
Atom  50C    basis set group =>   1
Atom  51C    basis set group =>   1
Atom  52H    basis set group =>   2
Atom  53H    basis set group =>   2
Atom  54C    basis set group =>   1
Atom  55C    basis set group =>   1
Atom  56C    basis set group =>   1
Atom  57H    basis set group =>   2
Atom  58H    basis set group =>   2
Atom  59C    basis set group =>   1
Atom  60C    basis set group =>   1
Atom  61H    basis set group =>   2
Atom  62H    basis set group =>   2
Atom  63H    basis set group =>   2
Atom  64H    basis set group =>   2
Atom  65H    basis set group =>   2
Atom  66H    basis set group =>   2
Atom  67H    basis set group =>   2
Atom  68H    basis set group =>   2
Atom  69H    basis set group =>   2
Atom  70H    basis set group =>   2
Atom  71H    basis set group =>   2
Atom  72H    basis set group =>   2

-------------------------
BASIS SET IN INPUT FORMAT
-------------------------

 # Basis set for element : H 
 NewGTO H 
 S 3 
   1    1357.7500000000      0.0012928364
   2      54.3100000000      0.0588280685
   3       4.3448000000      0.9761499708
 S 1 
   1       0.6604910000      1.0000000000
 S 1 
   1       0.1366870000      1.0000000000
  end;

 # Basis set for element : C 
 NewGTO C 
 S 4 
   1  139534.0000000000      0.0001655246
   2    5581.3600000000      0.0074486101
   3     446.5090000000      0.1285821065
   4      67.4620000000      0.9218029311
 S 1 
   1      15.0674000000      1.0000000000
 S 1 
   1       3.9387600000      1.0000000000
 S 1 
   1       0.2999150000      1.0000000000
 P 2 
   1      28.3900000000      0.0816325586
   2       4.3676900000      0.9660360576
 P 1 
   1       0.8698170000      1.0000000000
 P 1 
   1       0.1889340000      1.0000000000
  end;

 # Basis set for element : O 
 NewGTO O 
 S 4 
   1  253789.0000000000      0.0001641076
   2   10151.6000000000      0.0074010921
   3     812.1250000000      0.1277711901
   4     122.6930000000      0.9223372164
 S 1 
   1      27.5608000000      1.0000000000
 S 1 
   1       7.3172600000      1.0000000000
 S 1 
   1       0.5792400000      1.0000000000
 P 2 
   1      53.4157000000      0.0793786106
   2       8.2177900000      0.9670506337
 P 1 
   1       1.6754400000      1.0000000000
 P 1 
   1       0.3506720000      1.0000000000
  end;

---------------------------------
AUXILIARY/J BASIS SET INFORMATION
---------------------------------
There are 3 groups of distinct atoms

 Group   1 Type C   : 12s5p4d2f1g contracted to 6s4p3d1f1g pattern {711111/2111/211/2/1}
 Group   2 Type H   : 5s2p1d contracted to 3s1p1d pattern {311/2/1}
 Group   3 Type O   : 12s5p4d2f1g contracted to 6s4p3d1f1g pattern {711111/2111/211/2/1}

Atom   0C    basis set group =>   1
Atom   1C    basis set group =>   1
Atom   2C    basis set group =>   1
Atom   3H    basis set group =>   2
Atom   4H    basis set group =>   2
Atom   5C    basis set group =>   1
Atom   6C    basis set group =>   1
Atom   7C    basis set group =>   1
Atom   8H    basis set group =>   2
Atom   9H    basis set group =>   2
Atom  10H    basis set group =>   2
Atom  11H    basis set group =>   2
Atom  12O    basis set group =>   3
Atom  13H    basis set group =>   2
Atom  14C    basis set group =>   1
Atom  15C    basis set group =>   1
Atom  16H    basis set group =>   2
Atom  17H    basis set group =>   2
Atom  18C    basis set group =>   1
Atom  19H    basis set group =>   2
Atom  20C    basis set group =>   1
Atom  21H    basis set group =>   2
Atom  22C    basis set group =>   1
Atom  23C    basis set group =>   1
Atom  24H    basis set group =>   2
Atom  25H    basis set group =>   2
Atom  26C    basis set group =>   1
Atom  27H    basis set group =>   2
Atom  28H    basis set group =>   2
Atom  29C    basis set group =>   1
Atom  30H    basis set group =>   2
Atom  31H    basis set group =>   2
Atom  32C    basis set group =>   1
Atom  33H    basis set group =>   2
Atom  34C    basis set group =>   1
Atom  35H    basis set group =>   2
Atom  36C    basis set group =>   1
Atom  37H    basis set group =>   2
Atom  38H    basis set group =>   2
Atom  39C    basis set group =>   1
Atom  40H    basis set group =>   2
Atom  41H    basis set group =>   2
Atom  42H    basis set group =>   2
Atom  43C    basis set group =>   1
Atom  44C    basis set group =>   1
Atom  45H    basis set group =>   2
Atom  46H    basis set group =>   2
Atom  47H    basis set group =>   2
Atom  48H    basis set group =>   2
Atom  49C    basis set group =>   1
Atom  50C    basis set group =>   1
Atom  51C    basis set group =>   1
Atom  52H    basis set group =>   2
Atom  53H    basis set group =>   2
Atom  54C    basis set group =>   1
Atom  55C    basis set group =>   1
Atom  56C    basis set group =>   1
Atom  57H    basis set group =>   2
Atom  58H    basis set group =>   2
Atom  59C    basis set group =>   1
Atom  60C    basis set group =>   1
Atom  61H    basis set group =>   2
Atom  62H    basis set group =>   2
Atom  63H    basis set group =>   2
Atom  64H    basis set group =>   2
Atom  65H    basis set group =>   2
Atom  66H    basis set group =>   2
Atom  67H    basis set group =>   2
Atom  68H    basis set group =>   2
Atom  69H    basis set group =>   2
Atom  70H    basis set group =>   2
Atom  71H    basis set group =>   2
Atom  72H    basis set group =>   2

-------------------------------------
AUXILIARY/J BASIS SET IN INPUT FORMAT
-------------------------------------

 # Auxiliary/J basis set for element : H 
 NewAuxJGTO H 
 S 3 
   1      15.6752927000      0.1007184237
   2       3.6063578000      0.3404257499
   3       1.2080016000      0.6491996172
 S 1 
   1       0.4726794000      1.0000000000
 S 1 
   1       0.2018100000      1.0000000000
 P 2 
   1       2.0281365000      0.5596620919
   2       0.5358730000      0.5596620919
 D 1 
   1       2.2165124000      1.0000000000
  end;

 # Auxiliary/J basis set for element : C 
 NewAuxJGTO C 
 S 7 
   1    1861.0916331000      0.0134602335
   2     642.9939764000      0.0299160374
   3     235.1105725000      0.1008649584
   4      90.7028894000      0.2370970548
   5      36.7794552000      0.3924037254
   6      15.6046273000      0.3195862154
   7       6.8907294000      0.0530104441
 S 1 
   1       3.1478850000     -1.0000000000
 S 1 
   1       1.4777287000      1.0000000000
 S 1 
   1       0.7076466000      1.0000000000
 S 1 
   1       0.3430122000      1.0000000000
 S 1 
   1       0.1669453000      1.0000000000
 P 2 
   1      13.5472892000     -0.6769313712
   2       5.4669419000     -0.3779500978
 P 1 
   1       2.1751721000      1.0000000000
 P 1 
   1       0.8582194000      1.0000000000
 P 1 
   1       0.3376720000      1.0000000000
 D 2 
   1       5.9287253000     -0.3533329857
   2       1.9809209000     -0.7456525731
 D 1 
   1       0.8055417000     -1.0000000000
 D 1 
   1       0.3531244000     -1.0000000000
 F 2 
   1       1.6755626000      0.6311076882
   2       0.5997536000      0.4968166032
 G 1 
   1       1.0024600000     -1.0000000000
  end;

 # Auxiliary/J basis set for element : O 
 NewAuxJGTO O 
 S 7 
   1    2876.8216605000      0.0168151159
   2    1004.7443032000      0.0340137548
   3     369.7579954000      0.1194951309
   4     142.9442404000      0.2664627624
   5      57.8366425000      0.4202764046
   6      24.3864983000      0.2765077335
   7      10.6622662000      0.0057008815
 S 1 
   1       4.8070437000     -1.0000000000
 S 1 
   1       2.2210770000      1.0000000000
 S 1 
   1       1.0447795000      1.0000000000
 S 1 
   1       0.4968425000      1.0000000000
 S 1 
   1       0.2371384000      1.0000000000
 P 2 
   1      64.2613382000     -0.2731534179
   2      16.3006076000     -0.8168011598
 P 1 
   1       4.3550542000      1.0000000000
 P 1 
   1       1.2019554000      1.0000000000
 P 1 
   1       0.3354196000      1.0000000000
 D 2 
   1       9.2146611000     -0.4661230638
   2       2.8435251000     -0.6600908911
 D 1 
   1       0.9955759000     -1.0000000000
 D 1 
   1       0.3649441000     -1.0000000000
 F 2 
   1       2.6420115000      0.5931563945
   2       0.7345613000      0.5931563945
 G 1 
   1       1.3931000000     -1.0000000000
  end;



           ************************************************************
           *        Program running with 4 parallel MPI-processes     *
           *              working on a common directory               *
           ************************************************************
------------------------------------------------------------------------------
                           ORCA GTO INTEGRAL CALCULATION
                           -- RI-GTO INTEGRALS CHOSEN --
------------------------------------------------------------------------------
------------------------------------------------------------------------------
                   ___                                                        
                  /   \      - P O W E R E D   B Y -                         
                 /     \                                                     
                 |  |  |   _    _      __       _____    __    __             
                 |  |  |  | |  | |    /  \     |  _  \  |  |  /  |          
                  \  \/   | |  | |   /    \    | | | |  |  | /  /          
                 / \  \   | |__| |  /  /\  \   | |_| |  |  |/  /          
                |  |  |   |  __  | /  /__\  \  |    /   |      \           
                |  |  |   | |  | | |   __   |  |    \   |  |\   \          
                \     /   | |  | | |  |  |  |  | |\  \  |  | \   \       
                 \___/    |_|  |_| |__|  |__|  |_| \__\ |__|  \__/        
                                                                              
                      - O R C A' S   B I G   F R I E N D -                    
                                      &                                       
                       - I N T E G R A L  F E E D E R -                       
                                                                              
 v1 FN, 2020, v2 2021                                                         
------------------------------------------------------------------------------


Reading SHARK input file inpJ.SHARKINP.tmp ... ok
----------------------
SHARK INTEGRAL PACKAGE
----------------------

Number of atoms                             ...     73
Number of basis functions                   ...    509
Number of shells                            ...    335
Maximum angular momentum                    ...      1
Integral batch strategy                     ... SHARK/LIBINT Hybrid
RI-J (if used) integral strategy            ... SPLIT-RIJ (Revised 2003 algorithm where possible)
Printlevel                                  ...      1
Contraction scheme used                     ... SEGMENTED contraction
Coulomb Range Separation                    ... NOT USED
Exchange Range Separation                   ... NOT USED
Finite Nucleus Model                        ... NOT USED
Auxiliary Coulomb fitting basis             ... AVAILABLE
   # of basis functions in Aux-J            ...   1905
   # of shells in Aux-J                     ...    655
   Maximum angular momentum in Aux-J        ...      4
Auxiliary J/K fitting basis                 ... NOT available
Auxiliary Correlation fitting basis         ... NOT available
Auxiliary 'external' fitting basis          ... NOT available
Integral threshold                          ...     3.000000e-11
Primitive cut-off                           ...     1.000000e-12
Primitive pair pre-selection threshold      ...     1.000000e-12

Calculating pre-screening integrals         ... done (  0.0 sec) Dimension = 335
Organizing shell pair data                  ... done (  0.1 sec)
Shell pair information
Total number of shell pairs                 ...     56280
Shell pairs after pre-screening             ...     21803
Total number of primitive shell pairs       ...    145865
Primitive shell pairs kept                  ...     37468
          la=0 lb=0:  10980 shell pairs
          la=1 lb=0:   8959 shell pairs
          la=1 lb=1:   1864 shell pairs

Calculating one electron integrals          ... done (  0.0 sec)
Calculating RI/J V-Matrix + Cholesky decomp.... done (  0.1 sec)
Calculating Nuclear repulsion               ... done (  0.0 sec) ENN=   2773.193137672711 Eh

SHARK setup successfully completed in   0.4 seconds

Maximum memory used throughout the entire GTOINT-calculation: 46.3 MB


           ************************************************************
           *        Program running with 4 parallel MPI-processes     *
           *              working on a common directory               *
           ************************************************************
-------------------------------------------------------------------------------
                                 ORCA SCF
-------------------------------------------------------------------------------

------------
SCF SETTINGS
------------
Hamiltonian:
 Density Functional     Method          .... DFT(GTOs)
 Exchange Functional    Exchange        .... PBE
   PBE kappa parameter   XKappa         ....  0.804000
   PBE mue parameter    XMuePBE         ....  0.219520
 Correlation Functional Correlation     .... PBE
   PBE beta parameter  CBetaPBE         ....  0.066725
 LDA part of GGA corr.  LDAOpt          .... PW91-LDA
 Gradients option       PostSCFGGA      .... off
 Hybrid DFT is turned on
   Fraction HF Exchange ScalHFX         ....  0.250000
   Scaling of DF-GGA-X  ScalDFX         ....  0.750000
   Scaling of DF-GGA-C  ScalDFC         ....  1.000000
   Scaling of DF-LDA-C  ScalLDAC        ....  1.000000
   Perturbative correction              ....  0.000000
   Density functional embedding theory  .... OFF
   NL short-range parameter             ....  6.900000
 RI-approximation to the Coulomb term is turned on
   Number of AuxJ basis functions       .... 1905
   RIJ-COSX (HFX calculated with COS-X)).... on


General Settings:
 Integral files         IntName         .... inpJ
 Hartree-Fock type      HFTyp           .... RHF
 Total Charge           Charge          ....    0
 Multiplicity           Mult            ....    1
 Number of Electrons    NEL             ....  220
 Basis Dimension        Dim             ....  509
 Nuclear Repulsion      ENuc            ....   2773.1931376727 Eh

Convergence Acceleration:
 DIIS                   CNVDIIS         .... on
   Start iteration      DIISMaxIt       ....    12
   Startup error        DIISStart       ....  0.200000
   # of expansion vecs  DIISMaxEq       ....     5
   Bias factor          DIISBfac        ....   1.050
   Max. coefficient     DIISMaxC        ....  10.000
 Trust-Rad. Augm. Hess. CNVTRAH         .... auto
   Auto Start mean grad. ratio tolernc. ....  1.125000
   Auto Start start iteration           ....    20
   Auto Start num. interpolation iter.  ....    10
   Max. Number of Micro iterations      ....    16
   Max. Number of Macro iterations      .... Maxiter - #DIIS iter
   Number of Davidson start vectors     ....     2
   Converg. threshold I  (grad. norm)   ....   1.000e-04
   Converg. threshold II (energy diff.) ....   1.000e-07
   Grad. Scal. Fac. for Micro threshold ....   0.100
   Minimum threshold for Micro iter.    ....   0.010
   NR start threshold (gradient norm)   ....   0.001
   Initial trust radius                 ....   0.400
   Minimum AH scaling param. (alpha)    ....   1.000
   Maximum AH scaling param. (alpha)    .... 1000.000
   Orbital update algorithm             .... Taylor
   White noise on init. David. guess    .... on
   Maximum white noise                  ....   0.010
   Quad. conv. algorithm                .... NR
 SOSCF                  CNVSOSCF        .... off
 Level Shifting         CNVShift        .... on
   Level shift para.    LevelShift      ....    0.2500
   Turn off err/grad.   ShiftErr        ....    0.0010
 Zerner damping         CNVZerner       .... off
 Static damping         CNVDamp         .... on
   Fraction old density DampFac         ....    0.7000
   Max. Damping (<1)    DampMax         ....    0.9800
   Min. Damping (>=0)   DampMin         ....    0.0000
   Turn off err/grad.   DampErr         ....    0.1000
 Fernandez-Rico         CNVRico         .... off

SCF Procedure:
 Maximum # iterations   MaxIter         ....   125
 SCF integral mode      SCFMode         .... Direct
   Integral package                     .... SHARK and LIBINT hybrid scheme
 Reset frequency        DirectResetFreq ....    20
 Integral Threshold     Thresh          ....  3.000e-11 Eh
 Primitive CutOff       TCut            ....  1.000e-12 Eh

Convergence Tolerance:
 Convergence Check Mode ConvCheckMode   .... Total+1el-Energy
 Convergence forced     ConvForced      .... 0
 Energy Change          TolE            ....  1.000e-07 Eh
 1-El. energy change                    ....  1.000e-04 Eh
 DIIS Error             TolErr          ....  1.000e-07


Diagonalization of the overlap matrix:
Smallest eigenvalue                        ... 7.549e-03
Time for diagonalization                   ...    0.028 sec
Threshold for overlap eigenvalues          ... 1.000e-08
Number of eigenvalues below threshold      ... 0
Time for construction of square roots      ...    0.028 sec
Total time needed                          ...    0.057 sec

Time for model grid setup =    0.735 sec

------------------------------
INITIAL GUESS: MODEL POTENTIAL
------------------------------
Loading Hartree-Fock densities                     ... done
Calculating cut-offs                               ... done
Initializing the effective Hamiltonian             ... done
Setting up the integral package (SHARK)            ... done
Starting the Coulomb interaction                   ... done (   0.4 sec)
Reading the grid                                   ... done
Mapping shells                                     ... done
Starting the XC term evaluation                    ... done (   0.1 sec)
  promolecular density results
     # of electrons  =    219.986608500
     EX              =   -164.434820396
     EC              =     -7.328040633
     EX+EC           =   -171.762861029
Transforming the Hamiltonian                       ... done (   0.0 sec)
Diagonalizing the Hamiltonian                      ... done (   0.0 sec)
Back transforming the eigenvectors                 ... done (   0.0 sec)
Now organizing SCF variables                       ... done
                      ------------------
                      INITIAL GUESS DONE (   1.3 sec)
                      ------------------
-------------------
DFT GRID GENERATION
-------------------

General Integration Accuracy     IntAcc      ... 4.388
Radial Grid Type                 RadialGrid  ... OptM3 with GC (2021)
Angular Grid (max. ang.)         AngularGrid ... 4 (Lebedev-302)
Angular grid pruning method      GridPruning ... 4 (adaptive)
Weight generation scheme         WeightScheme... Becke
Basis function cutoff            BFCut       ... 1.0000e-11
Integration weight cutoff        WCut        ... 1.0000e-14
Angular grids for H and He will be reduced by one unit
Partially contracted basis set               ... off
Rotationally invariant grid construction     ... off

Total number of grid points                  ...   309902
Total number of batches                      ...     4879
Average number of points per batch           ...       63
Average number of grid points per atom       ...     4245
Time for grid setup =    2.742 sec

--------------------
COSX GRID GENERATION
--------------------

GRIDX 1
-------
General Integration Accuracy     IntAcc      ... 3.816
Radial Grid Type                 RadialGrid  ... OptM3 with GC (2021)
Angular Grid (max. ang.)         AngularGrid ... 1 (Lebedev-50)
Angular grid pruning method      GridPruning ... 4 (adaptive)
Weight generation scheme         WeightScheme... Becke
Basis function cutoff            BFCut       ... 1.0000e-11
Integration weight cutoff        WCut        ... 1.0000e-14
Angular grids for H and He will be reduced by one unit
Partially contracted basis set               ... on
Rotationally invariant grid construction     ... off

Total number of grid points                  ...    39388
Total number of batches                      ...      656
Average number of points per batch           ...       60
Average number of grid points per atom       ...      540
UseSFitting                                  ... on

GRIDX 2
-------
General Integration Accuracy     IntAcc      ... 4.020
Radial Grid Type                 RadialGrid  ... OptM3 with GC (2021)
Angular Grid (max. ang.)         AngularGrid ... 2 (Lebedev-110)
Angular grid pruning method      GridPruning ... 4 (adaptive)
Weight generation scheme         WeightScheme... Becke
Basis function cutoff            BFCut       ... 1.0000e-11
Integration weight cutoff        WCut        ... 1.0000e-14
Angular grids for H and He will be reduced by one unit
Partially contracted basis set               ... on
Rotationally invariant grid construction     ... off

Total number of grid points                  ...    81393
Total number of batches                      ...     1306
Average number of points per batch           ...       62
Average number of grid points per atom       ...     1115
UseSFitting                                  ... on

GRIDX 3
-------
General Integration Accuracy     IntAcc      ... 4.338
Radial Grid Type                 RadialGrid  ... OptM3 with GC (2021)
Angular Grid (max. ang.)         AngularGrid ... 3 (Lebedev-194)
Angular grid pruning method      GridPruning ... 4 (adaptive)
Weight generation scheme         WeightScheme... Becke
Basis function cutoff            BFCut       ... 1.0000e-11
Integration weight cutoff        WCut        ... 1.0000e-14
Angular grids for H and He will be reduced by one unit
Partially contracted basis set               ... on
Rotationally invariant grid construction     ... off

Total number of grid points                  ...   176262
Total number of batches                      ...     2790
Average number of points per batch           ...       63
Average number of grid points per atom       ...     2415
UseSFitting                                  ... on

Time for X-Grid setup             =    2.695 sec


--------------------
CPCM SOLVATION MODEL
--------------------
CPCM parameters:
  Epsilon                                         ...       4.9000
  Refrac                                          ...       1.4500
  Rsolv                                           ...       1.3000
  Surface type                                    ... GAUSSIAN VDW
  Epsilon function type                           ...         CPCM
Radii:
 Radius for C  used is    3.8550 Bohr (=   2.0400 Ang.)
 Radius for H  used is    2.4944 Bohr (=   1.3200 Ang.)
 Radius for O  used is    3.4469 Bohr (=   1.8240 Ang.)
Calculating surface                               ...        done! (  0.0s)
GEPOL surface points                              ...         3621
GEPOL Volume                                      ...    3595.2646
GEPOL Surface-area                                ...    1779.3621
Calculating surface distance matrix               ...        done! (  0.1s)
Performing Cholesky decomposition & store         ...        done! (  0.5s)
Overall time for CPCM initialization              ...                 0.6s
--------------
SCF ITERATIONS
--------------
ITER       Energy         Delta-E        Max-DP      RMS-DP      [F,P]     Damp
               ***  Starting incremental Fock matrix formation  ***

  HOMO= 109 E= -3.891 eV LUMO=  7.789 eV gap=  11.680 eV
  0  -1165.0057061538   0.000000000000 0.09766471  0.00106357  0.1927607 0.7000

  HOMO= 109 E= -4.737 eV LUMO=  7.093 eV gap=  11.830 eV
  1  -1165.2242833909  -0.218577237071 0.06551756  0.00078282  0.0935791 0.7000
                               ***Turning on DIIS***

  HOMO= 109 E= -5.335 eV LUMO=  6.536 eV gap=  11.871 eV
  2  -1165.3250290324  -0.100745641540 0.10366632  0.00138610  0.0376773 0.0000

  HOMO= 109 E= -5.901 eV LUMO=  5.994 eV gap=  11.895 eV
  3  -1165.4690783806  -0.144049348150 0.05151211  0.00057111  0.0452587 0.0000

  HOMO= 109 E= -5.982 eV LUMO=  5.913 eV gap=  11.895 eV
  4  -1165.5046529286  -0.035574548019 0.01176673  0.00013448  0.0062614 0.0000

  HOMO= 109 E= -5.928 eV LUMO=  5.975 eV gap=  11.902 eV
  5  -1165.5055126146  -0.000859685979 0.00283447  0.00003809  0.0043216 0.0000

  HOMO= 109 E= -5.915 eV LUMO=  5.988 eV gap=  11.903 eV
  6  -1165.5055877512  -0.000075136636 0.00116366  0.00001161  0.0010779 0.0000

  HOMO= 109 E= -5.916 eV LUMO= -0.816 eV gap=   5.100 eV
  7  -1165.5055925297  -0.000004778533 0.00049498  0.00000594  0.0002248 0.0000
               *** Restarting incremental Fock matrix formation ***
                                   *** Resetting DIIS ***

  HOMO= 109 E= -5.916 eV LUMO= -0.815 eV gap=   5.101 eV
  8  -1165.5056983323  -0.000105802537 0.00039947  0.00000279  0.0001109 0.0000

  HOMO= 109 E= -5.916 eV LUMO= -0.815 eV gap=   5.101 eV
  9  -1165.5056983845  -0.000000052228 0.00012615  0.00000122  0.0001468 0.0000

  HOMO= 109 E= -5.916 eV LUMO= -0.815 eV gap=   5.101 eV
 10  -1165.5056984893  -0.000000104798 0.00006308  0.00000040  0.0000383 0.0000

  HOMO= 109 E= -5.916 eV LUMO= -0.815 eV gap=   5.101 eV
 11  -1165.5056985303  -0.000000041021 0.00002480  0.00000017  0.0000213 0.0000

  HOMO= 109 E= -5.916 eV LUMO= -0.815 eV gap=   5.101 eV
 12  -1165.5056985192   0.000000011098 0.00000709  0.00000005  0.0000035 0.0000
                 **** Energy Check signals convergence ****

               *****************************************************
               *                     SUCCESS                       *
               *           SCF CONVERGED AFTER  13 CYCLES          *
               *****************************************************

Old exchange energy                            =    -42.067510478 Eh
New exchange energy                            =    -42.067569989 Eh
Exchange energy change after final integration =     -0.000059510 Eh
Total energy after final integration           =  -1165.505758034 Eh
Final COS-X integration done in                =    14.118 sec

----------------
TOTAL SCF ENERGY
----------------

Total Energy       :        -1165.50575803 Eh          -31715.02404 eV

Components:
Nuclear Repulsion  :         2773.19313767 Eh           75462.42171 eV
Electronic Energy  :        -3938.69889571 Eh         -107177.44575 eV
One Electron Energy:        -7088.45055606 Eh         -192886.54579 eV
Two Electron Energy:         3149.75166036 Eh           85709.10004 eV
Max COSX asymmetry :            0.00000195 Eh               0.00005 eV
CPCM Dielectric    :           -0.01550387 Eh              -0.42188 eV

Virial components:
Potential Energy   :        -2322.40422177 Eh          -63195.83169 eV
Kinetic Energy     :         1156.89846374 Eh           31480.80765 eV
Virial Ratio       :            2.00743997


DFT components:
N(Alpha)           :      109.999982547216 electrons
N(Beta)            :      109.999982547216 electrons
N(Total)           :      219.999965094432 electrons
E(X)               :     -125.745647869650 Eh       
E(C)               :       -7.327858397145 Eh       
E(XC)              :     -133.073506266795 Eh       
DFET-embed. en.    :        0.000000000000 Eh       
CPCM Solvation Model Properties:
Surface-charge          :           -0.03430783
Charge-correction       :           -0.00005678 Eh              -0.00155 eV
Free-energy (cav+disp)  :  This term is not implemented in the current solvation scheme

---------------
SCF CONVERGENCE
---------------

  Last Energy change         ...   -4.0882e-09  Tolerance :   1.0000e-07
  Last MAX-Density change    ...    0.0000e+00  Tolerance :   1.0000e-05
  Last RMS-Density change    ...    0.0000e+00  Tolerance :   1.0000e-06
  Last DIIS Error            ...    2.4514e-06  Tolerance :   1.0000e-07

             **** THE GBW FILE WAS UPDATED (inpJ.gbw) ****
             **** DENSITY inpJ.scfp WAS UPDATED ****
             **** ENERGY FILE WAS UPDATED (inpJ.en.tmp) ****
             **** THE GBW FILE WAS UPDATED (inpJ.gbw) ****
             **** DENSITY inpJ.scfp WAS UPDATED ****
----------------
ORBITAL ENERGIES
----------------

  NO   OCC          E(Eh)            E(eV) 
   0   2.0000     -19.214906      -522.8642 
   1   2.0000     -10.301236      -280.3109 
   2   2.0000     -10.269348      -279.4432 
   3   2.0000     -10.266576      -279.3677 
   4   2.0000     -10.261531      -279.2305 
   5   2.0000     -10.256104      -279.0828 
   6   2.0000     -10.253219      -279.0043 
   7   2.0000     -10.251592      -278.9600 
   8   2.0000     -10.251311      -278.9524 
   9   2.0000     -10.249125      -278.8929 
  10   2.0000     -10.247137      -278.8388 
  11   2.0000     -10.245940      -278.8062 
  12   2.0000     -10.244880      -278.7774 
  13   2.0000     -10.243851      -278.7494 
  14   2.0000     -10.243748      -278.7465 
  15   2.0000     -10.243546      -278.7411 
  16   2.0000     -10.242905      -278.7236 
  17   2.0000     -10.242782      -278.7203 
  18   2.0000     -10.241792      -278.6933 
  19   2.0000     -10.240921      -278.6696 
  20   2.0000     -10.238974      -278.6167 
  21   2.0000     -10.233329      -278.4630 
  22   2.0000     -10.233207      -278.4597 
  23   2.0000     -10.232303      -278.4351 
  24   2.0000     -10.226510      -278.2775 
  25   2.0000     -10.226333      -278.2727 
  26   2.0000     -10.224613      -278.2259 
  27   2.0000     -10.221921      -278.1526 
  28   2.0000     -10.219844      -278.0961 
  29   2.0000      -1.045679       -28.4544 
  30   2.0000      -0.900438       -24.5022 
  31   2.0000      -0.883463       -24.0403 
  32   2.0000      -0.859773       -23.3956 
  33   2.0000      -0.845005       -22.9938 
  34   2.0000      -0.821391       -22.3512 
  35   2.0000      -0.813253       -22.1297 
  36   2.0000      -0.794606       -21.6223 
  37   2.0000      -0.794475       -21.6188 
  38   2.0000      -0.775912       -21.1136 
  39   2.0000      -0.757285       -20.6068 
  40   2.0000      -0.739958       -20.1353 
  41   2.0000      -0.734869       -19.9968 
  42   2.0000      -0.713470       -19.4145 
  43   2.0000      -0.701839       -19.0980 
  44   2.0000      -0.699265       -19.0280 
  45   2.0000      -0.693403       -18.8685 
  46   2.0000      -0.668716       -18.1967 
  47   2.0000      -0.661713       -18.0061 
  48   2.0000      -0.631738       -17.1905 
  49   2.0000      -0.621730       -16.9181 
  50   2.0000      -0.619245       -16.8505 
  51   2.0000      -0.610092       -16.6015 
  52   2.0000      -0.596480       -16.2311 
  53   2.0000      -0.587490       -15.9864 
  54   2.0000      -0.562433       -15.3046 
  55   2.0000      -0.541392       -14.7320 
  56   2.0000      -0.530678       -14.4405 
  57   2.0000      -0.528367       -14.3776 
  58   2.0000      -0.514779       -14.0078 
  59   2.0000      -0.509776       -13.8717 
  60   2.0000      -0.497864       -13.5476 
  61   2.0000      -0.491724       -13.3805 
  62   2.0000      -0.487893       -13.2762 
  63   2.0000      -0.480308       -13.0699 
  64   2.0000      -0.475706       -12.9446 
  65   2.0000      -0.472134       -12.8474 
  66   2.0000      -0.463736       -12.6189 
  67   2.0000      -0.457540       -12.4503 
  68   2.0000      -0.456384       -12.4188 
  69   2.0000      -0.449739       -12.2380 
  70   2.0000      -0.446269       -12.1436 
  71   2.0000      -0.439732       -11.9657 
  72   2.0000      -0.435987       -11.8638 
  73   2.0000      -0.430586       -11.7168 
  74   2.0000      -0.426102       -11.5948 
  75   2.0000      -0.417054       -11.3486 
  76   2.0000      -0.416173       -11.3246 
  77   2.0000      -0.410338       -11.1659 
  78   2.0000      -0.407950       -11.1009 
  79   2.0000      -0.404209       -10.9991 
  80   2.0000      -0.403508       -10.9800 
  81   2.0000      -0.400336       -10.8937 
  82   2.0000      -0.398282       -10.8378 
  83   2.0000      -0.388202       -10.5635 
  84   2.0000      -0.386920       -10.5286 
  85   2.0000      -0.385468       -10.4891 
  86   2.0000      -0.377975       -10.2852 
  87   2.0000      -0.374737       -10.1971 
  88   2.0000      -0.367752       -10.0071 
  89   2.0000      -0.367045        -9.9878 
  90   2.0000      -0.363643        -9.8952 
  91   2.0000      -0.358579        -9.7574 
  92   2.0000      -0.354309        -9.6412 
  93   2.0000      -0.343793        -9.3551 
  94   2.0000      -0.340795        -9.2735 
  95   2.0000      -0.337679        -9.1887 
  96   2.0000      -0.336266        -9.1503 
  97   2.0000      -0.332368        -9.0442 
  98   2.0000      -0.329687        -8.9712 
  99   2.0000      -0.326550        -8.8859 
 100   2.0000      -0.326166        -8.8754 
 101   2.0000      -0.323034        -8.7902 
 102   2.0000      -0.316328        -8.6077 
 103   2.0000      -0.313557        -8.5323 
 104   2.0000      -0.310417        -8.4469 
 105   2.0000      -0.299404        -8.1472 
 106   2.0000      -0.279760        -7.6127 
 107   2.0000      -0.274585        -7.4718 
 108   2.0000      -0.255136        -6.9426 
 109   2.0000      -0.217413        -5.9161 
 110   0.0000      -0.029953        -0.8151 
 111   0.0000       0.021646         0.5890 
 112   0.0000       0.028735         0.7819 
 113   0.0000       0.081876         2.2280 
 114   0.0000       0.091879         2.5002 
 115   0.0000       0.102403         2.7865 
 116   0.0000       0.104977         2.8566 
 117   0.0000       0.108245         2.9455 
 118   0.0000       0.112538         3.0623 
 119   0.0000       0.114648         3.1197 
 120   0.0000       0.118734         3.2309 
 121   0.0000       0.123312         3.3555 
 122   0.0000       0.127997         3.4830 
 123   0.0000       0.130250         3.5443 
 124   0.0000       0.133185         3.6241 
 125   0.0000       0.137929         3.7533 
 126   0.0000       0.140902         3.8341 
 127   0.0000       0.141751         3.8572 
 128   0.0000       0.143968         3.9176 
 129   0.0000       0.150416         4.0930 
 130   0.0000       0.154981         4.2172 
 131   0.0000       0.158106         4.3023 
 132   0.0000       0.161289         4.3889 
 133   0.0000       0.165107         4.4928 
 134   0.0000       0.166389         4.5277 
 135   0.0000       0.167653         4.5621 
 136   0.0000       0.171238         4.6596 
 137   0.0000       0.173840         4.7304 
 138   0.0000       0.175610         4.7786 
 139   0.0000       0.182346         4.9619 
 140   0.0000       0.183802         5.0015 
 141   0.0000       0.184694         5.0258 
 142   0.0000       0.186637         5.0787 
 143   0.0000       0.189352         5.1525 
 144   0.0000       0.192335         5.2337 
 145   0.0000       0.194889         5.3032 
 146   0.0000       0.197287         5.3684 
 147   0.0000       0.202098         5.4994 
 148   0.0000       0.202590         5.5128 
 149   0.0000       0.208151         5.6641 
 150   0.0000       0.220413         5.9977 
 151   0.0000       0.221023         6.0143 
 152   0.0000       0.224167         6.0999 
 153   0.0000       0.227701         6.1961 
 154   0.0000       0.231083         6.2881 
 155   0.0000       0.237352         6.4587 
 156   0.0000       0.240753         6.5512 
 157   0.0000       0.243409         6.6235 
 158   0.0000       0.247673         6.7395 
 159   0.0000       0.252564         6.8726 
 160   0.0000       0.257455         7.0057 
 161   0.0000       0.259691         7.0666 
 162   0.0000       0.262165         7.1339 
 163   0.0000       0.264940         7.2094 
 164   0.0000       0.267838         7.2882 
 165   0.0000       0.276360         7.5201 
 166   0.0000       0.277561         7.5528 
 167   0.0000       0.285730         7.7751 
 168   0.0000       0.291104         7.9213 
 169   0.0000       0.294251         8.0070 
 170   0.0000       0.296399         8.0654 
 171   0.0000       0.299933         8.1616 
 172   0.0000       0.306271         8.3341 
 173   0.0000       0.314208         8.5500 
 174   0.0000       0.317238         8.6325 
 175   0.0000       0.323707         8.8085 
 176   0.0000       0.330876         9.0036 
 177   0.0000       0.332074         9.0362 
 178   0.0000       0.350004         9.5241 
 179   0.0000       0.356086         9.6896 
 180   0.0000       0.366974         9.9859 
 181   0.0000       0.378759        10.3066 
 182   0.0000       0.383190        10.4271 
 183   0.0000       0.413870        11.2620 
 184   0.0000       0.421120        11.4593 
 185   0.0000       0.464054        12.6275 
 186   0.0000       0.486959        13.2508 
 187   0.0000       0.500036        13.6067 
 188   0.0000       0.512106        13.9351 
 189   0.0000       0.521646        14.1947 
 190   0.0000       0.524101        14.2615 
 191   0.0000       0.525110        14.2890 
 192   0.0000       0.542526        14.7629 
 193   0.0000       0.544243        14.8096 
 194   0.0000       0.567166        15.4334 
 195   0.0000       0.575812        15.6686 
 196   0.0000       0.582127        15.8405 
 197   0.0000       0.586055        15.9474 
 198   0.0000       0.594796        16.1852 
 199   0.0000       0.609485        16.5849 
 200   0.0000       0.619956        16.8699 
 201   0.0000       0.623737        16.9727 
 202   0.0000       0.626221        17.0403 
 203   0.0000       0.628116        17.0919 
 204   0.0000       0.639629        17.4052 
 205   0.0000       0.645891        17.5756 
 206   0.0000       0.650633        17.7046 
 207   0.0000       0.660988        17.9864 
 208   0.0000       0.662197        18.0193 
 209   0.0000       0.665574        18.1112 
 210   0.0000       0.672217        18.2920 
 211   0.0000       0.679927        18.5018 
 212   0.0000       0.695025        18.9126 
 213   0.0000       0.696179        18.9440 
 214   0.0000       0.701708        19.0944 
 215   0.0000       0.710440        19.3321 
 216   0.0000       0.712477        19.3875 
 217   0.0000       0.716611        19.5000 
 218   0.0000       0.722507        19.6604 
 219   0.0000       0.725374        19.7384 
 220   0.0000       0.727387        19.7932 
 221   0.0000       0.732756        19.9393 
 222   0.0000       0.735086        20.0027 
 223   0.0000       0.741541        20.1784 
 224   0.0000       0.746528        20.3140 
 225   0.0000       0.749227        20.3875 
 226   0.0000       0.750047        20.4098 
 227   0.0000       0.756099        20.5745 
 228   0.0000       0.759770        20.6744 
 229   0.0000       0.762729        20.7549 
 230   0.0000       0.765831        20.8393 
 231   0.0000       0.776773        21.1371 
 232   0.0000       0.777291        21.1512 
 233   0.0000       0.779644        21.2152 
 234   0.0000       0.788147        21.4466 
 235   0.0000       0.795241        21.6396 
 236   0.0000       0.798781        21.7359 
 237   0.0000       0.803386        21.8613 
 238   0.0000       0.818442        22.2709 
 239   0.0000       0.821573        22.3561 
 240   0.0000       0.822018        22.3682 
 241   0.0000       0.828941        22.5566 
 242   0.0000       0.834500        22.7079 
 243   0.0000       0.840974        22.8841 
 244   0.0000       0.855894        23.2900 
 245   0.0000       0.858434        23.3592 
 246   0.0000       0.863211        23.4892 
 247   0.0000       0.866183        23.5700 
 248   0.0000       0.871488        23.7144 
 249   0.0000       0.873112        23.7586 
 250   0.0000       0.875236        23.8164 
 251   0.0000       0.876291        23.8451 
 252   0.0000       0.877989        23.8913 
 253   0.0000       0.880963        23.9722 
 254   0.0000       0.880992        23.9730 
 255   0.0000       0.885549        24.0970 
 256   0.0000       0.887631        24.1537 
 257   0.0000       0.889210        24.1966 
 258   0.0000       0.897107        24.4115 
 259   0.0000       0.899683        24.4816 
 260   0.0000       0.902491        24.5580 
 261   0.0000       0.905124        24.6297 
 262   0.0000       0.911150        24.7937 
 263   0.0000       0.915160        24.9028 
 264   0.0000       0.919721        25.0269 
 265   0.0000       0.923421        25.1276 
 266   0.0000       0.926009        25.1980 
 267   0.0000       0.931225        25.3399 
 268   0.0000       0.934315        25.4240 
 269   0.0000       0.939098        25.5541 
 270   0.0000       0.941765        25.6267 
 271   0.0000       0.943912        25.6851 
 272   0.0000       0.946247        25.7487 
 273   0.0000       0.946890        25.7662 
 274   0.0000       0.955117        25.9901 
 275   0.0000       0.960562        26.1382 
 276   0.0000       0.964931        26.2571 
 277   0.0000       0.970256        26.4020 
 278   0.0000       0.977405        26.5965 
 279   0.0000       0.980293        26.6751 
 280   0.0000       0.993660        27.0389 
 281   0.0000       0.999481        27.1973 
 282   0.0000       1.008683        27.4476 
 283   0.0000       1.009103        27.4591 
 284   0.0000       1.019558        27.7436 
 285   0.0000       1.029485        28.0137 
 286   0.0000       1.035576        28.1795 
 287   0.0000       1.043978        28.4081 
 288   0.0000       1.055859        28.7314 
 289   0.0000       1.064844        28.9759 
 290   0.0000       1.073945        29.2235 
 291   0.0000       1.079657        29.3790 
 292   0.0000       1.086137        29.5553 
 293   0.0000       1.091821        29.7100 
 294   0.0000       1.096623        29.8406 
 295   0.0000       1.111076        30.2339 
 296   0.0000       1.116765        30.3887 
 297   0.0000       1.140599        31.0373 
 298   0.0000       1.144997        31.1570 
 299   0.0000       1.162493        31.6330 
 300   0.0000       1.166729        31.7483 
 301   0.0000       1.184118        32.2215 
 302   0.0000       1.209331        32.9076 
 303   0.0000       1.214494        33.0481 
 304   0.0000       1.228609        33.4321 
 305   0.0000       1.234444        33.5909 
 306   0.0000       1.244265        33.8582 
 307   0.0000       1.255847        34.1733 
 308   0.0000       1.295480        35.2518 
 309   0.0000       1.302618        35.4460 
 310   0.0000       1.312230        35.7076 
 311   0.0000       1.338040        36.4099 
 312   0.0000       1.360007        37.0077 
 313   0.0000       1.372356        37.3437 
 314   0.0000       1.406299        38.2673 
 315   0.0000       1.492185        40.6044 
 316   0.0000       1.525897        41.5218 
 317   0.0000       1.565049        42.5871 
 318   0.0000       1.606115        43.7046 
 319   0.0000       1.657399        45.1001 
 320   0.0000       6.207917       168.9260 
 321   0.0000       6.239872       169.7956 
 322   0.0000       6.252238       170.1321 
 323   0.0000       6.269817       170.6104 
 324   0.0000       6.276753       170.7991 
 325   0.0000       6.291212       171.1926 
 326   0.0000       6.294396       171.2792 
 327   0.0000       6.311258       171.7381 
 328   0.0000       6.318063       171.9232 
 329   0.0000       6.331506       172.2890 
 330   0.0000       6.342679       172.5931 
 331   0.0000       6.351278       172.8271 
 332   0.0000       6.362948       173.1446 
 333   0.0000       6.383677       173.7087 
 334   0.0000       6.385886       173.7688 
 335   0.0000       6.393287       173.9702 
 336   0.0000       6.406418       174.3275 
 337   0.0000       6.418202       174.6482 
 338   0.0000       6.421532       174.7388 
 339   0.0000       6.429767       174.9629 
 340   0.0000       6.433399       175.0617 
 341   0.0000       6.440311       175.2498 
 342   0.0000       6.454066       175.6241 
 343   0.0000       6.465587       175.9376 
 344   0.0000       6.468855       176.0265 
 345   0.0000       6.477282       176.2558 
 346   0.0000       6.481228       176.3632 
 347   0.0000       6.494166       176.7153 
 348   0.0000       6.508629       177.1088 
 349   0.0000       6.511668       177.1915 
 350   0.0000       6.520746       177.4385 
 351   0.0000       6.525317       177.5629 
 352   0.0000       6.539475       177.9482 
 353   0.0000       6.543955       178.0701 
 354   0.0000       6.549471       178.2202 
 355   0.0000       6.555170       178.3752 
 356   0.0000       6.558374       178.4624 
 357   0.0000       6.563067       178.5901 
 358   0.0000       6.568389       178.7349 
 359   0.0000       6.571900       178.8305 
 360   0.0000       6.584237       179.1662 
 361   0.0000       6.588975       179.2951 
 362   0.0000       6.591359       179.3600 
 363   0.0000       6.595858       179.4824 
 364   0.0000       6.603928       179.7020 
 365   0.0000       6.607462       179.7982 
 366   0.0000       6.611768       179.9154 
 367   0.0000       6.614340       179.9853 
 368   0.0000       6.616415       180.0418 
 369   0.0000       6.618962       180.1111 
 370   0.0000       6.622395       180.2045 
 371   0.0000       6.623968       180.2473 
 372   0.0000       6.625771       180.2964 
 373   0.0000       6.634013       180.5207 
 374   0.0000       6.641803       180.7327 
[...]
     69 H        0.000      0.000      0.000      0.000      0.000      0.000
     70 H        0.000      0.000      0.000      0.000      0.003      0.036
     71 H        0.000      0.000      0.000     -0.000      0.001      0.019
     72 H        0.000      0.000      0.000      0.000      0.001      0.015
                 25 H       27 H       28 H       30 H       31 H       33 H  
      3 H        2.494     -0.106      0.067      0.000      0.000      2.407
      4 H        0.112     -0.004      0.004      0.008      0.000      0.099
      8 H       -0.341      0.012      0.000      0.000      0.000     -0.310
      9 H        0.000      0.000      0.000      0.000      0.000      0.135
     10 H        0.000      0.000      0.000      0.000      0.000      0.000
     11 H        0.000      0.000      0.000      0.000      0.000      0.000
     13 H       -0.101      0.004     -0.004      0.000      0.000     -0.104
     16 H       -0.372      0.012     -0.006     -0.022     -0.001     -0.342
     17 H       -0.364      0.011      0.000      0.000      0.000     -0.317
     19 H        0.931     -0.048      0.022      0.086      0.007      1.138
     21 H       -2.837      0.196      0.637     -0.217     -0.027     -2.585
     24 H      -14.068      4.353      2.275      0.724     -0.500     -0.131
     25 H        0.000     12.995      5.279     -0.632     -0.351     -2.344
     27 H       12.995      0.000    -13.604      3.990     13.008      0.069
     28 H        5.279    -13.604      0.000      2.642      4.124      0.281
     30 H       -0.632      3.990      2.642      0.000    -12.996      0.008
     31 H       -0.351     13.008      4.124    -12.996      0.000     -0.326
     33 H       -2.344      0.069      0.281      0.008     -0.326      0.000
     35 H        0.000      0.000      0.000      0.000      0.000      0.000
     37 H        0.265      0.007     -0.034      0.542     -0.039      6.200
     38 H        0.200      0.002     -0.029     -0.022      0.119     12.263
     40 H       -0.014      0.022      0.138     -0.002     -0.038     -0.239
     41 H        0.012      0.019     -0.029      0.011      0.090     -0.382
     42 H       -0.019      0.006     -0.005     -0.263     -0.388     -0.200
     45 H       -0.017     -0.209      0.023     -0.203     -0.478     -0.157
     46 H        0.013      0.039      0.064     -0.332      0.031      0.919
     47 H       -0.061     -0.120     -0.148     -0.162      1.807     -0.469
     48 H       -0.015      0.031      0.022      0.036      0.017     -0.003
     52 H       -0.002     -0.000      0.009     -0.010      0.002      0.017
     53 H       -0.000      0.000     -0.001      0.000     -0.001     -0.002
     57 H        0.000      0.000      0.000     -0.005     -0.001     -0.000
     58 H        0.000      0.000      0.000      0.000      0.000      0.000
     61 H        0.000      0.000      0.000      0.000      0.000     -0.000
     62 H        0.000      0.000      0.000      0.000      0.000     -0.000
     63 H        0.000      0.000      0.000      0.000      0.000     -0.000
     64 H        0.000      0.000      0.000      0.000      0.000      0.000
     65 H        0.000      0.000      0.000      0.000      0.000      0.000
     66 H        0.000      0.000      0.000      0.000      0.000      0.000
     67 H        0.000      0.000      0.000      0.000      0.000      0.000
     68 H        0.000      0.000      0.000     -0.000      0.000     -0.000
     69 H        0.000      0.000      0.000      0.000      0.000      0.000
     70 H        0.000     -0.008     -0.011      0.052     -0.058      0.007
     71 H        0.003     -0.003     -0.007     -0.459     -0.098      0.004
     72 H        0.000     -0.004     -0.005      0.040      0.001      0.002
                 35 H       37 H       38 H       40 H       41 H       42 H  
      3 H       -0.076     -0.044     -0.040      0.000      0.000      0.000
      4 H       -0.165     -0.002     -0.002      0.000      0.000      0.000
      8 H        0.021      0.006      0.004      0.000      0.001      0.000
      9 H       -0.091     -0.002     -0.001      0.000     -0.000      0.000
     10 H       -0.179      0.000     -0.001      0.000      0.000      0.000
     11 H       -0.102     -0.000     -0.000      0.000      0.000      0.000
     13 H       13.739      0.002      0.001      0.000      0.000      0.000
     16 H        0.005      0.007      0.002     -0.001      0.001     -0.001
     17 H        0.007      0.005      0.005     -0.000      0.002      0.000
     19 H       -0.004     -0.008      0.113      0.005     -0.010      0.007
     21 H       -0.004      0.034     -0.505     -0.010      0.059     -0.026
     24 H       -0.001     -0.050     -0.079     -0.021      0.074     -0.025
     25 H        0.000      0.265      0.200     -0.014      0.012     -0.019
     27 H        0.000      0.007      0.002      0.022      0.019      0.006
     28 H        0.000     -0.034     -0.029      0.138     -0.029     -0.005
     30 H        0.000      0.542     -0.022     -0.002      0.011     -0.263
     31 H        0.000     -0.039      0.119     -0.038      0.090     -0.388
     33 H        0.000      6.200     12.263     -0.239     -0.382     -0.200
     35 H        0.000      0.000      0.000      0.000      0.000      0.000
     37 H        0.000      0.000    -12.053      9.421      2.202     -0.248
     38 H        0.000    -12.053      0.000      7.308     11.223     -0.456
     40 H        0.000      9.421      7.308      0.000    -13.990      9.697
     41 H        0.000      2.202     11.223    -13.990      0.000      8.055
     42 H        0.000     -0.248     -0.456      9.697      8.055      0.000
     45 H        0.000      0.059      0.038     -0.070      0.018      0.958
     46 H        0.000     -0.160      0.004      0.040      0.032     -0.397
     47 H        0.000      0.086     -0.088     -0.104     -0.031     -0.102
     48 H        0.000      0.132      0.005     -0.149     -0.437     10.714
     52 H        0.000     -0.007     -0.001     -0.030      0.077     -0.574
     53 H        0.000      0.010      0.017     -0.218     -0.033     -0.455
     57 H        0.000     -0.005     -0.009      0.009      0.028     -0.039
     58 H        0.000     -0.000     -0.000      0.002      0.000      0.001
     61 H        0.000      0.001      0.002     -0.004     -0.002      0.001
     62 H        0.000      0.001      0.001     -0.012     -0.003     -0.000
     63 H        0.000      0.002      0.002     -0.003     -0.002      0.011
     64 H        0.000      0.000      0.000     -0.001     -0.000      0.002
     65 H        0.000      0.000      0.000      0.000      0.000      0.001
     66 H        0.000      0.000      0.000      0.000     -0.000     -0.002
     67 H        0.000     -0.000     -0.000      0.002     -0.000      0.000
     68 H        0.000      0.000      0.000     -0.002     -0.001     -0.000
     69 H        0.000      0.000      0.000     -0.001     -0.001     -0.001
     70 H        0.000      0.063      0.009     -0.042     -0.014     -0.434
     71 H        0.000     -0.017     -0.002      0.032     -0.002     -0.163
     72 H        0.000     -0.024      0.031     -0.003     -0.070     -0.347
                 45 H       46 H       47 H       48 H       52 H       53 H  
      3 H       -0.022      0.000      0.000      0.000      0.000      0.000
      4 H       -0.001     -0.001      0.001      0.000      0.000      0.000
      8 H        0.002      0.002     -0.004      0.000      0.000      0.000
      9 H       -0.001      0.000      0.001      0.000      0.000      0.000
     10 H       -0.001      0.000      0.000      0.000      0.000      0.000
     11 H       -0.000      0.000      0.000      0.000      0.000      0.000
     13 H        0.001      0.001     -0.001      0.000      0.000      0.000
     16 H        0.002      0.002     -0.004      0.000      0.000      0.000
     17 H        0.003      0.000     -0.004      0.000      0.000      0.000
     19 H       -0.010     -0.007      0.011      0.006      0.000      0.000
     21 H        0.036      0.015     -0.017     -0.016      0.003     -0.000
     24 H       -0.022     -0.016     -0.023      0.003      0.000     -0.000
     25 H       -0.017      0.013     -0.061     -0.015     -0.002     -0.000
     27 H       -0.209      0.039     -0.120      0.031     -0.000      0.000
     28 H        0.023      0.064     -0.148      0.022      0.009     -0.001
     30 H       -0.203     -0.332     -0.162      0.036     -0.010      0.000
     31 H       -0.478      0.031      1.807      0.017      0.002     -0.001
     33 H       -0.157      0.919     -0.469     -0.003      0.017     -0.002
     35 H        0.000      0.000      0.000      0.000      0.000      0.000
     37 H        0.059     -0.160      0.086      0.132     -0.007      0.010
     38 H        0.038      0.004     -0.088      0.005     -0.001      0.017
     40 H       -0.070      0.040     -0.104     -0.149     -0.030     -0.218
     41 H        0.018      0.032     -0.031     -0.437      0.077     -0.033
     42 H        0.958     -0.397     -0.102     10.714     -0.574     -0.455
     45 H        0.000    -12.958    -13.607     -0.149      0.013      0.003
     46 H      -12.958      0.000    -12.986     -0.054      0.011     -0.004
     47 H      -13.607    -12.986      0.000     -0.233      0.015      0.000
     48 H       -0.149     -0.054     -0.233      0.000      6.134     -1.927
     52 H        0.013      0.011      0.015      6.134      0.000     17.656
     53 H        0.003     -0.004      0.000     -1.927     17.656      0.000
     57 H        0.000      0.002      0.003      1.903     -3.200      3.573
     58 H        0.000      0.000      0.000      0.022     -0.571     -0.491
     61 H        0.000     -0.000     -0.000     -0.046      0.048     -0.277
     62 H        0.000     -0.000     -0.000     -0.095      0.156     -0.227
     63 H        0.000      0.000      0.000      0.390     -0.193      0.147
     64 H        0.000      0.000      0.000     -0.011      0.080      0.757
     65 H        0.000      0.000      0.000      0.002     -0.006      0.031
     66 H        0.000      0.000      0.000      0.001      0.061      0.069
     67 H        0.000      0.000      0.000      0.001     -0.018      0.008
     68 H       -0.000     -0.000     -0.000     -0.002     -0.149      0.093
     69 H        0.000     -0.000     -0.000     -0.005      0.036      0.183
     70 H       -0.028     -0.017     -0.011      1.883     -0.203     -0.045
     71 H       -0.075     -0.301     -0.023      5.552     -0.042     -0.381
     72 H       -0.036     -0.055      0.025     12.352     -0.238      0.138
                 57 H       58 H       61 H       62 H       63 H       64 H  
      3 H        0.000      0.000      0.000      0.000      0.000      0.000
      4 H        0.000      0.000      0.000      0.000      0.000      0.000
      8 H        0.000      0.000      0.000      0.000      0.000      0.000
      9 H        0.000      0.000      0.000      0.000      0.000      0.000
     10 H        0.000      0.000      0.000      0.000      0.000      0.000
     11 H        0.000      0.000      0.000      0.000      0.000      0.000
     13 H        0.000      0.000      0.000      0.000      0.000      0.000
     16 H        0.000      0.000      0.000      0.000      0.000      0.000
     17 H        0.000      0.000      0.000      0.000      0.000      0.000
     19 H        0.000      0.000      0.000      0.000      0.000      0.000
     21 H        0.000      0.000      0.000     -0.000      0.000      0.000
     24 H        0.000      0.000      0.000      0.000      0.000      0.000
     25 H        0.000      0.000      0.000      0.000      0.000      0.000
     27 H        0.000      0.000      0.000      0.000      0.000      0.000
     28 H        0.000      0.000      0.000      0.000      0.000      0.000
     30 H       -0.005      0.000      0.000      0.000      0.000      0.000
     31 H       -0.001      0.000      0.000      0.000      0.000      0.000
     33 H       -0.000      0.000     -0.000     -0.000     -0.000      0.000
     35 H        0.000      0.000      0.000      0.000      0.000      0.000
     37 H       -0.005     -0.000      0.001      0.001      0.002      0.000
     38 H       -0.009     -0.000      0.002      0.001      0.002      0.000
     40 H        0.009      0.002     -0.004     -0.012     -0.003     -0.001
     41 H        0.028      0.000     -0.002     -0.003     -0.002     -0.000
     42 H       -0.039      0.001      0.001     -0.000      0.011      0.002
     45 H        0.000      0.000      0.000      0.000      0.000      0.000
     46 H        0.002      0.000     -0.000     -0.000      0.000      0.000
     47 H        0.003      0.000     -0.000     -0.000      0.000      0.000
     48 H        1.903      0.022     -0.046     -0.095      0.390     -0.011
     52 H       -3.200     -0.571      0.048      0.156     -0.193      0.080
     53 H        3.573     -0.491     -0.277     -0.227      0.147      0.757
     57 H        0.000      1.802      4.197     13.772      3.495      0.019
     58 H        1.802      0.000      0.576     -0.524     -0.457      3.869
     61 H        4.197      0.576      0.000    -12.768    -13.278     -0.019
     62 H       13.772     -0.524    -12.768      0.000    -12.065      0.050
     63 H        3.495     -0.457    -13.278    -12.065      0.000     -0.115
     64 H        0.019      3.869     -0.019      0.050     -0.115      0.000
     65 H       -0.384      3.192      0.041     -0.002      0.025    -12.646
     66 H       -0.296     12.877     -0.086      0.063     -0.315    -12.963
     67 H       -0.483     12.934      0.005     -0.012     -0.043     -0.204
     68 H       -0.443      2.160     -0.026     -0.075      0.049     -0.028
     69 H        0.557      4.932     -0.149     -0.050     -0.032     -0.210
     70 H        0.086     -0.001     -0.001     -0.002     -0.005      0.000
     71 H        0.981     -0.010     -0.010     -0.023     -0.010      0.002
     72 H       -0.189      0.001      0.002      0.005     -0.007      0.000
                 65 H       66 H       67 H       68 H       69 H       70 H  
      3 H        0.000      0.000      0.000      0.000      0.000      0.000
      4 H        0.000      0.000      0.000      0.000      0.000      0.000
      8 H        0.000      0.000      0.000      0.000      0.000      0.000
      9 H        0.000      0.000      0.000      0.000      0.000      0.000
     10 H        0.000      0.000      0.000      0.000      0.000      0.000
     11 H        0.000      0.000      0.000      0.000      0.000      0.000
     13 H        0.000      0.000      0.000      0.000      0.000      0.000
     16 H        0.000      0.000      0.000      0.000      0.000      0.000
     17 H        0.000      0.000      0.000      0.000      0.000      0.000
     19 H        0.000      0.000      0.000      0.000      0.000      0.000
     21 H        0.000      0.000      0.000      0.000      0.000      0.003
     24 H        0.000      0.000      0.000      0.000      0.000      0.036
     25 H        0.000      0.000      0.000      0.000      0.000      0.000
     27 H        0.000      0.000      0.000      0.000      0.000     -0.008
     28 H        0.000      0.000      0.000      0.000      0.000     -0.011
     30 H        0.000      0.000      0.000     -0.000      0.000      0.052
     31 H        0.000      0.000      0.000      0.000      0.000     -0.058
     33 H        0.000      0.000      0.000     -0.000      0.000      0.007
     35 H        0.000      0.000      0.000      0.000      0.000      0.000
     37 H        0.000      0.000     -0.000      0.000      0.000      0.063
     38 H        0.000      0.000     -0.000      0.000      0.000      0.009
     40 H        0.000      0.000      0.002     -0.002     -0.001     -0.042
     41 H        0.000     -0.000     -0.000     -0.001     -0.001     -0.014
     42 H        0.001     -0.002      0.000     -0.000     -0.001     -0.434
     45 H        0.000      0.000      0.000     -0.000      0.000     -0.028
     46 H        0.000      0.000      0.000     -0.000     -0.000     -0.017
     47 H        0.000      0.000      0.000     -0.000     -0.000     -0.011
     48 H        0.002      0.001      0.001     -0.002     -0.005      1.883
     52 H       -0.006      0.061     -0.018     -0.149      0.036     -0.203
     53 H        0.031      0.069      0.008      0.093      0.183     -0.045
     57 H       -0.384     -0.296     -0.483     -0.443      0.557      0.086
     58 H        3.192     12.877     12.934      2.160      4.932     -0.001
     61 H        0.041     -0.086      0.005     -0.026     -0.149     -0.001
     62 H       -0.002      0.063     -0.012     -0.075     -0.050     -0.002
     63 H        0.025     -0.315     -0.043      0.049     -0.032     -0.005
     64 H      -12.646    -12.963     -0.204     -0.028     -0.210      0.000
     65 H        0.000    -11.975     -0.121      2.829     -0.190     -0.000
     66 H      -11.975      0.000     -0.333     -0.312     -0.215      0.001
     67 H       -0.121     -0.333      0.000    -12.574    -12.901     -0.001
     68 H        2.829     -0.312    -12.574      0.000    -12.586     -0.000
     69 H       -0.190     -0.215    -12.901    -12.586      0.000     -0.000
     70 H       -0.000      0.001     -0.001     -0.000     -0.000      0.000
     71 H        0.002      0.000     -0.002     -0.005     -0.004    -13.375
     72 H       -0.000     -0.000     -0.000      0.001      0.000    -12.990
                 71 H       72 H  
      3 H        0.000      0.000
      4 H        0.000      0.000
      8 H        0.000      0.000
      9 H        0.000      0.000
     10 H        0.000      0.000
     11 H        0.000      0.000
     13 H        0.000      0.000
     16 H        0.000      0.000
     17 H        0.000      0.000
     19 H       -0.000      0.000
     21 H        0.001      0.001
     24 H        0.019      0.015
     25 H        0.003      0.000
     27 H       -0.003     -0.004
     28 H       -0.007     -0.005
     30 H       -0.459      0.040
     31 H       -0.098      0.001
     33 H        0.004      0.002
     35 H        0.000      0.000
     37 H       -0.017     -0.024
     38 H       -0.002      0.031
     40 H        0.032     -0.003
     41 H       -0.002     -0.070
     42 H       -0.163     -0.347
     45 H       -0.075     -0.036
     46 H       -0.301     -0.055
     47 H       -0.023      0.025
     48 H        5.552     12.352
     52 H       -0.042     -0.238
     53 H       -0.381      0.138
     57 H        0.981     -0.189
     58 H       -0.010      0.001
     61 H       -0.010      0.002
     62 H       -0.023      0.005
     63 H       -0.010     -0.007
     64 H        0.002      0.000
     65 H        0.002     -0.000
     66 H        0.000     -0.000
     67 H       -0.002     -0.000
     68 H       -0.005      0.001
     69 H       -0.004      0.000
     70 H      -13.375    -12.990
     71 H        0.000    -11.530
     72 H      -11.530      0.000

Maximum memory used throughout the entire EPRNMR-calculation: 967.6 MB

Timings for individual modules:

Sum of individual times         ...      411.726 sec (=   6.862 min)
GTO integral calculation        ...        0.517 sec (=   0.009 min)   0.1 %
SCF iterations                  ...      105.409 sec (=   1.757 min)  25.6 %
EPR/NMR calculation             ...      305.801 sec (=   5.097 min)  74.3 %
                             ****ORCA TERMINATED NORMALLY****
TOTAL RUN TIME: 0 days 0 hours 6 minutes 52 seconds 165 msec
