
                                 *****************
                                 * O   R   C   A *
                                 *****************

                                            #,                                       
                                            ###                                      
                                            ####                                     
                                            #####                                    
                                            ######                                   
                                           ########,                                 
                                     ,,################,,,,,                         
                               ,,#################################,,                 
                          ,,##########################################,,             
                       ,#########################################, ''#####,          
                    ,#############################################,,   '####,        
                  ,##################################################,,,,####,       
                ,###########''''           ''''###############################       
              ,#####''   ,,,,##########,,,,          '''####'''          '####       
            ,##' ,,,,###########################,,,                        '##       
           ' ,,###''''                  '''############,,,                           
         ,,##''                                '''############,,,,        ,,,,,,###''
      ,#''                                            '''#######################'''  
     '                                                          ''''####''''         
             ,#######,   #######,   ,#######,      ##                                
            ,#'     '#,  ##    ##  ,#'     '#,    #''#        ######   ,####,        
            ##       ##  ##   ,#'  ##            #'  '#       #        #'  '#        
            ##       ##  #######   ##           ,######,      #####,   #    #        
            '#,     ,#'  ##    ##  '#,     ,#' ,#      #,         ##   #,  ,#        
             '#######'   ##     ##  '#######'  #'      '#     #####' # '####'        



                  #######################################################
                  #                        -***-                        #
                  #          Department of theory and spectroscopy      #
                  #    Directorship and core code : Frank Neese         #
                  #        Max Planck Institute fuer Kohlenforschung    #
                  #                Kaiser Wilhelm Platz 1               #
                  #                 D-45470 Muelheim/Ruhr               #
                  #                      Germany                        #
                  #                                                     #
                  #                  All rights reserved                #
                  #                        -***-                        #
                  #######################################################


                         Program Version 5.0.2 -  RELEASE  -


 With contributions from (in alphabetic order):
   Daniel Aravena         : Magnetic Suceptibility
   Michael Atanasov       : Ab Initio Ligand Field Theory (pilot matlab implementation)
   Alexander A. Auer      : GIAO ZORA, VPT2 properties, NMR spectrum
   Ute Becker             : Parallelization
   Giovanni Bistoni       : ED, misc. LED, open-shell LED, HFLD
   Martin Brehm           : Molecular dynamics
   Dmytro Bykov           : SCF Hessian
   Vijay G. Chilkuri      : MRCI spin determinant printing, contributions to CSF-ICE
   Dipayan Datta          : RHF DLPNO-CCSD density
   Achintya Kumar Dutta   : EOM-CC, STEOM-CC
   Dmitry Ganyushin       : Spin-Orbit,Spin-Spin,Magnetic field MRCI
   Miquel Garcia          : C-PCM and meta-GGA Hessian, CC/C-PCM, Gaussian charge scheme
   Yang Guo               : DLPNO-NEVPT2, F12-NEVPT2, CIM, IAO-localization
   Andreas Hansen         : Spin unrestricted coupled pair/coupled cluster methods
   Benjamin Helmich-Paris : MC-RPA, TRAH-SCF, COSX integrals
   Lee Huntington         : MR-EOM, pCC
   Robert Izsak           : Overlap fitted RIJCOSX, COSX-SCS-MP3, EOM
   Marcus Kettner         : VPT2
   Christian Kollmar      : KDIIS, OOCD, Brueckner-CCSD(T), CCSD density, CASPT2, CASPT2-K
   Simone Kossmann        : Meta GGA functionals, TD-DFT gradient, OOMP2, MP2 Hessian
   Martin Krupicka        : Initial AUTO-CI
   Lucas Lang             : DCDCAS
   Marvin Lechner         : AUTO-CI (C++ implementation), FIC-MRCC
   Dagmar Lenk            : GEPOL surface, SMD
   Dimitrios Liakos       : Extrapolation schemes; Compound Job, initial MDCI parallelization
   Dimitrios Manganas     : Further ROCIS development; embedding schemes
   Dimitrios Pantazis     : SARC Basis sets
   Anastasios Papadopoulos: AUTO-CI, single reference methods and gradients
   Taras Petrenko         : DFT Hessian,TD-DFT gradient, ASA, ECA, R-Raman, ABS, FL, XAS/XES, NRVS
   Peter Pinski           : DLPNO-MP2, DLPNO-MP2 Gradient
   Christoph Reimann      : Effective Core Potentials
   Marius Retegan         : Local ZFS, SOC
   Christoph Riplinger    : Optimizer, TS searches, QM/MM, DLPNO-CCSD(T), (RO)-DLPNO pert. Triples
   Tobias Risthaus        : Range-separated hybrids, TD-DFT gradient, RPA, STAB
   Michael Roemelt        : Original ROCIS implementation
   Masaaki Saitow         : Open-shell DLPNO-CCSD energy and density
   Barbara Sandhoefer     : DKH picture change effects
   Avijit Sen             : IP-ROCIS
   Kantharuban Sivalingam : CASSCF convergence, NEVPT2, FIC-MRCI
   Bernardo de Souza      : ESD, SOC TD-DFT
   Georgi Stoychev        : AutoAux, RI-MP2 NMR, DLPNO-MP2 response
   Willem Van den Heuvel  : Paramagnetic NMR
   Boris Wezisla          : Elementary symmetry handling
   Frank Wennmohs         : Technical directorship


 We gratefully acknowledge several colleagues who have allowed us to
 interface, adapt or use parts of their codes:
   Stefan Grimme, W. Hujo, H. Kruse, P. Pracht,  : VdW corrections, initial TS optimization,
                  C. Bannwarth, S. Ehlert          DFT functionals, gCP, sTDA/sTD-DF
   Ed Valeev, F. Pavosevic, A. Kumar             : LibInt (2-el integral package), F12 methods
   Garnet Chan, S. Sharma, J. Yang, R. Olivares  : DMRG
   Ulf Ekstrom                                   : XCFun DFT Library
   Mihaly Kallay                                 : mrcc  (arbitrary order and MRCC methods)
   Jiri Pittner, Ondrej Demel                    : Mk-CCSD
   Frank Weinhold                                : gennbo (NPA and NBO analysis)
   Christopher J. Cramer and Donald G. Truhlar   : smd solvation model
   Lars Goerigk                                  : TD-DFT with DH, B97 family of functionals
   V. Asgeirsson, H. Jonsson                     : NEB implementation
   FAccTs GmbH                                   : IRC, NEB, NEB-TS, DLPNO-Multilevel, CI-OPT
                                                   MM, QMMM, 2- and 3-layer-ONIOM, Crystal-QMMM,
                                                   LR-CPCM, SF, NACMEs, symmetry and pop. for TD-DFT,
                                                   nearIR, NL-DFT gradient (VV10), updates on ESD,
                                                   ML-optimized integration grids
   S Lehtola, MJT Oliveira, MAL Marques          : LibXC Library
   Liviu Ungur et al                             : ANISO software


 Your calculation uses the libint2 library for the computation of 2-el integrals
 For citations please refer to: http://libint.valeyev.net

 Your ORCA version has been built with support for libXC version: 5.1.0
 For citations please refer to: https://tddft.org/programs/libxc/

 This ORCA versions uses:
   CBLAS   interface :  Fast vector & matrix operations
   LAPACKE interface :  Fast linear algebra routines
   SCALAPACK package :  Parallel linear algebra routines
   Shared memory     :  Shared parallel matrices
   BLAS/LAPACK       :  OpenBLAS 0.3.15  USE64BITINT DYNAMIC_ARCH NO_AFFINITY Zen SINGLE_THREADED
        Core in use  :  Zen
   Copyright (c) 2011-2014, The OpenBLAS Project


Your calculation utilizes the atom-pairwise dispersion correction
based on tight binding partial charges (D4)
Cite in your paper:
E.Caldeweyher, C.Bannwarth, S.Grimme, J.Chem.Phys., (2017), 147, 034112.
E.Caldeweyher, S.Ehlert, A.Hansen, H.Neugebauer, S.Grimme, J.Chem.Phys., (2018), in progress.
   

================================================================================

----- Orbital basis set information -----
Your calculation utilizes the basis: pcSseg-1
   F. Jensen, J. Chem. Theory Comput. 11, 132 (2015).

----- AuxJ basis set information -----
Your calculation utilizes the auxiliary basis: def2/J
   F. Weigend, Phys. Chem. Chem. Phys. 8, 1057 (2006).

================================================================================
                                        WARNINGS
                       Please study these warnings very carefully!
================================================================================



WARNING: Found flag for RIJCOSX approximation but no HF exchange needed!
  ===> : RIJCOSX  will be disabled and Split-RI-J is turned on

INFO   : the flag for use of the SHARK integral package has been found!

================================================================================
                                       INPUT FILE
================================================================================
NAME = inpS
|  1> ! revTPSS
|  2> ! D4
|  3> ! pcSseg-1
|  4> ! def2/J RIJCOSX
|  5> ! DEFGRID2
|  6> ! scfconv7
|  7> ! smallprint printgap noloewdin
|  8> ! NOSOSCF
|  9> %MaxCore 4000
| 10> %output
| 11>        print[P_BondOrder_M] 1
| 12>        print[P_Mayer] 1
| 13>        print[P_basis] 2
| 14> end
| 15> %pal
| 16>     nprocs 4
| 17> end
| 18> ! CPCM(chloroform)
| 19> *xyz 0 1
| 20> C   -5.0492570300   0.3352656400   0.3096650700
| 21> C   -6.4583702600  -0.0817239500  -0.0400744900
| 22> C   -6.9895123900   0.6794581300  -1.2607971900
| 23> H   -7.1288010000   0.1487346900   0.8053205000
| 24> H   -6.5089150600  -1.1609062500  -0.2218786800
| 25> C   -4.8597200800   1.7972169100   0.4202479400
| 26> C   -5.4372710700   2.5917923000  -0.7293653300
| 27> C   -6.8851140100   2.1832711000  -1.0330698400
| 28> H   -4.8272405600   2.3996160500  -1.6251069800
| 29> H   -5.3755138400   3.6642390100  -0.5165196800
| 30> H   -7.2525795900   2.7172790000  -1.9172966200
| 31> H   -7.5317214300   2.4566450900  -0.1855706400
| 32> O   -8.3292011900   0.2800137100  -1.5787976200
| 33> H   -6.3953836200   0.4016220000  -2.1426465300
| 34> C   -4.0677191100  -0.5863801700   0.4536039200
| 35> C   -4.2685685400   2.3858282400   1.4663063300
| 36> H   -3.8818094800   1.8045736000   2.2986779900
| 37> H   -4.1691279100   3.4675447700   1.5163752500
| 38> C   -2.6679135800  -0.3210547600   0.6917179900
| 39> H   -4.3661905300  -1.6272849900   0.3367746800
| 40> C   -1.7036012000  -1.2414515400   0.9074578000
| 41> H   -2.3736536400   0.7259777200   0.6826356500
| 42> C   -1.9141081000  -2.7316512500   0.9999941700
| 43> C   -0.9762004300  -3.5019592800   0.0515950400
| 44> H   -2.9522632600  -3.0175016100   0.8099924400
| 45> H   -1.6849652100  -3.0393991300   2.0328922400
| 46> C    0.4925329500  -3.0836270400   0.2043107300
| 47> H   -1.3020176800  -3.3400354600  -0.9836639800
| 48> H   -1.0736787900  -4.5774412500   0.2442077700
| 49> C    0.6723787400  -1.5666412200   0.0539728400
| 50> H    1.0961301100  -3.6312190300  -0.5269462000
| 51> H    0.8510496300  -3.3789160100   1.2020332500
| 52> C   -0.2627427900  -0.8786043700   1.0986865200
| 53> H    0.0402663500  -1.3149151700   2.0685944100
| 54> C    0.1899395700   0.5785362700   1.1026168000
| 55> H   -8.8890699200   0.5128464300  -0.8260540100
| 56> C    1.7221083900   0.4824738100   0.8982763500
| 57> H   -0.0855098100   1.0932834400   2.0291534800
| 58> H   -0.2728161100   1.1305880000   0.2769000200
| 59> C    2.0416523200  -0.9929327700   0.5121719700
| 60> H    2.2739218300   0.7734731600   1.7977052600
| 61> H    2.0541020700   1.1581302800   0.1011809800
| 62> H    2.3169508900  -1.5428821800   1.4271983300
| 63> C    3.2466057100  -1.0774371800  -0.4464796800
| 64> C    0.3362228600  -1.1089744800  -1.3715935800
| 65> H   -0.7271472000  -1.2406308800  -1.5943045600
| 66> H    0.9090805000  -1.6839958300  -2.1075550700
| 67> H    0.5724108900  -0.0506857000  -1.5210070400
| 68> H    3.0072904300  -0.5058802000  -1.3555119800
| 69> C    3.6073509400  -2.5153183600  -0.8490890200
| 70> C    4.4438840400  -0.4360899000   0.2054642600
| 71> C    5.1192792600   0.5987041400  -0.2929915600
| 72> H    4.7530806200  -0.8969413300   1.1459491800
| 73> H    4.7719271600   1.0201583900  -1.2410887800
| 74> C    6.3251217300   1.2969695100   0.2874507400
| 75> C    7.3898643200   1.4632728200  -0.8105109300
| 76> C    6.8784443000   0.6646355400   1.5825834300
| 77> H    5.9890042900   2.3139558600   0.5548733200
| 78> H    6.0120982200   0.4467421700   2.2237727400
| 79> C    7.7637649600   1.6498460400   2.3521906800
| 80> C    7.6351510000  -0.6453232000   1.3378178800
| 81> H    6.9805478300   2.0300612300  -1.6535923300
| 82> H    7.7174700300   0.4902369900  -1.1914368300
| 83> H    8.2684459700   2.0016029200  -0.4410803300
| 84> H    8.0940899100   1.2104068500   3.3001467400
| 85> H    7.2239201600   2.5763651700   2.5785570500
| 86> H    8.6622570900   1.9113533900   1.7813085800
| 87> H    8.5934514700  -0.4535788600   0.8414834100
| 88> H    7.0650787300  -1.3383359500   0.7108653300
| 89> H    7.8510710600  -1.1449809600   2.2887168000
| 90> H    4.5418141800  -2.5244795200  -1.4203879800
| 91> H    2.8303591300  -2.9697909100  -1.4689608300
| 92> H    3.7464911200  -3.1442165300   0.0389191000
| 93> *
| 94> %eprnmr
| 95>  Nuclei = all H { shift }
| 96>  origin giao
| 97>  giao_2el giao_2el_same_as_scf
| 98>  giao_1el giao_1el_analytic
| 99> end
|100> 
|101>                          ****END OF INPUT****
================================================================================

                       ****************************
                       * Single Point Calculation *
                       ****************************

---------------------------------
CARTESIAN COORDINATES (ANGSTROEM)
---------------------------------
  C     -5.049257    0.335266    0.309665
  C     -6.458370   -0.081724   -0.040074
  C     -6.989512    0.679458   -1.260797
  H     -7.128801    0.148735    0.805320
  H     -6.508915   -1.160906   -0.221879
  C     -4.859720    1.797217    0.420248
  C     -5.437271    2.591792   -0.729365
  C     -6.885114    2.183271   -1.033070
  H     -4.827241    2.399616   -1.625107
  H     -5.375514    3.664239   -0.516520
  H     -7.252580    2.717279   -1.917297
  H     -7.531721    2.456645   -0.185571
  O     -8.329201    0.280014   -1.578798
  H     -6.395384    0.401622   -2.142647
  C     -4.067719   -0.586380    0.453604
  C     -4.268569    2.385828    1.466306
  H     -3.881809    1.804574    2.298678
  H     -4.169128    3.467545    1.516375
  C     -2.667914   -0.321055    0.691718
  H     -4.366191   -1.627285    0.336775
  C     -1.703601   -1.241452    0.907458
  H     -2.373654    0.725978    0.682636
  C     -1.914108   -2.731651    0.999994
  C     -0.976200   -3.501959    0.051595
  H     -2.952263   -3.017502    0.809992
  H     -1.684965   -3.039399    2.032892
  C      0.492533   -3.083627    0.204311
  H     -1.302018   -3.340035   -0.983664
  H     -1.073679   -4.577441    0.244208
  C      0.672379   -1.566641    0.053973
  H      1.096130   -3.631219   -0.526946
  H      0.851050   -3.378916    1.202033
  C     -0.262743   -0.878604    1.098687
  H      0.040266   -1.314915    2.068594
  C      0.189940    0.578536    1.102617
  H     -8.889070    0.512846   -0.826054
  C      1.722108    0.482474    0.898276
  H     -0.085510    1.093283    2.029153
  H     -0.272816    1.130588    0.276900
  C      2.041652   -0.992933    0.512172
  H      2.273922    0.773473    1.797705
  H      2.054102    1.158130    0.101181
  H      2.316951   -1.542882    1.427198
  C      3.246606   -1.077437   -0.446480
  C      0.336223   -1.108974   -1.371594
  H     -0.727147   -1.240631   -1.594305
  H      0.909080   -1.683996   -2.107555
  H      0.572411   -0.050686   -1.521007
  H      3.007290   -0.505880   -1.355512
  C      3.607351   -2.515318   -0.849089
  C      4.443884   -0.436090    0.205464
  C      5.119279    0.598704   -0.292992
  H      4.753081   -0.896941    1.145949
  H      4.771927    1.020158   -1.241089
  C      6.325122    1.296970    0.287451
  C      7.389864    1.463273   -0.810511
  C      6.878444    0.664636    1.582583
  H      5.989004    2.313956    0.554873
  H      6.012098    0.446742    2.223773
  C      7.763765    1.649846    2.352191
  C      7.635151   -0.645323    1.337818
  H      6.980548    2.030061   -1.653592
  H      7.717470    0.490237   -1.191437
  H      8.268446    2.001603   -0.441080
  H      8.094090    1.210407    3.300147
  H      7.223920    2.576365    2.578557
  H      8.662257    1.911353    1.781309
  H      8.593451   -0.453579    0.841483
  H      7.065079   -1.338336    0.710865
  H      7.851071   -1.144981    2.288717
  H      4.541814   -2.524480   -1.420388
  H      2.830359   -2.969791   -1.468961
  H      3.746491   -3.144217    0.038919

----------------------------
CARTESIAN COORDINATES (A.U.)
----------------------------
  NO LB      ZA    FRAG     MASS         X           Y           Z
   0 C     6.0000    0    12.011   -9.541713    0.633560    0.585182
   1 C     6.0000    0    12.011  -12.204551   -0.154436   -0.075730
   2 C     6.0000    0    12.011  -13.208264    1.283990   -2.382561
   3 H     1.0000    0     1.008  -13.471482    0.281068    1.521835
   4 H     1.0000    0     1.008  -12.300067   -2.193795   -0.419290
   5 C     6.0000    0    12.011   -9.183540    3.396248    0.794154
   6 C     6.0000    0    12.011  -10.274953    4.897778   -1.378301
   7 C     6.0000    0    12.011  -13.010980    4.125784   -1.952219
   8 H     1.0000    0     1.008   -9.122163    4.534617   -3.071007
   9 H     1.0000    0     1.008  -10.158249    6.924408   -0.976081
  10 H     1.0000    0     1.008  -13.705389    5.134913   -3.623166
  11 H     1.0000    0     1.008  -14.232891    4.642386   -0.350678
  12 O     8.0000    0    15.999  -15.739909    0.529149   -2.983495
  13 H     1.0000    0     1.008  -12.085524    0.758956   -4.049015
  14 C     6.0000    0    12.011   -7.686875   -1.108098    0.857187
  15 C     6.0000    0    12.011   -8.066426    4.508562    2.770917
  16 H     1.0000    0     1.008   -7.335557    3.410150    4.343872
  17 H     1.0000    0     1.008   -7.878510    6.552710    2.865534
  18 C     6.0000    0    12.011   -5.041626   -0.606706    1.307158
  19 H     1.0000    0     1.008   -8.250904   -3.075123    0.636412
  20 C     6.0000    0    12.011   -3.219340   -2.346003    1.714847
  21 H     1.0000    0     1.008   -4.485555    1.371899    1.289994
  22 C     6.0000    0    12.011   -3.617140   -5.162073    1.889715
  23 C     6.0000    0    12.011   -1.844751   -6.617744    0.097500
  24 H     1.0000    0     1.008   -5.578969   -5.702252    1.530664
  25 H     1.0000    0     1.008   -3.184123   -5.743632    3.841610
  26 C     6.0000    0    12.011    0.930752   -5.827211    0.386091
  27 H     1.0000    0     1.008   -2.460457   -6.311752   -1.858856
  28 H     1.0000    0     1.008   -2.028959   -8.650110    0.461486
  29 C     6.0000    0    12.011    1.270612   -2.960523    0.101994
  30 H     1.0000    0     1.008    2.071386   -6.862009   -0.995784
  31 H     1.0000    0     1.008    1.608251   -6.385226    2.271514
  32 C     6.0000    0    12.011   -0.496512   -1.660322    2.076217
  33 H     1.0000    0     1.008    0.076092   -2.484830    3.909077
  34 C     6.0000    0    12.011    0.358934    1.093275    2.083644
  35 H     1.0000    0     1.008  -16.797908    0.969139   -1.561016
  36 C     6.0000    0    12.011    3.254313    0.911743    1.697496
  37 H     1.0000    0     1.008   -0.161590    2.066006    3.834544
  38 H     1.0000    0     1.008   -0.515548    2.136502    0.523265
  39 C     6.0000    0    12.011    3.858164   -1.876371    0.967865
  40 H     1.0000    0     1.008    4.297090    1.461652    3.397171
  41 H     1.0000    0     1.008    3.881690    2.188549    0.191204
  42 H     1.0000    0     1.008    4.378403   -2.915625    2.697014
  43 C     6.0000    0    12.011    6.135196   -2.036061   -0.843724
  44 C     6.0000    0    12.011    0.635369   -2.095658   -2.591936
  45 H     1.0000    0     1.008   -1.374109   -2.344453   -3.012799
  46 H     1.0000    0     1.008    1.717913   -3.182291   -3.982702
  47 H     1.0000    0     1.008    1.081700   -0.095782   -2.874287
  48 H     1.0000    0     1.008    5.682955   -0.955975   -2.561546
  49 C     6.0000    0    12.011    6.816905   -4.753263   -1.604546
  50 C     6.0000    0    12.011    8.397724   -0.824090    0.388271
  51 C     6.0000    0    12.011    9.674036    1.131387   -0.553674
  52 H     1.0000    0     1.008    8.982021   -1.694973    2.165530
  53 H     1.0000    0     1.008    9.017635    1.927820   -2.345318
  54 C     6.0000    0    12.011   11.952748    2.450917    0.543203
  55 C     6.0000    0    12.011   13.964820    2.765185   -1.531644
  56 C     6.0000    0    12.011   12.998376    1.255979    2.990649
  57 H     1.0000    0     1.008   11.317578    4.372743    1.048559
  58 H     1.0000    0     1.008   11.361219    0.844220    4.202321
  59 C     6.0000    0    12.011   14.671390    3.117757    4.444996
  60 C     6.0000    0    12.011   14.428344   -1.219484    2.528109
  61 H     1.0000    0     1.008   13.191324    3.836260   -3.124837
  62 H     1.0000    0     1.008   14.583905    0.926414   -2.251489
  63 H     1.0000    0     1.008   15.625098    3.782481   -0.833521
  64 H     1.0000    0     1.008   15.295613    2.287337    6.236374
  65 H     1.0000    0     1.008   13.651231    4.868625    4.872767
  66 H     1.0000    0     1.008   16.369294    3.611934    3.366185
  67 H     1.0000    0     1.008   16.239270   -0.857140    1.590173
  68 H     1.0000    0     1.008   13.351064   -2.529088    1.343341
  69 H     1.0000    0     1.008   14.836374   -2.163700    4.325048
  70 H     1.0000    0     1.008    8.582785   -4.770575   -2.684144
  71 H     1.0000    0     1.008    5.348604   -5.612091   -2.775934
  72 H     1.0000    0     1.008    7.079842   -5.941708    0.073546

--------------------------------
INTERNAL COORDINATES (ANGSTROEM)
--------------------------------
 C      0   0   0     0.000000000000     0.00000000     0.00000000
 C      1   0   0     1.510562204266     0.00000000     0.00000000
 C      2   1   0     1.533516883334   111.73890249     0.00000000
 H      2   1   3     1.103304695451   109.37677375   241.45782138
 H      2   1   3     1.095555556301   110.69437543   122.88129406
 C      1   2   3     1.478328225533   114.19917856    50.51635035
 C      6   1   2     1.512126273498   114.44431429   312.11740747
 C      3   2   1     1.524536721901   110.30343171   304.96769973
 H      7   6   1     1.100646190989   108.37803312   289.82160228
 H      7   6   1     1.095106922620   110.19957777   172.64536676
 H      8   3   2     1.096381497571   109.69550939   179.11899799
 H      8   3   2     1.100495064963   108.65279224   296.55086231
 O      3   2   1     1.433682740007   111.21806437   180.28237329
 H      3   2   1     1.099017820116   109.02669813    65.11806576
 C      1   2   3     1.354092345458   120.85771076   232.66903311
 C      6   1   2     1.337969206050   123.37969370   129.95066666
 H     16   6   1     1.086407891809   121.39446625     0.63723846
 H     16   6   1     1.087430911332   120.93184335   181.33299309
 C     15   1   2     1.444490015660   126.50884768   175.33522582
 H     15   1   2     1.089135943845   116.13245550   357.97124352
 C     19  15   1     1.350397076594   126.38073881   176.11762462
 H     19  15   1     1.087634320608   115.95268176   355.38724483
 C     21  19  15     1.507836632532   125.71214589   357.22083093
 C     23  21  19     1.540294182392   111.80555592   127.65008509
 H     23  21  19     1.093424538754   112.34956674     3.53176963
 H     23  21  19     1.101859176434   107.72977911   246.29946229
 C     24  23  21     1.534764374919   112.65215896    50.93803460
 H     24  23  21     1.097331965438   109.04450415   288.84545192
 H     24  23  21     1.096933526802   109.15331720   172.87617616
 C     27  24  23     1.534989240168   111.82370506   306.18195074
 H     27  24  23     1.094953522642   108.95160258   182.65292909
 H     27  24  23     1.100536238639   109.19740123    66.15751387
 C     21  19  15     1.498098611506   122.82827398   177.77680750
 H     33  21  19     1.105849432882   106.25607449   124.15788768
 C     33  21  19     1.525842590471   121.12921497     1.95448388
 H     13   3   2     0.966585233040   107.54172226    62.61694243
 C     35  33  21     1.548716987932   103.52872225   196.32124656
 H     35  33  21     1.095128864267   112.11261671    74.29431279
 H     35  33  21     1.095770109440   110.72528236   314.71457309
 C     30  27  24     1.553704593937   116.05884446   166.25047670
 H     37  35  33     1.094600867170   111.95204846   249.34369045
 H     37  35  33     1.096399789259   110.93244647   130.76054361
 H     40  30  27     1.102500292834   106.29797653   320.80937216
 C     40  30  27     1.542098133528   119.01612556    81.59684745
 C     30  27  24     1.534502928766   111.10473300   294.17279300
 H     45  30  27     1.094390000310   111.47106182    66.61407843
 H     45  30  27     1.095652656377   110.66843302   306.45931059
 H     45  30  27     1.094570376640   111.58666418   186.62935067
 H     44  40  30     1.100131313558   108.37439616    61.46384072
 C     44  40  30     1.536142470418   113.43568688   300.63753146
 C     44  40  30     1.506596373935   109.18481548   178.89078982
 C     51  44  40     1.332447227064   124.85731495   239.07850245
 H     51  44  40     1.092015773862   114.71095607    60.04532435
 H     52  51  44     1.094150585975   117.54079760     0.66394707
 C     52  51  44     1.509484631597   128.33955293   180.20855947
 C     55  52  51     1.538458125093   109.17419551   132.23774804
 C     55  52  51     1.543820197042   114.79872674     3.82850596
 H     55  52  51     1.103970563852   106.02559800   246.61419676
 H     57  55  52     1.099616652420   106.73564807   315.26961574
 C     57  55  52     1.531903299685   111.41826401   198.97170121
 C     57  55  52     1.532483965591   113.14761100    74.20101663
 H     56  55  52     1.095251266935   110.28285939    58.03632799
 H     56  55  52     1.095093041243   111.05379884   298.73642039
 H     56  55  52     1.094615905466   111.57948606   177.78058503
 H     60  57  55     1.095829396389   110.54236525   176.23175600
 H     60  57  55     1.095952480635   111.27193707    56.24546587
 H     60  57  55     1.096166307581   111.43774218   295.59210678
 H     61  57  55     1.096108383708   110.76217807    71.16865744
 H     61  57  55     1.094677379248   112.05401706   310.67256041
 H     61  57  55     1.095667881019   110.39588118   190.10173777
 H     50  44  40     1.095302686686   110.17488361   187.33197529
 H     50  44  40     1.092933041107   111.77272408    67.38442442
 H     50  44  40     1.097010172745   110.74695183   306.76796958

---------------------------
INTERNAL COORDINATES (A.U.)
---------------------------
 C      0   0   0     0.000000000000     0.00000000     0.00000000
 C      1   0   0     2.854548874316     0.00000000     0.00000000
 C      2   1   0     2.897926931245   111.73890249     0.00000000
 H      2   1   3     2.084943716672   109.37677375   241.45782138
 H      2   1   3     2.070299965905   110.69437543   122.88129406
 C      1   2   3     2.793635482303   114.19917856    50.51635035
 C      6   1   2     2.857504536819   114.44431429   312.11740747
 C      3   2   1     2.880956885499   110.30343171   304.96769973
 H      7   6   1     2.079919871314   108.37803312   289.82160228
 H      7   6   1     2.069452171114   110.19957777   172.64536676
 H      8   3   2     2.071860768708   109.69550939   179.11899799
 H      8   3   2     2.079634284512   108.65279224   296.55086231
 O      3   2   1     2.709267741544   111.21806437   180.28237329
 H      3   2   1     2.076842696319   109.02669813    65.11806576
 C      1   2   3     2.558863692955   120.85771076   232.66903311
 C      6   1   2     2.528395375055   123.37969370   129.95066666
 H     16   6   1     2.053013385250   121.39446625     0.63723846
 H     16   6   1     2.054946611978   120.93184335   181.33299309
 C     15   1   2     2.729690532782   126.50884768   175.33522582
 H     15   1   2     2.058168656477   116.13245550   357.97124352
 C     19  15   1     2.551880646811   126.38073881   176.11762462
 H     19  15   1     2.055330999802   115.95268176   355.38724483
 C     21  19  15     2.849398290179   125.71214589   357.22083093
 C     23  21  19     2.910734170394   111.80555592   127.65008509
 H     23  21  19     2.066272926355   112.34956674     3.53176963
 H     23  21  19     2.082212081608   107.72977911   246.29946229
 C     24  23  21     2.900284348697   112.65215896    50.93803460
 H     24  23  21     2.073656892676   109.04450415   288.84545192
 H     24  23  21     2.072903952771   109.15331720   172.87617616
 C     27  24  23     2.900709282433   111.82370506   306.18195074
 H     27  24  23     2.069162287165   108.95160258   182.65292909
 H     27  24  23     2.079712091483   109.19740123    66.15751387
 C     21  19  15     2.830996097355   122.82827398   177.77680750
 H     33  21  19     2.089752573498   106.25607449   124.15788768
 C     33  21  19     2.883424619463   121.12921497     1.95448388
 H     13   3   2     1.826581375537   107.54172226    62.61694243
 C     35  33  21     2.926650966142   103.52872225   196.32124656
 H     35  33  21     2.069493634817   112.11261671    74.29431279
 H     35  33  21     2.070705412578   110.72528236   314.71457309
 C     30  27  24     2.936076175556   116.05884446   166.25047670
 H     37  35  33     2.068495864904   111.95204846   249.34369045
 H     37  35  33     2.071895334989   110.93244647   130.76054361
 H     40  30  27     2.083423616024   106.29797653   320.80937216
 C     40  30  27     2.914143143999   119.01612556    81.59684745
 C     30  27  24     2.899790287068   111.10473300   294.17279300
 H     45  30  27     2.068097384287   111.47106182    66.61407843
 H     45  30  27     2.070483458455   110.66843302   306.45931059
 H     45  30  27     2.068438246153   111.58666418   186.62935067
 H     44  40  30     2.078946893976   108.37439616    61.46384072
 C     44  40  30     2.902888571775   113.43568688   300.63753146
 C     44  40  30     2.847054541096   109.18481548   178.89078982
 C     51  44  40     2.517960347054   124.85731495   239.07850245
 H     51  44  40     2.063610746522   114.71095607    60.04532435
 H     52  51  44     2.067644956762   117.54079760     0.66394707
 C     52  51  44     2.852512557081   128.33955293   180.20855947
 C     55  52  51     2.907264524933   109.17419551   132.23774804
 C     55  52  51     2.917397372425   114.79872674     3.82850596
 H     55  52  51     2.086202025591   106.02559800   246.61419676
 H     57  55  52     2.077974325373   106.73564807   315.26961574
 C     57  55  52     2.894877700055   111.41826401   198.97170121
 C     57  55  52     2.895974999593   113.14761100    74.20101663
 H     56  55  52     2.069724942337   110.28285939    58.03632799
 H     56  55  52     2.069425939113   111.05379884   298.73642039
 H     56  55  52     2.068524283165   111.57948606   177.78058503
 H     60  57  55     2.070817448676   110.54236525   176.23175600
 H     60  57  55     2.071050044192   111.27193707    56.24546587
 H     60  57  55     2.071454118560   111.43774218   295.59210678
 H     61  57  55     2.071344658303   110.76217807    71.16865744
 H     61  57  55     2.068640451777   112.05401706   310.67256041
 H     61  57  55     2.070512228859   110.39588118   190.10173777
 H     50  44  40     2.069822111584   110.17488361   187.33197529
 H     50  44  40     2.065344130406   111.77272408    67.38442442
 H     50  44  40     2.073048792613   110.74695183   306.76796958

---------------------
BASIS SET INFORMATION
---------------------
There are 3 groups of distinct atoms

 Group   1 Type C   : 8s5p1d contracted to 3s3p1d pattern {521/311/1}
 Group   2 Type H   : 4s2p contracted to 2s1p pattern {31/2}
 Group   3 Type O   : 8s5p1d contracted to 3s3p1d pattern {521/311/1}

Atom   0C    basis set group =>   1
Atom   1C    basis set group =>   1
Atom   2C    basis set group =>   1
Atom   3H    basis set group =>   2
Atom   4H    basis set group =>   2
Atom   5C    basis set group =>   1
Atom   6C    basis set group =>   1
Atom   7C    basis set group =>   1
Atom   8H    basis set group =>   2
Atom   9H    basis set group =>   2
Atom  10H    basis set group =>   2
Atom  11H    basis set group =>   2
Atom  12O    basis set group =>   3
Atom  13H    basis set group =>   2
Atom  14C    basis set group =>   1
Atom  15C    basis set group =>   1
Atom  16H    basis set group =>   2
Atom  17H    basis set group =>   2
Atom  18C    basis set group =>   1
Atom  19H    basis set group =>   2
Atom  20C    basis set group =>   1
Atom  21H    basis set group =>   2
Atom  22C    basis set group =>   1
Atom  23C    basis set group =>   1
Atom  24H    basis set group =>   2
Atom  25H    basis set group =>   2
Atom  26C    basis set group =>   1
Atom  27H    basis set group =>   2
Atom  28H    basis set group =>   2
Atom  29C    basis set group =>   1
Atom  30H    basis set group =>   2
Atom  31H    basis set group =>   2
Atom  32C    basis set group =>   1
Atom  33H    basis set group =>   2
Atom  34C    basis set group =>   1
Atom  35H    basis set group =>   2
Atom  36C    basis set group =>   1
Atom  37H    basis set group =>   2
Atom  38H    basis set group =>   2
Atom  39C    basis set group =>   1
Atom  40H    basis set group =>   2
Atom  41H    basis set group =>   2
Atom  42H    basis set group =>   2
Atom  43C    basis set group =>   1
Atom  44C    basis set group =>   1
Atom  45H    basis set group =>   2
Atom  46H    basis set group =>   2
Atom  47H    basis set group =>   2
Atom  48H    basis set group =>   2
Atom  49C    basis set group =>   1
Atom  50C    basis set group =>   1
Atom  51C    basis set group =>   1
Atom  52H    basis set group =>   2
Atom  53H    basis set group =>   2
Atom  54C    basis set group =>   1
Atom  55C    basis set group =>   1
Atom  56C    basis set group =>   1
Atom  57H    basis set group =>   2
Atom  58H    basis set group =>   2
Atom  59C    basis set group =>   1
Atom  60C    basis set group =>   1
Atom  61H    basis set group =>   2
Atom  62H    basis set group =>   2
Atom  63H    basis set group =>   2
Atom  64H    basis set group =>   2
Atom  65H    basis set group =>   2
Atom  66H    basis set group =>   2
Atom  67H    basis set group =>   2
Atom  68H    basis set group =>   2
Atom  69H    basis set group =>   2
Atom  70H    basis set group =>   2
Atom  71H    basis set group =>   2
Atom  72H    basis set group =>   2

-------------------------
BASIS SET IN INPUT FORMAT
-------------------------

 # Basis set for element : H 
 NewGTO H 
 S 3 
   1      12.2518000000      0.0372173893
   2       1.8687100000      0.2538082070
   3       0.4182080000      0.7973867639
 S 1 
   1       0.1061000000      1.0000000000
 P 2 
   1       9.0000000000      0.0402678705
   2       1.0000000000      0.9880231245
  end;

 # Basis set for element : C 
 NewGTO C 
 S 5 
   1    1243.2000000000      0.0056300977
   2     187.1450000000      0.0419506039
   3      42.5126000000      0.1846643605
   4      11.7393000000      0.4665574214
   5       3.5054800000      0.4482347783
 S 2 
   1       5.3908900000     -0.1481148174
   2       0.4933410000      1.0519817143
 S 1 
   1       0.1497410000      1.0000000000
 P 3 
   1      59.6736000000      0.0113906672
   2       9.1805600000      0.1672414929
   3       1.9365800000      0.9041087436
 P 1 
   1       0.5262960000      1.0000000000
 P 1 
   1       0.1363190000      1.0000000000
 D 1 
   1       0.8000000000      1.0000000000
  end;

 # Basis set for element : O 
 NewGTO O 
 S 5 
   1    2288.6400000000      0.0054511382
   2     344.4160000000      0.0407189228
   3      78.2538000000      0.1813694209
   4      21.7195000000      0.4655368202
   5       6.5590700000      0.4512113212
 S 2 
   1      10.4656000000     -0.1502112012
   2       0.9643510000      1.0528679834
 S 1 
   1       0.2851270000      1.0000000000
 P 3 
   1     110.8840000000      0.0113058003
   2      17.0590000000      0.1699226452
   3       3.6899900000      0.9008060328
 P 1 
   1       0.9929960000      1.0000000000
 P 1 
   1       0.2449240000      1.0000000000
 D 1 
   1       1.0000000000      1.0000000000
  end;

---------------------------------
AUXILIARY/J BASIS SET INFORMATION
---------------------------------
There are 3 groups of distinct atoms

 Group   1 Type C   : 12s5p4d2f1g contracted to 6s4p3d1f1g pattern {711111/2111/211/2/1}
 Group   2 Type H   : 5s2p1d contracted to 3s1p1d pattern {311/2/1}
 Group   3 Type O   : 12s5p4d2f1g contracted to 6s4p3d1f1g pattern {711111/2111/211/2/1}

Atom   0C    basis set group =>   1
Atom   1C    basis set group =>   1
Atom   2C    basis set group =>   1
Atom   3H    basis set group =>   2
Atom   4H    basis set group =>   2
Atom   5C    basis set group =>   1
Atom   6C    basis set group =>   1
Atom   7C    basis set group =>   1
Atom   8H    basis set group =>   2
Atom   9H    basis set group =>   2
Atom  10H    basis set group =>   2
Atom  11H    basis set group =>   2
Atom  12O    basis set group =>   3
Atom  13H    basis set group =>   2
Atom  14C    basis set group =>   1
Atom  15C    basis set group =>   1
Atom  16H    basis set group =>   2
Atom  17H    basis set group =>   2
Atom  18C    basis set group =>   1
Atom  19H    basis set group =>   2
Atom  20C    basis set group =>   1
Atom  21H    basis set group =>   2
Atom  22C    basis set group =>   1
Atom  23C    basis set group =>   1
Atom  24H    basis set group =>   2
Atom  25H    basis set group =>   2
Atom  26C    basis set group =>   1
Atom  27H    basis set group =>   2
Atom  28H    basis set group =>   2
Atom  29C    basis set group =>   1
Atom  30H    basis set group =>   2
Atom  31H    basis set group =>   2
Atom  32C    basis set group =>   1
Atom  33H    basis set group =>   2
Atom  34C    basis set group =>   1
Atom  35H    basis set group =>   2
Atom  36C    basis set group =>   1
Atom  37H    basis set group =>   2
Atom  38H    basis set group =>   2
Atom  39C    basis set group =>   1
Atom  40H    basis set group =>   2
Atom  41H    basis set group =>   2
Atom  42H    basis set group =>   2
Atom  43C    basis set group =>   1
Atom  44C    basis set group =>   1
Atom  45H    basis set group =>   2
Atom  46H    basis set group =>   2
Atom  47H    basis set group =>   2
Atom  48H    basis set group =>   2
Atom  49C    basis set group =>   1
Atom  50C    basis set group =>   1
Atom  51C    basis set group =>   1
Atom  52H    basis set group =>   2
Atom  53H    basis set group =>   2
Atom  54C    basis set group =>   1
Atom  55C    basis set group =>   1
Atom  56C    basis set group =>   1
Atom  57H    basis set group =>   2
Atom  58H    basis set group =>   2
Atom  59C    basis set group =>   1
Atom  60C    basis set group =>   1
Atom  61H    basis set group =>   2
Atom  62H    basis set group =>   2
Atom  63H    basis set group =>   2
Atom  64H    basis set group =>   2
Atom  65H    basis set group =>   2
Atom  66H    basis set group =>   2
Atom  67H    basis set group =>   2
Atom  68H    basis set group =>   2
Atom  69H    basis set group =>   2
Atom  70H    basis set group =>   2
Atom  71H    basis set group =>   2
Atom  72H    basis set group =>   2

-------------------------------------
AUXILIARY/J BASIS SET IN INPUT FORMAT
-------------------------------------

 # Auxiliary/J basis set for element : H 
 NewAuxJGTO H 
 S 3 
   1      15.6752927000      0.1007184237
   2       3.6063578000      0.3404257499
   3       1.2080016000      0.6491996172
 S 1 
   1       0.4726794000      1.0000000000
 S 1 
   1       0.2018100000      1.0000000000
 P 2 
   1       2.0281365000      0.5596620919
   2       0.5358730000      0.5596620919
 D 1 
   1       2.2165124000      1.0000000000
  end;

 # Auxiliary/J basis set for element : C 
 NewAuxJGTO C 
 S 7 
   1    1861.0916331000      0.0134602335
   2     642.9939764000      0.0299160374
   3     235.1105725000      0.1008649584
   4      90.7028894000      0.2370970548
   5      36.7794552000      0.3924037254
   6      15.6046273000      0.3195862154
   7       6.8907294000      0.0530104441
 S 1 
   1       3.1478850000     -1.0000000000
 S 1 
   1       1.4777287000      1.0000000000
 S 1 
   1       0.7076466000      1.0000000000
 S 1 
   1       0.3430122000      1.0000000000
 S 1 
   1       0.1669453000      1.0000000000
 P 2 
   1      13.5472892000     -0.6769313712
   2       5.4669419000     -0.3779500978
 P 1 
   1       2.1751721000      1.0000000000
 P 1 
   1       0.8582194000      1.0000000000
 P 1 
   1       0.3376720000      1.0000000000
 D 2 
   1       5.9287253000     -0.3533329857
   2       1.9809209000     -0.7456525731
 D 1 
   1       0.8055417000     -1.0000000000
 D 1 
   1       0.3531244000     -1.0000000000
 F 2 
   1       1.6755626000      0.6311076882
   2       0.5997536000      0.4968166032
 G 1 
   1       1.0024600000     -1.0000000000
  end;

 # Auxiliary/J basis set for element : O 
 NewAuxJGTO O 
 S 7 
   1    2876.8216605000      0.0168151159
   2    1004.7443032000      0.0340137548
   3     369.7579954000      0.1194951309
   4     142.9442404000      0.2664627624
   5      57.8366425000      0.4202764046
   6      24.3864983000      0.2765077335
   7      10.6622662000      0.0057008815
 S 1 
   1       4.8070437000     -1.0000000000
 S 1 
   1       2.2210770000      1.0000000000
 S 1 
   1       1.0447795000      1.0000000000
 S 1 
   1       0.4968425000      1.0000000000
 S 1 
   1       0.2371384000      1.0000000000
 P 2 
   1      64.2613382000     -0.2731534179
   2      16.3006076000     -0.8168011598
 P 1 
   1       4.3550542000      1.0000000000
 P 1 
   1       1.2019554000      1.0000000000
 P 1 
   1       0.3354196000      1.0000000000
 D 2 
   1       9.2146611000     -0.4661230638
   2       2.8435251000     -0.6600908911
 D 1 
   1       0.9955759000     -1.0000000000
 D 1 
   1       0.3649441000     -1.0000000000
 F 2 
   1       2.6420115000      0.5931563945
   2       0.7345613000      0.5931563945
 G 1 
   1       1.3931000000     -1.0000000000
  end;



           ************************************************************
           *        Program running with 4 parallel MPI-processes     *
           *              working on a common directory               *
           ************************************************************
------------------------------------------------------------------------------
                           ORCA GTO INTEGRAL CALCULATION
                           -- RI-GTO INTEGRALS CHOSEN --
------------------------------------------------------------------------------
------------------------------------------------------------------------------
                   ___                                                        
                  /   \      - P O W E R E D   B Y -                         
                 /     \                                                     
                 |  |  |   _    _      __       _____    __    __             
                 |  |  |  | |  | |    /  \     |  _  \  |  |  /  |          
                  \  \/   | |  | |   /    \    | | | |  |  | /  /          
                 / \  \   | |__| |  /  /\  \   | |_| |  |  |/  /          
                |  |  |   |  __  | /  /__\  \  |    /   |      \           
                |  |  |   | |  | | |   __   |  |    \   |  |\   \          
                \     /   | |  | | |  |  |  |  | |\  \  |  | \   \       
                 \___/    |_|  |_| |__|  |__|  |_| \__\ |__|  \__/        
                                                                              
                      - O R C A' S   B I G   F R I E N D -                    
                                      &                                       
                       - I N T E G R A L  F E E D E R -                       
                                                                              
 v1 FN, 2020, v2 2021                                                         
------------------------------------------------------------------------------


Reading SHARK input file inpS.SHARKINP.tmp ... ok
----------------------
SHARK INTEGRAL PACKAGE
----------------------

Number of atoms                             ...     73
Number of basis functions                   ...    713
Number of shells                            ...    335
Maximum angular momentum                    ...      2
Integral batch strategy                     ... SHARK/LIBINT Hybrid
RI-J (if used) integral strategy            ... SPLIT-RIJ (Revised 2003 algorithm where possible)
Printlevel                                  ...      1
Contraction scheme used                     ... SEGMENTED contraction
Coulomb Range Separation                    ... NOT USED
Exchange Range Separation                   ... NOT USED
Finite Nucleus Model                        ... NOT USED
Auxiliary Coulomb fitting basis             ... AVAILABLE
   # of basis functions in Aux-J            ...   1905
   # of shells in Aux-J                     ...    655
   Maximum angular momentum in Aux-J        ...      4
Auxiliary J/K fitting basis                 ... NOT available
Auxiliary Correlation fitting basis         ... NOT available
Auxiliary 'external' fitting basis          ... NOT available
Integral threshold                          ...     3.000000e-11
Primitive cut-off                           ...     1.000000e-12
Primitive pair pre-selection threshold      ...     1.000000e-12

Calculating pre-screening integrals         ... done (  0.0 sec) Dimension = 335
Organizing shell pair data                  ... done (  0.1 sec)
Shell pair information
Total number of shell pairs                 ...     56280
Shell pairs after pre-screening             ...     31195
Total number of primitive shell pairs       ...    225367
Primitive shell pairs kept                  ...     73537
          la=0 lb=0:   9520 shell pairs
          la=1 lb=0:  12821 shell pairs
          la=1 lb=1:   4195 shell pairs
          la=2 lb=0:   2730 shell pairs
          la=2 lb=1:   1735 shell pairs
          la=2 lb=2:    194 shell pairs

Calculating one electron integrals          ... done (  0.1 sec)
Calculating RI/J V-Matrix + Cholesky decomp.... done (  0.1 sec)
Calculating Nuclear repulsion               ... done (  0.0 sec) ENN=   2757.275562566319 Eh

SHARK setup successfully completed in   0.6 seconds

Maximum memory used throughout the entire GTOINT-calculation: 60.8 MB


           ************************************************************
           *        Program running with 4 parallel MPI-processes     *
           *              working on a common directory               *
           ************************************************************
-------------------------------------------------------------------------------
                                 ORCA SCF
-------------------------------------------------------------------------------

------------
SCF SETTINGS
------------
Hamiltonian:
 Density Functional     Method          .... DFT(GTOs)
 Exchange Functional    Exchange        .... revTPSS
 Correlation Functional Correlation     .... revTPSS
 LDA part of GGA corr.  LDAOpt          .... PW91-LDA
 Gradients option       PostSCFGGA      .... off
   Density functional embedding theory  .... OFF
 RI-approximation to the Coulomb term is turned on
   Number of AuxJ basis functions       .... 1905


General Settings:
 Integral files         IntName         .... inpS
 Hartree-Fock type      HFTyp           .... RHF
 Total Charge           Charge          ....    0
 Multiplicity           Mult            ....    1
 Number of Electrons    NEL             ....  220
 Basis Dimension        Dim             ....  713
 Nuclear Repulsion      ENuc            ....   2757.2755625663 Eh

Convergence Acceleration:
 DIIS                   CNVDIIS         .... on
   Start iteration      DIISMaxIt       ....    12
   Startup error        DIISStart       ....  0.200000
   # of expansion vecs  DIISMaxEq       ....     5
   Bias factor          DIISBfac        ....   1.050
   Max. coefficient     DIISMaxC        ....  10.000
 Trust-Rad. Augm. Hess. CNVTRAH         .... auto
   Auto Start mean grad. ratio tolernc. ....  1.125000
   Auto Start start iteration           ....    20
   Auto Start num. interpolation iter.  ....    10
   Max. Number of Micro iterations      ....    16
   Max. Number of Macro iterations      .... Maxiter - #DIIS iter
   Number of Davidson start vectors     ....     2
   Converg. threshold I  (grad. norm)   ....   1.000e-04
   Converg. threshold II (energy diff.) ....   1.000e-07
   Grad. Scal. Fac. for Micro threshold ....   0.100
   Minimum threshold for Micro iter.    ....   0.010
   NR start threshold (gradient norm)   ....   0.001
   Initial trust radius                 ....   0.400
   Minimum AH scaling param. (alpha)    ....   1.000
   Maximum AH scaling param. (alpha)    .... 1000.000
   Orbital update algorithm             .... Taylor
   White noise on init. David. guess    .... on
   Maximum white noise                  ....   0.010
   Quad. conv. algorithm                .... NR
 SOSCF                  CNVSOSCF        .... off
 Level Shifting         CNVShift        .... on
   Level shift para.    LevelShift      ....    0.2500
   Turn off err/grad.   ShiftErr        ....    0.0010
 Zerner damping         CNVZerner       .... off
 Static damping         CNVDamp         .... on
   Fraction old density DampFac         ....    0.7000
   Max. Damping (<1)    DampMax         ....    0.9800
   Min. Damping (>=0)   DampMin         ....    0.0000
   Turn off err/grad.   DampErr         ....    0.1000
 Fernandez-Rico         CNVRico         .... off

SCF Procedure:
 Maximum # iterations   MaxIter         ....   125
 SCF integral mode      SCFMode         .... Direct
   Integral package                     .... SHARK and LIBINT hybrid scheme
 Reset frequency        DirectResetFreq ....    20
 Integral Threshold     Thresh          ....  3.000e-11 Eh
 Primitive CutOff       TCut            ....  1.000e-12 Eh

Convergence Tolerance:
 Convergence Check Mode ConvCheckMode   .... Total+1el-Energy
 Convergence forced     ConvForced      .... 0
 Energy Change          TolE            ....  1.000e-07 Eh
 1-El. energy change                    ....  1.000e-04 Eh
 DIIS Error             TolErr          ....  1.000e-07


Diagonalization of the overlap matrix:
Smallest eigenvalue                        ... 5.041e-04
Time for diagonalization                   ...    0.063 sec
Threshold for overlap eigenvalues          ... 1.000e-08
Number of eigenvalues below threshold      ... 0
Time for construction of square roots      ...    0.055 sec
Total time needed                          ...    0.120 sec

Time for model grid setup =    0.772 sec

------------------------------
INITIAL GUESS: MODEL POTENTIAL
------------------------------
Loading Hartree-Fock densities                     ... done
Calculating cut-offs                               ... done
Initializing the effective Hamiltonian             ... done
Setting up the integral package (SHARK)            ... done
Starting the Coulomb interaction                   ... done (   0.7 sec)
Reading the grid                                   ... done
Mapping shells                                     ... done
Starting the XC term evaluation                    ... done (   0.3 sec)
  promolecular density results
     # of electrons  =    219.986009771
     EX              =   -164.432475461
     EC              =     -7.324361904
     EX+EC           =   -171.756837365
Transforming the Hamiltonian                       ... done (   0.0 sec)
Diagonalizing the Hamiltonian                      ... done (   0.1 sec)
Back transforming the eigenvectors                 ... done (   0.0 sec)
Now organizing SCF variables                       ... done
                      ------------------
                      INITIAL GUESS DONE (   1.9 sec)
                      ------------------
-------------------
DFT GRID GENERATION
-------------------

General Integration Accuracy     IntAcc      ... 4.388
Radial Grid Type                 RadialGrid  ... OptM3 with GC (2021)
Angular Grid (max. ang.)         AngularGrid ... 4 (Lebedev-302)
Angular grid pruning method      GridPruning ... 4 (adaptive)
Weight generation scheme         WeightScheme... Becke
Basis function cutoff            BFCut       ... 1.0000e-11
Integration weight cutoff        WCut        ... 1.0000e-14
Angular grids for H and He will be reduced by one unit
Partially contracted basis set               ... off
Rotationally invariant grid construction     ... off

Total number of grid points                  ...   310007
Total number of batches                      ...     4880
Average number of points per batch           ...       63
Average number of grid points per atom       ...     4247
Time for grid setup =    3.001 sec


--------------------
CPCM SOLVATION MODEL
--------------------
CPCM parameters:
  Epsilon                                         ...       4.9000
  Refrac                                          ...       1.4500
  Rsolv                                           ...       1.3000
  Surface type                                    ... GAUSSIAN VDW
  Epsilon function type                           ...         CPCM
Radii:
 Radius for C  used is    3.8550 Bohr (=   2.0400 Ang.)
 Radius for H  used is    2.4944 Bohr (=   1.3200 Ang.)
 Radius for O  used is    3.4469 Bohr (=   1.8240 Ang.)
Calculating surface                               ...        done! (  0.0s)
GEPOL surface points                              ...         3652
GEPOL Volume                                      ...    3603.5464
GEPOL Surface-area                                ...    1791.5392
Calculating surface distance matrix               ...        done! (  0.1s)
Performing Cholesky decomposition & store         ...        done! (  0.5s)
Overall time for CPCM initialization              ...                 0.6s
--------------
SCF ITERATIONS
--------------
ITER       Energy         Delta-E        Max-DP      RMS-DP      [F,P]     Damp
               ***  Starting incremental Fock matrix formation  ***

  HOMO= 109 E= -1.860 eV LUMO=  7.831 eV gap=   9.691 eV
  0  -1167.5233024732   0.000000000000 0.05307949  0.00083059  0.2612310 0.7000

  HOMO= 109 E= -3.342 eV LUMO=  6.718 eV gap=  10.060 eV
  1  -1167.8965119760  -0.373209502812 0.02891936  0.00061390  0.1017446 0.7000
                               ***Turning on DIIS***

  HOMO= 109 E= -4.319 eV LUMO=  5.827 eV gap=  10.146 eV
  2  -1168.0429363687  -0.146424392746 0.05174942  0.00101282  0.0306364 0.0000

  HOMO= 109 E= -4.949 eV LUMO=  5.233 eV gap=  10.182 eV
  3  -1168.2400016779  -0.197065309202 0.02325951  0.00047388  0.0534479 0.0000

  HOMO= 109 E= -4.986 eV LUMO=  5.196 eV gap=  10.182 eV
  4  -1168.3071342275  -0.067132549549 0.00743328  0.00015341  0.0103634 0.0000

  HOMO= 109 E= -4.937 eV LUMO=  5.253 eV gap=  10.189 eV
  5  -1168.3102348477  -0.003100620248 0.00306855  0.00005688  0.0091048 0.0000

  HOMO= 109 E= -4.918 eV LUMO=  5.269 eV gap=  10.187 eV
  6  -1168.3105004826  -0.000265634871 0.00125141  0.00001930  0.0029084 0.0000

  HOMO= 109 E= -4.919 eV LUMO= -1.535 eV gap=   3.384 eV
  7  -1168.3105209386  -0.000020456013 0.00070330  0.00001176  0.0006013 0.0000

  HOMO= 109 E= -4.917 eV LUMO= -1.534 eV gap=   3.384 eV
  8  -1168.3105240216  -0.000003082994 0.00027369  0.00000292  0.0003895 0.0000

  HOMO= 109 E= -4.915 eV LUMO= -1.532 eV gap=   3.384 eV
  9  -1168.3105246376  -0.000000616028 0.00017464  0.00000160  0.0002806 0.0000

  HOMO= 109 E= -4.916 eV LUMO= -1.532 eV gap=   3.384 eV
 10  -1168.3105249075  -0.000000269838 0.00006013  0.00000069  0.0001105 0.0000

  HOMO= 109 E= -4.916 eV LUMO= -1.532 eV gap=   3.384 eV
 11  -1168.3105249393  -0.000000031823 0.00002494  0.00000027  0.0000316 0.0000

  HOMO= 109 E= -4.916 eV LUMO= -1.532 eV gap=   3.384 eV
 12  -1168.3105249208   0.000000018503 0.00001049  0.00000012  0.0000160 0.0000

  HOMO= 109 E= -4.916 eV LUMO= -1.532 eV gap=   3.384 eV
 13  -1168.3105249419  -0.000000021115 0.00000530  0.00000005  0.0000082 0.0000
                 **** Energy Check signals convergence ****

               *****************************************************
               *                     SUCCESS                       *
               *           SCF CONVERGED AFTER  14 CYCLES          *
               *****************************************************


----------------
TOTAL SCF ENERGY
----------------

Total Energy       :        -1168.31052496 Eh          -31791.34563 eV

Components:
Nuclear Repulsion  :         2757.27556257 Eh           75029.28247 eV
Electronic Energy  :        -3925.58608753 Eh         -106820.62810 eV
One Electron Energy:        -7060.95025002 Eh         -192138.22442 eV
Two Electron Energy:         3135.36416249 Eh           85317.59632 eV
CPCM Dielectric    :           -0.01036392 Eh              -0.28202 eV

Virial components:
Potential Energy   :        -2330.41514490 Eh          -63413.81999 eV
Kinetic Energy     :         1162.10461993 Eh           31622.47436 eV
Virial Ratio       :            2.00534023


DFT components:
N(Alpha)           :      110.000089099103 electrons
N(Beta)            :      110.000089099103 electrons
N(Total)           :      220.000178198205 electrons
E(X)               :     -169.583966367700 Eh       
E(C)               :       -7.441891198894 Eh       
E(XC)              :     -177.025857566595 Eh       
DFET-embed. en.    :        0.000000000000 Eh       
CPCM Solvation Model Properties:
Surface-charge          :           -0.04553809
Charge-correction       :           -0.00002825 Eh              -0.00077 eV
Free-energy (cav+disp)  :  This term is not implemented in the current solvation scheme

---------------
SCF CONVERGENCE
---------------

  Last Energy change         ...   -2.1809e-08  Tolerance :   1.0000e-07
  Last MAX-Density change    ...    2.9313e-06  Tolerance :   1.0000e-05
  Last RMS-Density change    ...    2.7079e-08  Tolerance :   1.0000e-06
  Last DIIS Error            ...    3.2097e-06  Tolerance :   1.0000e-07

             **** THE GBW FILE WAS UPDATED (inpS.gbw) ****
             **** DENSITY inpS.scfp WAS UPDATED ****
             **** ENERGY FILE WAS UPDATED (inpS.en.tmp) ****
             **** THE GBW FILE WAS UPDATED (inpS.gbw) ****
             **** DENSITY inpS.scfp WAS UPDATED ****
----------------
ORBITAL ENERGIES
----------------

  NO   OCC          E(Eh)            E(eV) 
   0   2.0000     -18.905575      -514.4468 
   1   2.0000     -10.057046      -273.6661 
   2   2.0000     -10.015865      -272.5455 
   3   2.0000     -10.013431      -272.4793 
   4   2.0000     -10.013327      -272.4765 
   5   2.0000     -10.011266      -272.4204 
   6   2.0000     -10.010842      -272.4089 
   7   2.0000     -10.010200      -272.3914 
   8   2.0000     -10.009860      -272.3821 
   9   2.0000     -10.008339      -272.3407 
  10   2.0000     -10.007796      -272.3260 
  11   2.0000     -10.006721      -272.2967 
  12   2.0000     -10.006553      -272.2921 
  13   2.0000     -10.006536      -272.2917 
  14   2.0000     -10.005553      -272.2649 
  15   2.0000     -10.005149      -272.2539 
  16   2.0000     -10.004144      -272.2266 
  17   2.0000     -10.000961      -272.1400 
  18   2.0000     -10.000214      -272.1196 
  19   2.0000      -9.999053      -272.0881 
  20   2.0000      -9.998427      -272.0710 
  21   2.0000      -9.998358      -272.0692 
  22   2.0000      -9.998274      -272.0669 
  23   2.0000      -9.997923      -272.0573 
  24   2.0000      -9.997200      -272.0377 
  25   2.0000      -9.996707      -272.0242 
  26   2.0000      -9.995767      -271.9987 
  27   2.0000      -9.994821      -271.9729 
  28   2.0000      -9.994197      -271.9559 
  29   2.0000      -0.955825       -26.0093 
  30   2.0000      -0.807063       -21.9613 
  31   2.0000      -0.790985       -21.5238 
  32   2.0000      -0.770481       -20.9659 
  33   2.0000      -0.756583       -20.5877 
  34   2.0000      -0.734088       -19.9755 
  35   2.0000      -0.727336       -19.7918 
  36   2.0000      -0.708376       -19.2759 
  37   2.0000      -0.707989       -19.2654 
  38   2.0000      -0.693261       -18.8646 
  39   2.0000      -0.675337       -18.3769 
  40   2.0000      -0.659185       -17.9373 
  41   2.0000      -0.654168       -17.8008 
  42   2.0000      -0.634948       -17.2778 
  43   2.0000      -0.628643       -17.1062 
  44   2.0000      -0.622872       -16.9492 
  45   2.0000      -0.616111       -16.7652 
  46   2.0000      -0.590226       -16.0609 
  47   2.0000      -0.587670       -15.9913 
  48   2.0000      -0.556135       -15.1332 
  49   2.0000      -0.548951       -14.9377 
  50   2.0000      -0.547378       -14.8949 
  51   2.0000      -0.535505       -14.5718 
  52   2.0000      -0.526630       -14.3303 
  53   2.0000      -0.518356       -14.1052 
  54   2.0000      -0.489398       -13.3172 
  55   2.0000      -0.478615       -13.0238 
  56   2.0000      -0.472132       -12.8474 
  57   2.0000      -0.464024       -12.6267 
  58   2.0000      -0.451183       -12.2773 
  59   2.0000      -0.442277       -12.0350 
  60   2.0000      -0.431776       -11.7492 
  61   2.0000      -0.428287       -11.6543 
  62   2.0000      -0.421913       -11.4808 
  63   2.0000      -0.415366       -11.3027 
  64   2.0000      -0.413763       -11.2591 
  65   2.0000      -0.411917       -11.2088 
  66   2.0000      -0.403934       -10.9916 
  67   2.0000      -0.395942       -10.7741 
  68   2.0000      -0.395494       -10.7619 
  69   2.0000      -0.391582       -10.6555 
  70   2.0000      -0.386889       -10.5278 
  71   2.0000      -0.380227       -10.3465 
  72   2.0000      -0.376101       -10.2342 
  73   2.0000      -0.371850       -10.1186 
  74   2.0000      -0.368478       -10.0268 
  75   2.0000      -0.357917        -9.7394 
  76   2.0000      -0.357313        -9.7230 
  77   2.0000      -0.356694        -9.7061 
  78   2.0000      -0.353059        -9.6072 
  79   2.0000      -0.351539        -9.5659 
  80   2.0000      -0.346983        -9.4419 
  81   2.0000      -0.343977        -9.3601 
  82   2.0000      -0.342455        -9.3187 
  83   2.0000      -0.336819        -9.1653 
  84   2.0000      -0.335491        -9.1292 
  85   2.0000      -0.331498        -9.0205 
  86   2.0000      -0.325192        -8.8489 
  87   2.0000      -0.323166        -8.7938 
  88   2.0000      -0.320205        -8.7132 
  89   2.0000      -0.314586        -8.5603 
  90   2.0000      -0.310137        -8.4393 
  91   2.0000      -0.305317        -8.3081 
  92   2.0000      -0.302071        -8.2198 
  93   2.0000      -0.293982        -7.9996 
  94   2.0000      -0.289711        -7.8834 
  95   2.0000      -0.286230        -7.7887 
  96   2.0000      -0.285269        -7.7626 
  97   2.0000      -0.284101        -7.7308 
  98   2.0000      -0.279843        -7.6149 
  99   2.0000      -0.278169        -7.5694 
 100   2.0000      -0.276639        -7.5277 
 101   2.0000      -0.271164        -7.3788 
 102   2.0000      -0.268759        -7.3133 
 103   2.0000      -0.267808        -7.2874 
 104   2.0000      -0.260883        -7.0990 
 105   2.0000      -0.248352        -6.7580 
 106   2.0000      -0.233351        -6.3498 
 107   2.0000      -0.227282        -6.1847 
 108   2.0000      -0.212933        -5.7942 
 109   2.0000      -0.180656        -4.9159 
 110   0.0000      -0.056307        -1.5322 
 111   0.0000      -0.013101        -0.3565 
 112   0.0000      -0.005488        -0.1493 
 113   0.0000       0.032132         0.8743 
 114   0.0000       0.039907         1.0859 
 115   0.0000       0.042961         1.1690 
 116   0.0000       0.046916         1.2766 
 117   0.0000       0.048798         1.3279 
 118   0.0000       0.051570         1.4033 
 119   0.0000       0.056473         1.5367 
 120   0.0000       0.060834         1.6554 
 121   0.0000       0.068395         1.8611 
 122   0.0000       0.071192         1.9372 
 123   0.0000       0.071211         1.9377 
 124   0.0000       0.075044         2.0420 
 125   0.0000       0.078191         2.1277 
 126   0.0000       0.084322         2.2945 
 127   0.0000       0.085889         2.3372 
 128   0.0000       0.088674         2.4129 
 129   0.0000       0.093667         2.5488 
 130   0.0000       0.094820         2.5802 
 131   0.0000       0.100926         2.7463 
 132   0.0000       0.104676         2.8484 
 133   0.0000       0.106629         2.9015 
 134   0.0000       0.108249         2.9456 
 135   0.0000       0.111002         3.0205 
 136   0.0000       0.114641         3.1196 
 137   0.0000       0.122214         3.3256 
 138   0.0000       0.122902         3.3443 
 139   0.0000       0.125549         3.4164 
 140   0.0000       0.127445         3.4679 
 141   0.0000       0.128013         3.4834 
 142   0.0000       0.130372         3.5476 
 143   0.0000       0.132451         3.6042 
 144   0.0000       0.137176         3.7328 
 145   0.0000       0.140445         3.8217 
 146   0.0000       0.142728         3.8838 
 147   0.0000       0.145143         3.9496 
 148   0.0000       0.146448         3.9851 
 149   0.0000       0.149187         4.0596 
 150   0.0000       0.152171         4.1408 
 151   0.0000       0.156090         4.2474 
 152   0.0000       0.160524         4.3681 
 153   0.0000       0.164334         4.4718 
 154   0.0000       0.168325         4.5803 
 155   0.0000       0.168804         4.5934 
 156   0.0000       0.174187         4.7399 
 157   0.0000       0.177580         4.8322 
 158   0.0000       0.178123         4.8470 
 159   0.0000       0.184022         5.0075 
 160   0.0000       0.188076         5.1178 
 161   0.0000       0.189255         5.1499 
 162   0.0000       0.196333         5.3425 
 163   0.0000       0.197506         5.3744 
 164   0.0000       0.201388         5.4800 
 165   0.0000       0.203315         5.5325 
 166   0.0000       0.207698         5.6517 
 167   0.0000       0.213752         5.8165 
 168   0.0000       0.214545         5.8381 
 169   0.0000       0.216038         5.8787 
 170   0.0000       0.226958         6.1758 
 171   0.0000       0.228255         6.2111 
 172   0.0000       0.229806         6.2533 
 173   0.0000       0.230817         6.2809 
 174   0.0000       0.238352         6.4859 
 175   0.0000       0.244177         6.6444 
 176   0.0000       0.247780         6.7424 
 177   0.0000       0.255794         6.9605 
 178   0.0000       0.262657         7.1473 
 179   0.0000       0.266471         7.2511 
 180   0.0000       0.273040         7.4298 
 181   0.0000       0.274902         7.4805 
 182   0.0000       0.285484         7.7684 
 183   0.0000       0.294180         8.0050 
 184   0.0000       0.297560         8.0970 
 185   0.0000       0.331723         9.0266 
 186   0.0000       0.334910         9.1134 
 187   0.0000       0.339618         9.2415 
 188   0.0000       0.347520         9.4565 
 189   0.0000       0.349211         9.5025 
 190   0.0000       0.352453         9.5907 
 191   0.0000       0.364611         9.9216 
 192   0.0000       0.369711        10.0604 
 193   0.0000       0.372287        10.1304 
 194   0.0000       0.376434        10.2433 
 195   0.0000       0.377988        10.2856 
 196   0.0000       0.382455        10.4071 
 197   0.0000       0.385659        10.4943 
 198   0.0000       0.389930        10.6105 
 199   0.0000       0.397277        10.8105 
 200   0.0000       0.403312        10.9747 
 201   0.0000       0.407531        11.0895 
 202   0.0000       0.412408        11.2222 
 203   0.0000       0.420919        11.4538 
 204   0.0000       0.422815        11.5054 
 205   0.0000       0.433160        11.7869 
 206   0.0000       0.437349        11.9009 
 207   0.0000       0.439103        11.9486 
 208   0.0000       0.452329        12.3085 
 209   0.0000       0.457505        12.4494 
 210   0.0000       0.461856        12.5677 
 211   0.0000       0.464652        12.6438 
 212   0.0000       0.468776        12.7560 
 213   0.0000       0.476954        12.9786 
 214   0.0000       0.479825        13.0567 
 215   0.0000       0.484717        13.1898 
 216   0.0000       0.488488        13.2924 
 217   0.0000       0.493098        13.4179 
 218   0.0000       0.497671        13.5423 
 219   0.0000       0.504744        13.7348 
 220   0.0000       0.509971        13.8770 
 221   0.0000       0.513622        13.9764 
 222   0.0000       0.520614        14.1666 
 223   0.0000       0.525973        14.3125 
 224   0.0000       0.529871        14.4185 
 225   0.0000       0.532261        14.4836 
 226   0.0000       0.538546        14.6546 
 227   0.0000       0.542953        14.7745 
 228   0.0000       0.544421        14.8144 
 229   0.0000       0.545696        14.8491 
 230   0.0000       0.550718        14.9858 
 231   0.0000       0.552928        15.0459 
 232   0.0000       0.557168        15.1613 
 233   0.0000       0.562041        15.2939 
 234   0.0000       0.564616        15.3640 
 235   0.0000       0.569822        15.5056 
 236   0.0000       0.570918        15.5355 
 237   0.0000       0.573706        15.6113 
 238   0.0000       0.575654        15.6643 
 239   0.0000       0.577404        15.7120 
 240   0.0000       0.580032        15.7835 
 241   0.0000       0.582817        15.8593 
 242   0.0000       0.585258        15.9257 
 243   0.0000       0.588622        16.0172 
 244   0.0000       0.592841        16.1320 
 245   0.0000       0.594254        16.1705 
 246   0.0000       0.598666        16.2905 
 247   0.0000       0.601056        16.3556 
 248   0.0000       0.601313        16.3626 
 249   0.0000       0.603211        16.4142 
 250   0.0000       0.606106        16.4930 
 251   0.0000       0.608917        16.5695 
 252   0.0000       0.612424        16.6649 
 253   0.0000       0.613947        16.7064 
 254   0.0000       0.618597        16.8329 
 255   0.0000       0.619667        16.8620 
 256   0.0000       0.624039        16.9810 
 257   0.0000       0.627261        17.0686 
 258   0.0000       0.628930        17.1141 
 259   0.0000       0.629412        17.1272 
 260   0.0000       0.632758        17.2182 
 261   0.0000       0.637301        17.3419 
 262   0.0000       0.638943        17.3865 
 263   0.0000       0.642589        17.4857 
 264   0.0000       0.644149        17.5282 
 265   0.0000       0.645795        17.5730 
 266   0.0000       0.649348        17.6697 
 267   0.0000       0.652193        17.7471 
 268   0.0000       0.655632        17.8407 
 269   0.0000       0.659662        17.9503 
 270   0.0000       0.659992        17.9593 
 271   0.0000       0.663384        18.0516 
 272   0.0000       0.664702        18.0875 
 273   0.0000       0.669839        18.2273 
 274   0.0000       0.673806        18.3352 
 275   0.0000       0.674962        18.3667 
 276   0.0000       0.681287        18.5388 
 277   0.0000       0.681735        18.5509 
 278   0.0000       0.683496        18.5989 
 279   0.0000       0.688586        18.7374 
 280   0.0000       0.694795        18.9063 
 281   0.0000       0.701640        19.0926 
 282   0.0000       0.704697        19.1758 
 283   0.0000       0.707804        19.2603 
 284   0.0000       0.712662        19.3925 
 285   0.0000       0.715986        19.4830 
 286   0.0000       0.720289        19.6001 
 287   0.0000       0.723183        19.6788 
 288   0.0000       0.725134        19.7319 
 289   0.0000       0.734759        19.9938 
 290   0.0000       0.737230        20.0611 
 291   0.0000       0.741860        20.1870 
 292   0.0000       0.746939        20.3253 
 293   0.0000       0.748120        20.3574 
 294   0.0000       0.758745        20.6465 
 295   0.0000       0.762033        20.7360 
 296   0.0000       0.765877        20.8406 
 297   0.0000       0.775921        21.1139 
 298   0.0000       0.782039        21.2804 
 299   0.0000       0.782807        21.3013 
 300   0.0000       0.795835        21.6558 
 301   0.0000       0.805181        21.9101 
 302   0.0000       0.817268        22.2390 
 303   0.0000       0.829344        22.5676 
 304   0.0000       0.835813        22.7436 
 305   0.0000       0.845028        22.9944 
 306   0.0000       0.857540        23.3348 
 307   0.0000       0.873677        23.7740 
 308   0.0000       0.886900        24.1338 
 309   0.0000       0.897688        24.4273 
 310   0.0000       0.915835        24.9211 
 311   0.0000       0.925593        25.1867 
 312   0.0000       0.939032        25.5524 
 313   0.0000       0.952731        25.9251 
 314   0.0000       0.966450        26.2985 
 315   0.0000       0.975283        26.5388 
 316   0.0000       0.987816        26.8798 
 317   0.0000       1.022761        27.8307 
 318   0.0000       1.032552        28.0972 
 319   0.0000       1.043795        28.4031 
 320   0.0000       1.048827        28.5400 
 321   0.0000       1.062875        28.9223 
 322   0.0000       1.069283        29.0967 
 323   0.0000       1.108935        30.1757 
 324   0.0000       1.122001        30.5312 
 325   0.0000       1.125046        30.6141 
 326   0.0000       1.142258        31.0824 
 327   0.0000       1.146412        31.1955 
 328   0.0000       1.168082        31.7851 
 329   0.0000       1.181367        32.1466 
 330   0.0000       1.196285        32.5526 
 331   0.0000       1.206961        32.8431 
 332   0.0000       1.227169        33.3930 
 333   0.0000       1.236934        33.6587 
 334   0.0000       1.256670        34.1957 
 335   0.0000       1.263525        34.3823 
 336   0.0000       1.276225        34.7279 
 337   0.0000       1.280662        34.8486 
 338   0.0000       1.290000        35.1027 
 339   0.0000       1.297719        35.3127 
 340   0.0000       1.318456        35.8770 
 341   0.0000       1.328097        36.1394 
 342   0.0000       1.338831        36.4314 
 343   0.0000       1.361194        37.0400 
 344   0.0000       1.366759        37.1914 
 345   0.0000       1.378248        37.5040 
 346   0.0000       1.392308        37.8866 
 347   0.0000       1.397876        38.0382 
 348   0.0000       1.408181        38.3186 
 349   0.0000       1.416496        38.5448 
 350   0.0000       1.430811        38.9344 
 351   0.0000       1.435218        39.0543 
 352   0.0000       1.442657        39.2567 
 353   0.0000       1.458064        39.6759 
 354   0.0000       1.462311        39.7915 
 355   0.0000       1.469425        39.9851 
 356   0.0000       1.477963        40.2174 
 357   0.0000       1.491310        40.5806 
 358   0.0000       1.502042        40.8726 
 359   0.0000       1.509100        41.0647 
 360   0.0000       1.516261        41.2596 
 361   0.0000       1.521232        41.3948 
 362   0.0000       1.535794        41.7911 
 363   0.0000       1.548569        42.1387 
 364   0.0000       1.557582        42.3840 
 365   0.0000       1.561456        42.4894 
 366   0.0000       1.574450        42.8430 
 367   0.0000       1.575937        42.8834 
 368   0.0000       1.591565        43.3087 
 369   0.0000       1.599763        43.5318 
 370   0.0000       1.601812        43.5875 
 371   0.0000       1.613971        43.9184 
 372   0.0000       1.623396        44.1748 
 373   0.0000       1.627265        44.2801 
 374   0.0000       1.636171        44.5225 
 375   0.0000       1.650669        44.9170 
 376   0.0000       1.655925        45.0600 
 377   0.0000       1.667069        45.3633 
 378   0.0000       1.673875        45.5485 
 379   0.0000       1.682874        45.7933 
 380   0.0000       1.692240        46.0482 
 381   0.0000       1.696532        46.1650 
 382   0.0000       1.702632        46.3310 
 383   0.0000       1.707761        46.4705 
 384   0.0000       1.714055        46.6418 
 385   0.0000       1.722613        46.8747 
 386   0.0000       1.726140        46.9707 
 387   0.0000       1.733209        47.1630 
 388   0.0000       1.737253        47.2731 
 389   0.0000       1.740106        47.3507 
 390   0.0000       1.745764        47.5046 
 391   0.0000       1.750741        47.6401 
 392   0.0000       1.752293        47.6823 
 393   0.0000       1.765051        48.0295 
 394   0.0000       1.768675        48.1281 
 395   0.0000       1.772911        48.2434 
 396   0.0000       1.779369        48.4191 
 397   0.0000       1.784949        48.5709 
 398   0.0000       1.786178        48.6044 
 399   0.0000       1.787122        48.6300 
 400   0.0000       1.799768        48.9742 
 401   0.0000       1.801891        49.0319 
 402   0.0000       1.805636        49.1339 
 403   0.0000       1.811509        49.2937 
 404   0.0000       1.820025        49.5254 
 405   0.0000       1.824451        49.6458 
 406   0.0000       1.834820        49.9280 
 407   0.0000       1.839223        50.0478 
 408   0.0000       1.843532        50.1650 
 409   0.0000       1.846947        50.2580 
 410   0.0000       1.860113        50.6163 
 411   0.0000       1.865245        50.7559 
 412   0.0000       1.869864        50.8816 
 413   0.0000       1.873107        50.9698 
 414   0.0000       1.882814        51.2340 
 415   0.0000       1.892860        51.5073 
 416   0.0000       1.895277        51.5731 
 417   0.0000       1.905038        51.8387 
 418   0.0000       1.910520        51.9879 
 419   0.0000       1.917577        52.1799 
 420   0.0000       1.925610        52.3985 
 421   0.0000       1.934797        52.6485 
 422   0.0000       1.936880        52.7052 
 423   0.0000       1.944397        52.9097 
 424   0.0000       1.949350        53.0445 
 425   0.0000       1.952267        53.1239 
 426   0.0000       1.962710        53.4080 
 427   0.0000       1.968049        53.5533 
 428   0.0000       1.973827        53.7106 
 429   0.0000       1.980308        53.8869 
 430   0.0000       1.984499        54.0010 
 431   0.0000       1.988214        54.1021 
 432   0.0000       1.991570        54.1934 
 433   0.0000       1.995038        54.2877 
 434   0.0000       1.997884        54.3652 
 435   0.0000       2.002841        54.5001 
 436   0.0000       2.006562        54.6013 
 437   0.0000       2.012021        54.7499 
 438   0.0000       2.017815        54.9075 
 439   0.0000       2.023936        55.0741 
 440   0.0000       2.027877        55.1813 
 441   0.0000       2.034224        55.3541 
 442   0.0000       2.035119        55.3784 
 443   0.0000       2.044495        55.6335 
[...]

 --------------
 Nucleus  47H :
 --------------

Diamagnetic contribution to the shielding tensor (ppm) : 
            30.911          3.542        -0.034
             0.639         49.177        -3.080
             0.358         -2.197        43.269

Paramagnetic contribution to the shielding tensor (ppm): 
            -2.106         -3.063         0.734
             0.082        -15.847        -0.333
            -0.468         -1.295       -11.537

Total shielding tensor (ppm): 
            28.805          0.478         0.699
             0.721         33.330        -3.413
            -0.110         -3.492        31.732


 Diagonalized sT*s matrix:
 
 sDSO            34.584           39.195           49.578  iso=      41.119
 sPSO            -6.304           -9.693          -13.492  iso=      -9.830
        ---------------  ---------------  ---------------
 Total           28.280           29.502           36.086  iso=      31.289

 --------------
 Nucleus  48H :
 --------------

Diamagnetic contribution to the shielding tensor (ppm) : 
            36.058          0.174        -1.312
            -6.933         39.541        -0.866
            -3.464         -1.797        46.518

Paramagnetic contribution to the shielding tensor (ppm): 
            -3.930          0.996         1.470
             8.313        -11.230        -0.762
             2.618         -0.237       -17.042

Total shielding tensor (ppm): 
            32.127          1.170         0.158
             1.380         28.312        -1.628
            -0.846         -2.035        29.476


 Diagonalized sT*s matrix:
 
 sDSO            41.703           43.712           36.703  iso=      40.706
 sPSO           -14.866          -13.418           -3.919  iso=     -10.734
        ---------------  ---------------  ---------------
 Total           26.836           30.294           32.784  iso=      29.971

 --------------
 Nucleus  52H :
 --------------

Diamagnetic contribution to the shielding tensor (ppm) : 
            39.651          1.177         3.412
             4.578         38.728       -14.320
            10.547        -12.544        45.555

Paramagnetic contribution to the shielding tensor (ppm): 
            -7.056          2.863        -2.704
            -0.895        -13.334        15.358
            -8.813         14.792       -23.711

Total shielding tensor (ppm): 
            32.595          4.039         0.707
             3.683         25.394         1.038
             1.733          2.248        21.844


 Diagonalized sT*s matrix:
 
 sDSO            54.449           27.562           41.923  iso=      41.311
 sPSO           -33.255           -3.445           -7.402  iso=     -14.701
        ---------------  ---------------  ---------------
 Total           21.194           24.117           34.521  iso=      26.611

 --------------
 Nucleus  53H :
 --------------

Diamagnetic contribution to the shielding tensor (ppm) : 
            34.469          0.749         3.634
             4.163         40.772        -8.726
            -3.954         -7.169        55.591

Paramagnetic contribution to the shielding tensor (ppm): 
            -4.437          3.190        -4.410
            -1.042        -15.336         8.006
             3.985          6.271       -32.079

Total shielding tensor (ppm): 
            30.031          3.939        -0.776
             3.121         25.436        -0.720
             0.032         -0.899        23.512


 Diagonalized sT*s matrix:
 
 sDSO            40.189           51.721           38.921  iso=      43.610
 sPSO           -17.235          -27.701           -6.916  iso=     -17.284
        ---------------  ---------------  ---------------
 Total           22.953           24.021           32.005  iso=      26.326

 --------------
 Nucleus  57H :
 --------------

Diamagnetic contribution to the shielding tensor (ppm) : 
            31.054         -3.079        -2.070
            13.154         48.995         3.240
             2.146         -2.239        38.846

Paramagnetic contribution to the shielding tensor (ppm): 
            -1.566          0.529         2.589
           -14.931        -15.909        -1.827
            -1.398          3.712       -12.106

Total shielding tensor (ppm): 
            29.488         -2.550         0.519
            -1.778         33.085         1.413
             0.748          1.473        26.740


 Diagonalized sT*s matrix:
 
 sDSO            39.463           36.779           42.653  iso=      39.632
 sPSO           -13.432           -7.745           -8.404  iso=      -9.860
        ---------------  ---------------  ---------------
 Total           26.031           29.035           34.248  iso=      29.771

 --------------
 Nucleus  58H :
 --------------

Diamagnetic contribution to the shielding tensor (ppm) : 
            39.034          2.420        -6.679
            10.774         33.027        -7.434
            12.887         -6.272        45.432

Paramagnetic contribution to the shielding tensor (ppm): 
            -5.467          0.291         4.888
            -7.680         -7.098         7.731
           -14.853          6.200       -15.192

Total shielding tensor (ppm): 
            33.567          2.711        -1.791
             3.094         25.929         0.297
            -1.966         -0.072        30.240


 Diagonalized sT*s matrix:
 
 sDSO            31.805           43.712           41.976  iso=      39.164
 sPSO            -6.952          -13.997           -6.808  iso=      -9.252
        ---------------  ---------------  ---------------
 Total           24.853           29.714           35.168  iso=      29.912

 --------------
 Nucleus  61H :
 --------------

Diamagnetic contribution to the shielding tensor (ppm) : 
            27.406         -1.273         0.399
            10.240         29.059       -11.705
           -16.568        -11.900        36.463

Paramagnetic contribution to the shielding tensor (ppm): 
             1.672          1.449        -0.322
           -10.353          0.345         6.773
            17.401          6.616        -2.243

Total shielding tensor (ppm): 
            29.078          0.176         0.076
            -0.112         29.404        -4.932
             0.833         -5.284        34.220


 Diagonalized sT*s matrix:
 
 sDSO            20.650           28.215           44.062  iso=      30.976
 sPSO             5.490            0.872           -6.587  iso=      -0.075
        ---------------  ---------------  ---------------
 Total           26.140           29.087           37.474  iso=      30.900

 --------------
 Nucleus  62H :
 --------------

Diamagnetic contribution to the shielding tensor (ppm) : 
            31.965         -4.701        -6.092
            -3.806         31.940         4.035
           -13.081          4.159        28.133

Paramagnetic contribution to the shielding tensor (ppm): 
            -1.770          2.576         3.062
             1.360         -0.451        -2.450
             9.911         -2.394         3.956

Total shielding tensor (ppm): 
            30.194         -2.125        -3.030
            -2.445         31.489         1.586
            -3.170          1.764        32.089


 Diagonalized sT*s matrix:
 
 sDSO            22.644           26.944           42.450  iso=      30.679
 sPSO             5.001            3.157           -6.422  iso=       0.578
        ---------------  ---------------  ---------------
 Total           27.644           30.100           36.028  iso=      31.258

 --------------
 Nucleus  63H :
 --------------

Diamagnetic contribution to the shielding tensor (ppm) : 
            38.092          5.028        -0.245
            12.580         33.858         0.526
            -3.310         -1.145        13.903

Paramagnetic contribution to the shielding tensor (ppm): 
            -4.003          0.683         0.642
            -7.356         -5.566        -1.293
             2.627         -0.139        15.869

Total shielding tensor (ppm): 
            34.089          5.711         0.397
             5.224         28.293        -0.766
            -0.682         -1.284        29.772


 Diagonalized sT*s matrix:
 
 sDSO            27.077           13.914           44.862  iso=      28.618
 sPSO            -2.208           15.935           -7.427  iso=       2.100
        ---------------  ---------------  ---------------
 Total           24.870           29.850           37.434  iso=      30.718

 --------------
 Nucleus  64H :
 --------------

Diamagnetic contribution to the shielding tensor (ppm) : 
            27.299          1.091         6.291
             8.421         10.205        -2.669
            21.476         -0.947        34.978

Paramagnetic contribution to the shielding tensor (ppm): 
             1.367         -1.060        -1.331
            -7.539         17.876         2.807
           -17.193          0.635         0.492

Total shielding tensor (ppm): 
            28.667          0.032         4.959
             0.882         28.082         0.138
             4.283         -0.312        35.470


 Diagonalized sT*s matrix:
 
 sDSO            14.955           12.974           44.554  iso=      24.161
 sPSO            11.268           15.214           -6.746  iso=       6.579
        ---------------  ---------------  ---------------
 Total           26.223           28.188           37.808  iso=      30.740

 --------------
 Nucleus  65H :
 --------------

Diamagnetic contribution to the shielding tensor (ppm) : 
            25.795         -3.272        -2.111
            13.050         34.907        14.603
            15.158          5.851        27.734

Paramagnetic contribution to the shielding tensor (ppm): 
             2.485          2.539         2.383
           -14.809          0.124        -9.891
           -14.929         -0.832         1.642

Total shielding tensor (ppm): 
            28.280         -0.733         0.272
            -1.759         35.031         4.712
             0.229          5.019        29.376


 Diagonalized sT*s matrix:
 
 sDSO            19.239           29.026           40.171  iso=      29.479
 sPSO             6.983           -0.486           -2.246  iso=       1.417
        ---------------  ---------------  ---------------
 Total           26.221           28.541           37.925  iso=      30.896

 --------------
 Nucleus  66H :
 --------------

Diamagnetic contribution to the shielding tensor (ppm) : 
            38.084          6.450        -1.384
            11.160         21.450         3.493
             5.239         -5.491        18.050

Paramagnetic contribution to the shielding tensor (ppm): 
            -4.169         -2.452         0.911
            -6.734          7.134        -3.579
            -5.073          5.726        11.684

Total shielding tensor (ppm): 
            33.915          3.998        -0.472
             4.426         28.584        -0.086
             0.165          0.234        29.734


 Diagonalized sT*s matrix:
 
 sDSO            18.011           17.961           41.611  iso=      25.861
 sPSO             8.248           11.777           -5.376  iso=       4.883
        ---------------  ---------------  ---------------
 Total           26.259           29.738           36.235  iso=      30.744

 --------------
 Nucleus  67H :
 --------------

Diamagnetic contribution to the shielding tensor (ppm) : 
            42.184         -3.310        -4.720
           -10.661         19.139        -5.976
             2.451         -0.969        18.612

Paramagnetic contribution to the shielding tensor (ppm): 
            -6.577          1.570         2.263
             8.005         10.085         5.585
            -5.125          0.352        10.469

Total shielding tensor (ppm): 
            35.607         -1.740        -2.457
            -2.656         29.225        -0.391
            -2.675         -0.617        29.081


 Diagonalized sT*s matrix:
 
 sDSO            15.349           22.395           42.191  iso=      26.645
 sPSO            11.926            7.267           -5.214  iso=       4.659
        ---------------  ---------------  ---------------
 Total           27.275           29.662           36.977  iso=      31.304

 --------------
 Nucleus  68H :
 --------------

Diamagnetic contribution to the shielding tensor (ppm) : 
            34.607         -0.949         3.564
           -12.567         33.724       -10.479
             5.923         -0.745        26.816

Paramagnetic contribution to the shielding tensor (ppm): 
            -3.516          1.402        -0.235
            14.187          0.311        13.489
            -3.052          4.024         0.166

Total shielding tensor (ppm): 
            31.091          0.453         3.330
             1.621         34.035         3.010
             2.871          3.278        26.983


 Diagonalized sT*s matrix:
 
 sDSO            26.290           42.861           25.997  iso=      31.716
 sPSO            -1.575          -11.658           10.194  iso=      -1.013
        ---------------  ---------------  ---------------
 Total           24.714           31.203           36.191  iso=      30.703

 --------------
 Nucleus  69H :
 --------------

Diamagnetic contribution to the shielding tensor (ppm) : 
            30.351         -4.249         3.786
           -16.727         21.983       -16.704
             9.704        -11.508        29.261

Paramagnetic contribution to the shielding tensor (ppm): 
            -1.549          2.168        -0.825
            14.389         10.314        11.991
            -7.607          7.290         2.710

Total shielding tensor (ppm): 
            28.802         -2.081         2.961
            -2.338         32.296        -4.713
             2.097         -4.218        31.970


 Diagonalized sT*s matrix:
 
 sDSO            22.455           12.651           46.488  iso=      27.198
 sPSO             4.885           15.236           -8.647  iso=       3.825
        ---------------  ---------------  ---------------
 Total           27.341           27.887           37.841  iso=      31.023

 --------------
 Nucleus  70H :
 --------------

Diamagnetic contribution to the shielding tensor (ppm) : 
            34.241         -7.265        -7.677
           -15.326         27.522         2.327
           -15.102          3.509        34.199

Paramagnetic contribution to the shielding tensor (ppm): 
            -0.191          5.971         3.152
            13.784          1.965         0.576
            10.821         -0.655        -4.942

Total shielding tensor (ppm): 
            34.050         -1.294        -4.525
            -1.541         29.487         2.903
            -4.281          2.853        29.257


 Diagonalized sT*s matrix:
 
 sDSO            27.810           18.447           49.704  iso=      31.987
 sPSO            -2.140           11.086          -12.114  iso=      -1.056
        ---------------  ---------------  ---------------
 Total           25.670           29.532           37.591  iso=      30.931

 --------------
 Nucleus  71H :
 --------------

Diamagnetic contribution to the shielding tensor (ppm) : 
            31.319          1.850         5.136
            -7.515         39.265         9.838
            -2.582          7.838        38.819

Paramagnetic contribution to the shielding tensor (ppm): 
             1.100         -1.074        -4.723
             9.612         -9.052        -4.667
             3.349         -3.246       -10.878

Total shielding tensor (ppm): 
            32.419          0.777         0.412
             2.097         30.213         5.171
             0.767          4.593        27.941


 Diagonalized sT*s matrix:
 
 sDSO            30.607           36.795           42.001  iso=      36.468
 sPSO            -6.565           -5.232           -7.033  iso=      -6.277
        ---------------  ---------------  ---------------
 Total           24.043           31.563           34.968  iso=      30.191

 --------------
 Nucleus  72H :
 --------------

Diamagnetic contribution to the shielding tensor (ppm) : 
            27.436         -6.365         0.965
           -13.221         41.424        -2.721
            -2.790         -7.101        36.387

Paramagnetic contribution to the shielding tensor (ppm): 
             3.339          4.152        -0.254
            11.531         -8.107        -0.572
             3.060          5.068        -7.778

Total shielding tensor (ppm): 
            30.775         -2.213         0.711
            -1.690         33.317        -3.294
             0.270         -2.034        28.609


 Diagonalized sT*s matrix:
 
 sDSO            32.088           25.311           47.847  iso=      35.082
 sPSO            -4.724            4.652          -12.474  iso=      -4.182
        ---------------  ---------------  ---------------
 Total           27.365           29.963           35.373  iso=      30.900



--------------------------------
CHEMICAL SHIELDING SUMMARY (ppm)
--------------------------------


  Nucleus  Element    Isotropic     Anisotropy
  -------  -------  ------------   ------------
      3       H           29.641          5.441 
      4       H           29.135          5.301 
      8       H           29.568          6.456 
      9       H           29.428          7.747 
     10       H           29.631          8.789 
     11       H           30.533          6.245 
     13       H           28.188          2.754 
     16       H           26.861          5.141 
     17       H           26.523          4.996 
     19       H           25.450         10.770 
     21       H           25.713         15.003 
     24       H           28.889          9.968 
     25       H           29.997          9.446 
     27       H           30.226          7.131 
     28       H           30.147         11.738 
     30       H           29.736          8.052 
     31       H           30.396          6.900 
     33       H           29.774          4.149 
     35       H           31.121         14.874 
     37       H           30.408         10.856 
     38       H           30.300          9.447 
     40       H           30.111          9.500 
     41       H           30.582          8.416 
     42       H           30.551          5.473 
     45       H           31.060          8.283 
     46       H           31.310          9.218 
     47       H           31.289          7.195 
     48       H           29.971          4.219 
     52       H           26.611         11.866 
     53       H           26.326          8.518 
     57       H           29.771          6.716 
     58       H           29.912          7.884 
     61       H           30.900          9.861 
     62       H           31.258          7.156 
     63       H           30.718         10.075 
     64       H           30.740         10.602 
     65       H           30.896         10.544 
     66       H           30.744          8.236 
     67       H           31.304          8.509 
     68       H           30.703          8.232 
     69       H           31.023         10.227 
     70       H           30.931          9.989 
     71       H           30.191          7.165 
     72       H           30.900          6.709 



Maximum memory used throughout the entire EPRNMR-calculation: 140.2 MB

Timings for individual modules:

Sum of individual times         ...      144.243 sec (=   2.404 min)
GTO integral calculation        ...        0.749 sec (=   0.012 min)   0.5 %
SCF iterations                  ...       96.408 sec (=   1.607 min)  66.8 %
EPR/NMR calculation             ...       47.087 sec (=   0.785 min)  32.6 %
                             ****ORCA TERMINATED NORMALLY****
TOTAL RUN TIME: 0 days 0 hours 2 minutes 24 seconds 723 msec
