
                                 *****************
                                 * O   R   C   A *
                                 *****************

                                            #,                                       
                                            ###                                      
                                            ####                                     
                                            #####                                    
                                            ######                                   
                                           ########,                                 
                                     ,,################,,,,,                         
                               ,,#################################,,                 
                          ,,##########################################,,             
                       ,#########################################, ''#####,          
                    ,#############################################,,   '####,        
                  ,##################################################,,,,####,       
                ,###########''''           ''''###############################       
              ,#####''   ,,,,##########,,,,          '''####'''          '####       
            ,##' ,,,,###########################,,,                        '##       
           ' ,,###''''                  '''############,,,                           
         ,,##''                                '''############,,,,        ,,,,,,###''
      ,#''                                            '''#######################'''  
     '                                                          ''''####''''         
             ,#######,   #######,   ,#######,      ##                                
            ,#'     '#,  ##    ##  ,#'     '#,    #''#        ######   ,####,        
            ##       ##  ##   ,#'  ##            #'  '#       #        #'  '#        
            ##       ##  #######   ##           ,######,      #####,   #    #        
            '#,     ,#'  ##    ##  '#,     ,#' ,#      #,         ##   #,  ,#        
             '#######'   ##     ##  '#######'  #'      '#     #####' # '####'        



                  #######################################################
                  #                        -***-                        #
                  #          Department of theory and spectroscopy      #
                  #    Directorship and core code : Frank Neese         #
                  #        Max Planck Institute fuer Kohlenforschung    #
                  #                Kaiser Wilhelm Platz 1               #
                  #                 D-45470 Muelheim/Ruhr               #
                  #                      Germany                        #
                  #                                                     #
                  #                  All rights reserved                #
                  #                        -***-                        #
                  #######################################################


                         Program Version 5.0.2 -  RELEASE  -


 With contributions from (in alphabetic order):
   Daniel Aravena         : Magnetic Suceptibility
   Michael Atanasov       : Ab Initio Ligand Field Theory (pilot matlab implementation)
   Alexander A. Auer      : GIAO ZORA, VPT2 properties, NMR spectrum
   Ute Becker             : Parallelization
   Giovanni Bistoni       : ED, misc. LED, open-shell LED, HFLD
   Martin Brehm           : Molecular dynamics
   Dmytro Bykov           : SCF Hessian
   Vijay G. Chilkuri      : MRCI spin determinant printing, contributions to CSF-ICE
   Dipayan Datta          : RHF DLPNO-CCSD density
   Achintya Kumar Dutta   : EOM-CC, STEOM-CC
   Dmitry Ganyushin       : Spin-Orbit,Spin-Spin,Magnetic field MRCI
   Miquel Garcia          : C-PCM and meta-GGA Hessian, CC/C-PCM, Gaussian charge scheme
   Yang Guo               : DLPNO-NEVPT2, F12-NEVPT2, CIM, IAO-localization
   Andreas Hansen         : Spin unrestricted coupled pair/coupled cluster methods
   Benjamin Helmich-Paris : MC-RPA, TRAH-SCF, COSX integrals
   Lee Huntington         : MR-EOM, pCC
   Robert Izsak           : Overlap fitted RIJCOSX, COSX-SCS-MP3, EOM
   Marcus Kettner         : VPT2
   Christian Kollmar      : KDIIS, OOCD, Brueckner-CCSD(T), CCSD density, CASPT2, CASPT2-K
   Simone Kossmann        : Meta GGA functionals, TD-DFT gradient, OOMP2, MP2 Hessian
   Martin Krupicka        : Initial AUTO-CI
   Lucas Lang             : DCDCAS
   Marvin Lechner         : AUTO-CI (C++ implementation), FIC-MRCC
   Dagmar Lenk            : GEPOL surface, SMD
   Dimitrios Liakos       : Extrapolation schemes; Compound Job, initial MDCI parallelization
   Dimitrios Manganas     : Further ROCIS development; embedding schemes
   Dimitrios Pantazis     : SARC Basis sets
   Anastasios Papadopoulos: AUTO-CI, single reference methods and gradients
   Taras Petrenko         : DFT Hessian,TD-DFT gradient, ASA, ECA, R-Raman, ABS, FL, XAS/XES, NRVS
   Peter Pinski           : DLPNO-MP2, DLPNO-MP2 Gradient
   Christoph Reimann      : Effective Core Potentials
   Marius Retegan         : Local ZFS, SOC
   Christoph Riplinger    : Optimizer, TS searches, QM/MM, DLPNO-CCSD(T), (RO)-DLPNO pert. Triples
   Tobias Risthaus        : Range-separated hybrids, TD-DFT gradient, RPA, STAB
   Michael Roemelt        : Original ROCIS implementation
   Masaaki Saitow         : Open-shell DLPNO-CCSD energy and density
   Barbara Sandhoefer     : DKH picture change effects
   Avijit Sen             : IP-ROCIS
   Kantharuban Sivalingam : CASSCF convergence, NEVPT2, FIC-MRCI
   Bernardo de Souza      : ESD, SOC TD-DFT
   Georgi Stoychev        : AutoAux, RI-MP2 NMR, DLPNO-MP2 response
   Willem Van den Heuvel  : Paramagnetic NMR
   Boris Wezisla          : Elementary symmetry handling
   Frank Wennmohs         : Technical directorship


 We gratefully acknowledge several colleagues who have allowed us to
 interface, adapt or use parts of their codes:
   Stefan Grimme, W. Hujo, H. Kruse, P. Pracht,  : VdW corrections, initial TS optimization,
                  C. Bannwarth, S. Ehlert          DFT functionals, gCP, sTDA/sTD-DF
   Ed Valeev, F. Pavosevic, A. Kumar             : LibInt (2-el integral package), F12 methods
   Garnet Chan, S. Sharma, J. Yang, R. Olivares  : DMRG
   Ulf Ekstrom                                   : XCFun DFT Library
   Mihaly Kallay                                 : mrcc  (arbitrary order and MRCC methods)
   Jiri Pittner, Ondrej Demel                    : Mk-CCSD
   Frank Weinhold                                : gennbo (NPA and NBO analysis)
   Christopher J. Cramer and Donald G. Truhlar   : smd solvation model
   Lars Goerigk                                  : TD-DFT with DH, B97 family of functionals
   V. Asgeirsson, H. Jonsson                     : NEB implementation
   FAccTs GmbH                                   : IRC, NEB, NEB-TS, DLPNO-Multilevel, CI-OPT
                                                   MM, QMMM, 2- and 3-layer-ONIOM, Crystal-QMMM,
                                                   LR-CPCM, SF, NACMEs, symmetry and pop. for TD-DFT,
                                                   nearIR, NL-DFT gradient (VV10), updates on ESD,
                                                   ML-optimized integration grids
   S Lehtola, MJT Oliveira, MAL Marques          : LibXC Library
   Liviu Ungur et al                             : ANISO software


 Your calculation uses the libint2 library for the computation of 2-el integrals
 For citations please refer to: http://libint.valeyev.net

 Your ORCA version has been built with support for libXC version: 5.1.0
 For citations please refer to: https://tddft.org/programs/libxc/

 This ORCA versions uses:
   CBLAS   interface :  Fast vector & matrix operations
   LAPACKE interface :  Fast linear algebra routines
   SCALAPACK package :  Parallel linear algebra routines
   Shared memory     :  Shared parallel matrices
   BLAS/LAPACK       :  OpenBLAS 0.3.15  USE64BITINT DYNAMIC_ARCH NO_AFFINITY Zen SINGLE_THREADED
        Core in use  :  Zen
   Copyright (c) 2011-2014, The OpenBLAS Project


Your calculation utilizes the atom-pairwise dispersion correction
based on tight binding partial charges (D4)
Cite in your paper:
E.Caldeweyher, C.Bannwarth, S.Grimme, J.Chem.Phys., (2017), 147, 034112.
E.Caldeweyher, S.Ehlert, A.Hansen, H.Neugebauer, S.Grimme, J.Chem.Phys., (2018), in progress.
   

================================================================================

----- Orbital basis set information -----
Your calculation utilizes the basis: pcJ-0
   F. Jensen, Theor. Chem. Acc. 126, 371 (2010).

----- AuxJ basis set information -----
Your calculation utilizes the auxiliary basis: def2/J
   F. Weigend, Phys. Chem. Chem. Phys. 8, 1057 (2006).

================================================================================
                                        WARNINGS
                       Please study these warnings very carefully!
================================================================================


INFO   : the flag for use of the SHARK integral package has been found!

================================================================================
                                       INPUT FILE
================================================================================
NAME = inpJ
|  1> ! pbe0
|  2> ! D4
|  3> ! pcJ-0
|  4> ! def2/J RIJCOSX
|  5> ! DEFGRID2
|  6> ! scfconv7
|  7> ! smallprint printgap noloewdin
|  8> ! NOSOSCF
|  9> %MaxCore 4000
| 10> %output
| 11>        print[P_BondOrder_M] 1
| 12>        print[P_Mayer] 1
| 13>        print[P_basis] 2
| 14> end
| 15> %pal
| 16>     nprocs 4
| 17> end
| 18> ! CPCM(chloroform)
| 19> *xyz 0 1
| 20> C   -5.0486647100   0.1934272600  -0.4613964200
| 21> C   -6.4926790600  -0.2252913100  -0.6055016100
| 22> C   -7.3983220400   0.6721027700   0.2475984500
| 23> H   -6.6233371600  -1.2740653300  -0.3155623600
| 24> H   -6.8084874900  -0.1217409200  -1.6541892300
| 25> C   -4.8075709300   1.6250848000  -0.7472037200
| 26> C   -5.7393510400   2.5725042100  -0.0240590000
| 27> C   -7.2070435500   2.1383125000  -0.1439713000
| 28> H   -5.6078017000   3.5929153700  -0.3995082100
| 29> H   -5.4612822200   2.5837882500   1.0408177000
| 30> H   -7.5444650900   2.2653383200  -1.1816536900
| 31> H   -7.8395583200   2.7716572900   0.4887518400
| 32> O   -7.1504962900   0.4595134400   1.6473888700
| 33> H   -8.4462758900   0.3860094400   0.0944417400
| 34> C   -4.1039351200  -0.6795365200  -0.0372459900
| 35> C   -3.8726107500   2.0528233400  -1.6026538900
| 36> H   -3.2240031300   1.3554882300  -2.1261612700
| 37> H   -3.7430451500   3.1134604400  -1.8048545600
| 38> C   -2.7203267500  -0.3696325800   0.2395257100
| 39> H   -4.4367892400  -1.7017131500   0.1392668300
| 40> C   -1.7507215600  -1.2498201800   0.5676081100
| 41> H   -2.4509692400   0.6827635500   0.1854151200
| 42> C   -1.9155058100  -2.7449292800   0.6670813300
| 43> C   -0.9017453400  -3.4867335500  -0.2258833600
| 44> H   -2.9300582600  -3.0692737400   0.4202344500
| 45> H   -1.7282543100  -3.0370525800   1.7126220700
| 46> C    0.5414631600  -3.0157928800   0.0003176900
| 47> H   -1.1793395700  -3.3418414600  -1.2775845600
| 48> H   -0.9715750800  -4.5638708300  -0.0307243800
| 49> C    0.6757815100  -1.4941247200  -0.1459142200
| 50> H    1.2001221800  -3.5426630500  -0.6980267200
| 51> H    0.8589560400  -3.2973416800   1.0156941400
| 52> C   -0.3378815400  -0.8363157000   0.8447820700
| 53> H   -0.0756472100  -1.2626174900   1.8304119500
| 54> C    0.0651137400   0.6354765400   0.8683617700
| 55> H   -6.1925668700   0.3934242000   1.7685762400
| 56> C    1.6078532400   0.5926223200   0.7420751300
| 57> H   -0.2747395000   1.1404652800   1.7786202300
| 58> H   -0.3722353200   1.1723092300   0.0191524200
| 59> C    1.9981942500  -0.8719350300   0.3808710000
| 60> H    2.1039697400   0.9054996700   1.6661570700
| 61> H    1.9556866100   1.2766812400  -0.0409241200
| 62> H    2.2461507700  -1.4085609900   1.3114400300
| 63> C    3.2522700600  -0.9175009600  -0.5152360500
| 64> C    0.4015745200  -1.0514967000  -1.5895802700
| 65> H    0.6062784900   0.0146973000  -1.7295027900
| 66> H   -0.6419245300  -1.2230768500  -1.8713856100
| 67> H    1.0354845000  -1.6059155300  -2.2904289100
| 68> H    3.0334886300  -0.3722946400  -1.4452159500
| 69> C    3.6984956100  -2.3435494900  -0.8731167200
| 70> C    4.3853768100  -0.2099226900   0.1786500100
| 71> C    5.0517143100   0.8380700700  -0.3033953800
| 72> H    4.6749591400  -0.6215369800   1.1509401000
| 73> H    4.7523041600   1.2468711800  -1.2722046800
| 74> C    6.1860795600   1.5381146900   0.3909889500
| 75> C    5.8738203000   3.0347067400   0.5345674900
| 76> C    7.5548905600   1.2982733000  -0.3029214600
| 77> H    6.2743607400   1.1123730400   1.4018598300
| 78> H    8.2859567600   1.9060703000   0.2524230900
| 79> C    7.5839400000   1.7473295600  -1.7660993100
| 80> C    7.9762701600  -0.1674601600  -0.1891964400
| 81> H    5.6890875500   3.4996569300  -0.4400775000
| 82> H    6.7066861400   3.5640958600   1.0118077200
| 83> H    4.9769355300   3.1824616300   1.1455767300
| 84> H    7.2863976500   2.7942784400  -1.8840089900
| 85> H    6.9145180200   1.1318878600  -2.3783676400
| 86> H    8.5949143800   1.6409706200  -2.1746679200
| 87> H    7.9896967500  -0.4974434900   0.8560639700
| 88> H    8.9774081200  -0.3200212200  -0.6078348200
| 89> H    7.2784831800  -0.8131555600  -0.7354684800
| 90> H    2.9786909000  -2.8435806200  -1.5261808000
| 91> H    3.8184537500  -2.9520567500   0.0316672800
| 92> H    4.6621464500  -2.3176586100  -1.3931688900
| 93> *
| 94> %eprnmr
| 95>  Nuclei = all H { ssfc }
| 96>  SpinSpinRThresh 8.0
| 97> end
| 98> 
| 99>                          ****END OF INPUT****
================================================================================

                       ****************************
                       * Single Point Calculation *
                       ****************************

---------------------------------
CARTESIAN COORDINATES (ANGSTROEM)
---------------------------------
  C     -5.048665    0.193427   -0.461396
  C     -6.492679   -0.225291   -0.605502
  C     -7.398322    0.672103    0.247598
  H     -6.623337   -1.274065   -0.315562
  H     -6.808487   -0.121741   -1.654189
  C     -4.807571    1.625085   -0.747204
  C     -5.739351    2.572504   -0.024059
  C     -7.207044    2.138313   -0.143971
  H     -5.607802    3.592915   -0.399508
  H     -5.461282    2.583788    1.040818
  H     -7.544465    2.265338   -1.181654
  H     -7.839558    2.771657    0.488752
  O     -7.150496    0.459513    1.647389
  H     -8.446276    0.386009    0.094442
  C     -4.103935   -0.679537   -0.037246
  C     -3.872611    2.052823   -1.602654
  H     -3.224003    1.355488   -2.126161
  H     -3.743045    3.113460   -1.804855
  C     -2.720327   -0.369633    0.239526
  H     -4.436789   -1.701713    0.139267
  C     -1.750722   -1.249820    0.567608
  H     -2.450969    0.682764    0.185415
  C     -1.915506   -2.744929    0.667081
  C     -0.901745   -3.486734   -0.225883
  H     -2.930058   -3.069274    0.420234
  H     -1.728254   -3.037053    1.712622
  C      0.541463   -3.015793    0.000318
  H     -1.179340   -3.341841   -1.277585
  H     -0.971575   -4.563871   -0.030724
  C      0.675782   -1.494125   -0.145914
  H      1.200122   -3.542663   -0.698027
  H      0.858956   -3.297342    1.015694
  C     -0.337882   -0.836316    0.844782
  H     -0.075647   -1.262617    1.830412
  C      0.065114    0.635477    0.868362
  H     -6.192567    0.393424    1.768576
  C      1.607853    0.592622    0.742075
  H     -0.274740    1.140465    1.778620
  H     -0.372235    1.172309    0.019152
  C      1.998194   -0.871935    0.380871
  H      2.103970    0.905500    1.666157
  H      1.955687    1.276681   -0.040924
  H      2.246151   -1.408561    1.311440
  C      3.252270   -0.917501   -0.515236
  C      0.401575   -1.051497   -1.589580
  H      0.606278    0.014697   -1.729503
  H     -0.641925   -1.223077   -1.871386
  H      1.035484   -1.605916   -2.290429
  H      3.033489   -0.372295   -1.445216
  C      3.698496   -2.343549   -0.873117
  C      4.385377   -0.209923    0.178650
  C      5.051714    0.838070   -0.303395
  H      4.674959   -0.621537    1.150940
  H      4.752304    1.246871   -1.272205
  C      6.186080    1.538115    0.390989
  C      5.873820    3.034707    0.534567
  C      7.554891    1.298273   -0.302921
  H      6.274361    1.112373    1.401860
  H      8.285957    1.906070    0.252423
  C      7.583940    1.747330   -1.766099
  C      7.976270   -0.167460   -0.189196
  H      5.689088    3.499657   -0.440078
  H      6.706686    3.564096    1.011808
  H      4.976936    3.182462    1.145577
  H      7.286398    2.794278   -1.884009
  H      6.914518    1.131888   -2.378368
  H      8.594914    1.640971   -2.174668
  H      7.989697   -0.497443    0.856064
  H      8.977408   -0.320021   -0.607835
  H      7.278483   -0.813156   -0.735468
  H      2.978691   -2.843581   -1.526181
  H      3.818454   -2.952057    0.031667
  H      4.662146   -2.317659   -1.393169

----------------------------
CARTESIAN COORDINATES (A.U.)
----------------------------
  NO LB      ZA    FRAG     MASS         X           Y           Z
   0 C     6.0000    0    12.011   -9.540594    0.365525   -0.871913
   1 C     6.0000    0    12.011  -12.269385   -0.425739   -1.144232
   2 C     6.0000    0    12.011  -13.980803    1.270090    0.467893
   3 H     1.0000    0     1.008  -12.516293   -2.407635   -0.596326
   4 H     1.0000    0     1.008  -12.866177   -0.230057   -3.125965
   5 C     6.0000    0    12.011   -9.084992    3.070965   -1.412010
   6 C     6.0000    0    12.011  -10.845802    4.861328   -0.045465
   7 C     6.0000    0    12.011  -13.619339    4.040825   -0.272066
   8 H     1.0000    0     1.008  -10.597209    6.789626   -0.754961
   9 H     1.0000    0     1.008  -10.320328    4.882652    1.966860
  10 H     1.0000    0     1.008  -14.256973    4.280869   -2.233002
  11 H     1.0000    0     1.008  -14.814618    5.237673    0.923607
  12 O     8.0000    0    15.999  -13.512480    0.868355    3.113114
  13 H     1.0000    0     1.008  -15.961148    0.729452    0.178469
  14 C     6.0000    0    12.011   -7.755313   -1.284138   -0.070385
  15 C     6.0000    0    12.011   -7.318174    3.879274   -3.028577
  16 H     1.0000    0     1.008   -6.092483    2.561502   -4.017863
  17 H     1.0000    0     1.008   -7.073330    5.883588   -3.410681
  18 C     6.0000    0    12.011   -5.140673   -0.698504    0.452638
  19 H     1.0000    0     1.008   -8.384317   -3.215772    0.263176
  20 C     6.0000    0    12.011   -3.308384   -2.361818    1.072624
  21 H     1.0000    0     1.008   -4.631661    1.290236    0.350384
  22 C     6.0000    0    12.011   -3.619781   -5.187165    1.260601
  23 C     6.0000    0    12.011   -1.704052   -6.588972   -0.426858
  24 H     1.0000    0     1.008   -5.537008   -5.800087    0.794128
  25 H     1.0000    0     1.008   -3.265927   -5.739198    3.236387
  26 C     6.0000    0    12.011    1.023217   -5.699023    0.000600
  27 H     1.0000    0     1.008   -2.228629   -6.315165   -2.414285
  28 H     1.0000    0     1.008   -1.836011   -8.624466   -0.058061
  29 C     6.0000    0    12.011    1.277042   -2.823487   -0.275738
  30 H     1.0000    0     1.008    2.267902   -6.694663   -1.319079
  31 H     1.0000    0     1.008    1.623192   -6.231073    1.919384
  32 C     6.0000    0    12.011   -0.638504   -1.580408    1.596407
  33 H     1.0000    0     1.008   -0.142953   -2.386001    3.458977
  34 C     6.0000    0    12.011    0.123047    1.200877    1.640966
  35 H     1.0000    0     1.008  -11.702255    0.743464    3.342125
  36 C     6.0000    0    12.011    3.038402    1.119894    1.402319
  37 H     1.0000    0     1.008   -0.519182    2.155167    3.361105
  38 H     1.0000    0     1.008   -0.703423    2.215343    0.036193
  39 C     6.0000    0    12.011    3.776040   -1.647718    0.719742
  40 H     1.0000    0     1.008    3.975927    1.711146    3.148581
  41 H     1.0000    0     1.008    3.695712    2.412578   -0.077335
  42 H     1.0000    0     1.008    4.244610   -2.661795    2.478262
  43 C     6.0000    0    12.011    6.145900   -1.733826   -0.973655
  44 C     6.0000    0    12.011    0.758866   -1.987041   -3.003871
  45 H     1.0000    0     1.008    1.145700    0.027774   -3.268287
  46 H     1.0000    0     1.008   -1.213062   -2.311280   -3.536406
  47 H     1.0000    0     1.008    1.956782   -3.034741   -4.328283
  48 H     1.0000    0     1.008    5.732463   -0.703535   -2.731062
  49 C     6.0000    0    12.011    6.989144   -4.428667   -1.649951
  50 C     6.0000    0    12.011    8.287161   -0.396696    0.337600
  51 C     6.0000    0    12.011    9.546357    1.583723   -0.573334
  52 H     1.0000    0     1.008    8.834392   -1.174535    2.174962
  53 H     1.0000    0     1.008    8.980553    2.356245   -2.404118
  54 C     6.0000    0    12.011   11.689996    2.906616    0.738862
  55 C     6.0000    0    12.011   11.099912    5.734765    1.010186
  56 C     6.0000    0    12.011   14.276674    2.453381   -0.572439
  57 H     1.0000    0     1.008   11.856823    2.102080    2.649131
  58 H     1.0000    0     1.008   15.658189    3.601951    0.477011
  59 C     6.0000    0    12.011   14.331570    3.301974   -3.337444
  60 C     6.0000    0    12.011   15.072966   -0.316454   -0.357529
  61 H     1.0000    0     1.008   10.750817    6.613393   -0.831626
  62 H     1.0000    0     1.008   12.673800    6.735165    1.912039
  63 H     1.0000    0     1.008    9.405045    6.013981    2.164826
  64 H     1.0000    0     1.008   13.769296    5.280421   -3.560261
  65 H     1.0000    0     1.008   13.066545    2.138958   -4.494463
  66 H     1.0000    0     1.008   16.242034    3.100985   -4.109527
  67 H     1.0000    0     1.008   15.098339   -0.940032    1.617726
  68 H     1.0000    0     1.008   16.964843   -0.604752   -1.148641
  69 H     1.0000    0     1.008   13.754340   -1.536641   -1.389834
  70 H     1.0000    0     1.008    5.628910   -5.373589   -2.884064
  71 H     1.0000    0     1.008    7.215832   -5.578579    0.059842
  72 H     1.0000    0     1.008    8.810180   -4.379740   -2.632708

--------------------------------
INTERNAL COORDINATES (ANGSTROEM)
--------------------------------
 C      0   0   0     0.000000000000     0.00000000     0.00000000
 C      1   0   0     1.510387033066     0.00000000     0.00000000
 C      2   1   0     1.534042064095   110.43771341     0.00000000
 H      2   1   3     1.095930313849   110.73449473   237.88178816
 H      2   1   3     1.100092437966   109.83517186   118.75721209
 C      1   2   3     1.479680822112   113.92723064   306.04666514
 C      6   1   2     1.512863509343   114.40833843    49.80310854
 C      3   2   1     1.529602988425   110.15463179    56.83842159
 H      7   6   1     1.095219737585   110.22016986   188.81233925
 H      7   6   1     1.100641623971   108.25710871    72.13781292
 H      8   3   2     1.098532474312   108.31518154    64.43379918
 H      8   3   2     1.096147403035   109.50690684   181.42503657
 O      3   2   1     1.437367401021   110.68715456   292.82832483
 H      3   2   1     1.097047694049   109.49661395   177.30447761
 C      1   2   3     1.354431004770   121.20208187   122.76522007
 C      6   1   2     1.337499828090   123.15207984   231.71352455
 H     16   6   1     1.086751157016   121.33891279   359.03899679
 H     16   6   1     1.087484902676   120.93835463   178.43204050
 C     15   1   2     1.444650527803   126.14079139   185.23358799
 H     15   1   2     1.089400616735   116.25559032     3.13802155
 C     19  15   1     1.350000924762   126.48222062   185.21138920
 H     19  15   1     1.087666786559   115.79889852     5.96286338
 C     21  19  15     1.507448172060   125.74497698     2.07690917
 C     23  21  19     1.541223476045   111.54514235   124.80511812
 H     23  21  19     1.093366079911   112.38047022     1.15424631
 H     23  21  19     1.101614535877   107.88182747   243.36693781
 C     24  23  21     1.534862470762   112.66970926    51.10375346
 H     24  23  21     1.097327521005   108.98662778   288.97825585
 H     24  23  21     1.096899238777   109.12799896   173.04580547
 C     27  24  23     1.534568075977   111.87037355   306.39060969
 H     27  24  23     1.095038262181   108.90262064   182.90879959
 H     27  24  23     1.100482072024   109.19317362    66.43605984
 C     21  19  15     1.497974726488   122.84695246   180.28289015
 H     33  21  19     1.105425854744   106.39564214   127.03248062
 C     33  21  19     1.526149925688   121.20635996     4.46020127
 H     13   3   2     0.967823816608   107.61962006    42.09990986
 C     35  33  21     1.548492804140   103.59927710   196.97531470
 H     35  33  21     1.095027084718   112.06322733    74.91972183
 H     35  33  21     1.095728094676   110.80023867   315.32853787
 C     30  27  24     1.553511549126   116.06136847   166.20248859
 H     37  35  33     1.094509593174   112.01359616   249.17990639
 H     37  35  33     1.096363299649   110.91972238   130.57207579
 H     40  30  27     1.102455702671   106.42329029   320.78711526
 C     40  30  27     1.542008507196   118.90772461    81.58267688
 C     30  27  24     1.534692380048   111.09966412   294.00623720
 H     45  30  27     1.094646825498   111.57682087   186.51164135
 H     45  30  27     1.094415033192   111.55315097    66.45503845
 H     45  30  27     1.095632656501   110.63495759   306.31240699
 H     44  40  30     1.099989936265   108.35544511    60.45443125
 C     44  40  30     1.536492832833   113.51395280   299.58805605
 C     44  40  30     1.505349055646   109.29356462   177.72741941
 C     51  44  40     1.332164496952   125.41434682   238.46064681
 H     51  44  40     1.094820655949   115.57771656    59.46654852
 H     52  51  44     1.093323486086   118.54240100     1.40497852
 C     52  51  44     1.503002524332   125.22197355   180.24514560
 C     55  52  51     1.535548243048   110.10053763   235.64129095
 C     55  52  51     1.553280110986   112.75485015   110.01885740
 H     55  52  51     1.100413311133   107.74328819   353.08594905
 H     57  55  52     1.101037034439   105.93577755   176.49084848
 C     57  55  52     1.530811815783   113.47997625    58.27675755
 C     57  55  52     1.529336039997   110.95141403   293.42679964
 H     56  55  52     1.095553615592   111.39136418   302.20057757
 H     56  55  52     1.096210100731   110.90873553   181.76331519
 H     56  55  52     1.095247044982   110.49770032    61.64158343
 H     60  57  55     1.094776735236   112.22939714    54.76869587
 H     60  57  55     1.096251240057   110.95050702   293.70727954
 H     60  57  55     1.095586477742   110.21104257   174.75560147
 H     61  57  55     1.096192773243   111.27161340   304.94145668
 H     61  57  55     1.095814849868   110.90062581   184.53547059
 H     61  57  55     1.096468130282   110.60975643    64.72727829
 H     50  44  40     1.092997092445   111.87071050    67.65882155
 H     50  44  40     1.096952655077   110.76240501   306.95193218
 H     50  44  40     1.095329876622   110.13019540   187.58675469

---------------------------
INTERNAL COORDINATES (A.U.)
---------------------------
 C      0   0   0     0.000000000000     0.00000000     0.00000000
 C      1   0   0     2.854217848720     0.00000000     0.00000000
 C      2   1   0     2.898919379056   110.43771341     0.00000000
 H      2   1   3     2.071008155037   110.73449473   237.88178816
 H      2   1   3     2.078873429753   109.83517186   118.75721209
 C      1   2   3     2.796191519408   113.92723064   306.04666514
 C      6   1   2     2.858897710660   114.40833843    49.80310854
 C      3   2   1     2.890530741751   110.15463179    56.83842159
 H      7   6   1     2.069665360501   110.22016986   188.81233925
 H      7   6   1     2.079911240900   108.25710871    72.13781292
 H      8   3   2     2.075925525669   108.31518154    64.43379918
 H      8   3   2     2.071418394145   109.50690684   181.42503657
 O      3   2   1     2.716230741755   110.68715456   292.82832483
 H      3   2   1     2.073119697603   109.49661395   177.30447761
 C      1   2   3     2.559503666307   121.20208187   122.76522007
 C      6   1   2     2.527508379256   123.15207984   231.71352455
 H     16   6   1     2.053662062482   121.33891279   359.03899679
 H     16   6   1     2.055048640832   120.93835463   178.43204050
 C     15   1   2     2.729993856773   126.14079139   185.23358799
 H     15   1   2     2.058668815755   116.25559032     3.13802155
 C     19  15   1     2.551132028341   126.48222062   185.21138920
 H     19  15   1     2.055392351558   115.79889852     5.96286338
 C     21  19  15     2.848664206274   125.74497698     2.07690917
 C     23  21  19     2.912490280895   111.54514235   124.80511812
 H     23  21  19     2.066162455150   112.38047022     1.15424631
 H     23  21  19     2.081749777954   107.88182747   243.36693781
 C     24  23  21     2.900469722974   112.66970926    51.10375346
 H     24  23  21     2.073648493914   108.98662778   288.97825585
 H     24  23  21     2.072839157795   109.12799896   173.04580547
 C     27  24  23     2.899913397454   111.87037355   306.39060969
 H     27  24  23     2.069322421688   108.90262064   182.90879959
 H     27  24  23     2.079609731416   109.19317362    66.43605984
 C     21  19  15     2.830761988597   122.84695246   180.28289015
 H     33  21  19     2.088952126822   106.39564214   127.03248062
 C     33  21  19     2.884005398855   121.20635996     4.46020127
 H     13   3   2     1.828921959275   107.61962006    42.09990986
 C     35  33  21     2.926227320173   103.59927710   196.97531470
 H     35  33  21     2.069301299344   112.06322733    74.91972183
 H     35  33  21     2.070626016182   110.80023867   315.32853787
 C     30  27  24     2.935711373731   116.06136847   166.20248859
 H     37  35  33     2.068323382048   112.01359616   249.17990639
 H     37  35  33     2.071826379619   110.91972238   130.57207579
 H     40  30  27     2.083339352828   106.42329029   320.78711526
 C     40  30  27     2.913973774776   118.90772461    81.58267688
 C     30  27  24     2.900148298106   111.09966412   294.00623720
 H     45  30  27     2.068582713558   111.57682087   186.51164135
 H     45  30  27     2.068144689580   111.55315097    66.45503845
 H     45  30  27     2.070445664168   110.63495759   306.31240699
 H     44  40  30     2.078679729611   108.35544511    60.45443125
 C     44  40  30     2.903550660787   113.51395280   299.58805605
 C     44  40  30     2.844697451128   109.29356462   177.72741941
 C     51  44  40     2.517426064572   125.41434682   238.46064681
 H     51  44  40     2.068911205504   115.57771656    59.46654852
 H     52  51  44     2.066081964486   118.54240100     1.40497852
 C     52  51  44     2.840263149580   125.22197355   180.24514560
 C     55  52  51     2.901765644784   110.10053763   235.64129095
 C     55  52  51     2.935274019030   112.75485015   110.01885740
 H     55  52  51     2.079479792163   107.74328819   353.08594905
 H     57  55  52     2.080658458394   105.93577755   176.49084848
 C     57  55  52     2.892815094400   113.47997625    58.27675755
 C     57  55  52     2.890026282330   110.95141403   293.42679964
 H     56  55  52     2.070296298495   111.39136418   302.20057757
 H     56  55  52     2.071536875619   110.90873553   181.76331519
 H     56  55  52     2.069716964003   110.49770032    61.64158343
 H     60  57  55     2.068828207385   112.22939714    54.76869587
 H     60  57  55     2.071614617680   110.95050702   293.70727954
 H     60  57  55     2.070358398960   110.21104257   174.75560147
 H     61  57  55     2.071504131413   111.27161340   304.94145668
 H     61  57  55     2.070789959734   110.90062581   184.53547059
 H     61  57  55     2.072024480806   110.60975643    64.72727829
 H     50  44  40     2.065465169894   111.87071050    67.65882155
 H     50  44  40     2.072940099974   110.76240501   306.95193218
 H     50  44  40     2.069873493118   110.13019540   187.58675469

---------------------
BASIS SET INFORMATION
---------------------
There are 3 groups of distinct atoms

 Group   1 Type C   : 7s4p contracted to 4s3p pattern {4111/211}
 Group   2 Type H   : 5s contracted to 3s pattern {311}
 Group   3 Type O   : 7s4p contracted to 4s3p pattern {4111/211}

Atom   0C    basis set group =>   1
Atom   1C    basis set group =>   1
Atom   2C    basis set group =>   1
Atom   3H    basis set group =>   2
Atom   4H    basis set group =>   2
Atom   5C    basis set group =>   1
Atom   6C    basis set group =>   1
Atom   7C    basis set group =>   1
Atom   8H    basis set group =>   2
Atom   9H    basis set group =>   2
Atom  10H    basis set group =>   2
Atom  11H    basis set group =>   2
Atom  12O    basis set group =>   3
Atom  13H    basis set group =>   2
Atom  14C    basis set group =>   1
Atom  15C    basis set group =>   1
Atom  16H    basis set group =>   2
Atom  17H    basis set group =>   2
Atom  18C    basis set group =>   1
Atom  19H    basis set group =>   2
Atom  20C    basis set group =>   1
Atom  21H    basis set group =>   2
Atom  22C    basis set group =>   1
Atom  23C    basis set group =>   1
Atom  24H    basis set group =>   2
Atom  25H    basis set group =>   2
Atom  26C    basis set group =>   1
Atom  27H    basis set group =>   2
Atom  28H    basis set group =>   2
Atom  29C    basis set group =>   1
Atom  30H    basis set group =>   2
Atom  31H    basis set group =>   2
Atom  32C    basis set group =>   1
Atom  33H    basis set group =>   2
Atom  34C    basis set group =>   1
Atom  35H    basis set group =>   2
Atom  36C    basis set group =>   1
Atom  37H    basis set group =>   2
Atom  38H    basis set group =>   2
Atom  39C    basis set group =>   1
Atom  40H    basis set group =>   2
Atom  41H    basis set group =>   2
Atom  42H    basis set group =>   2
Atom  43C    basis set group =>   1
Atom  44C    basis set group =>   1
Atom  45H    basis set group =>   2
Atom  46H    basis set group =>   2
Atom  47H    basis set group =>   2
Atom  48H    basis set group =>   2
Atom  49C    basis set group =>   1
Atom  50C    basis set group =>   1
Atom  51C    basis set group =>   1
Atom  52H    basis set group =>   2
Atom  53H    basis set group =>   2
Atom  54C    basis set group =>   1
Atom  55C    basis set group =>   1
Atom  56C    basis set group =>   1
Atom  57H    basis set group =>   2
Atom  58H    basis set group =>   2
Atom  59C    basis set group =>   1
Atom  60C    basis set group =>   1
Atom  61H    basis set group =>   2
Atom  62H    basis set group =>   2
Atom  63H    basis set group =>   2
Atom  64H    basis set group =>   2
Atom  65H    basis set group =>   2
Atom  66H    basis set group =>   2
Atom  67H    basis set group =>   2
Atom  68H    basis set group =>   2
Atom  69H    basis set group =>   2
Atom  70H    basis set group =>   2
Atom  71H    basis set group =>   2
Atom  72H    basis set group =>   2

-------------------------
BASIS SET IN INPUT FORMAT
-------------------------

 # Basis set for element : H 
 NewGTO H 
 S 3 
   1    1357.7500000000      0.0012928364
   2      54.3100000000      0.0588280685
   3       4.3448000000      0.9761499708
 S 1 
   1       0.6604910000      1.0000000000
 S 1 
   1       0.1366870000      1.0000000000
  end;

 # Basis set for element : C 
 NewGTO C 
 S 4 
   1  139534.0000000000      0.0001655246
   2    5581.3600000000      0.0074486101
   3     446.5090000000      0.1285821065
   4      67.4620000000      0.9218029311
 S 1 
   1      15.0674000000      1.0000000000
 S 1 
   1       3.9387600000      1.0000000000
 S 1 
   1       0.2999150000      1.0000000000
 P 2 
   1      28.3900000000      0.0816325586
   2       4.3676900000      0.9660360576
 P 1 
   1       0.8698170000      1.0000000000
 P 1 
   1       0.1889340000      1.0000000000
  end;

 # Basis set for element : O 
 NewGTO O 
 S 4 
   1  253789.0000000000      0.0001641076
   2   10151.6000000000      0.0074010921
   3     812.1250000000      0.1277711901
   4     122.6930000000      0.9223372164
 S 1 
   1      27.5608000000      1.0000000000
 S 1 
   1       7.3172600000      1.0000000000
 S 1 
   1       0.5792400000      1.0000000000
 P 2 
   1      53.4157000000      0.0793786106
   2       8.2177900000      0.9670506337
 P 1 
   1       1.6754400000      1.0000000000
 P 1 
   1       0.3506720000      1.0000000000
  end;

---------------------------------
AUXILIARY/J BASIS SET INFORMATION
---------------------------------
There are 3 groups of distinct atoms

 Group   1 Type C   : 12s5p4d2f1g contracted to 6s4p3d1f1g pattern {711111/2111/211/2/1}
 Group   2 Type H   : 5s2p1d contracted to 3s1p1d pattern {311/2/1}
 Group   3 Type O   : 12s5p4d2f1g contracted to 6s4p3d1f1g pattern {711111/2111/211/2/1}

Atom   0C    basis set group =>   1
Atom   1C    basis set group =>   1
Atom   2C    basis set group =>   1
Atom   3H    basis set group =>   2
Atom   4H    basis set group =>   2
Atom   5C    basis set group =>   1
Atom   6C    basis set group =>   1
Atom   7C    basis set group =>   1
Atom   8H    basis set group =>   2
Atom   9H    basis set group =>   2
Atom  10H    basis set group =>   2
Atom  11H    basis set group =>   2
Atom  12O    basis set group =>   3
Atom  13H    basis set group =>   2
Atom  14C    basis set group =>   1
Atom  15C    basis set group =>   1
Atom  16H    basis set group =>   2
Atom  17H    basis set group =>   2
Atom  18C    basis set group =>   1
Atom  19H    basis set group =>   2
Atom  20C    basis set group =>   1
Atom  21H    basis set group =>   2
Atom  22C    basis set group =>   1
Atom  23C    basis set group =>   1
Atom  24H    basis set group =>   2
Atom  25H    basis set group =>   2
Atom  26C    basis set group =>   1
Atom  27H    basis set group =>   2
Atom  28H    basis set group =>   2
Atom  29C    basis set group =>   1
Atom  30H    basis set group =>   2
Atom  31H    basis set group =>   2
Atom  32C    basis set group =>   1
Atom  33H    basis set group =>   2
Atom  34C    basis set group =>   1
Atom  35H    basis set group =>   2
Atom  36C    basis set group =>   1
Atom  37H    basis set group =>   2
Atom  38H    basis set group =>   2
Atom  39C    basis set group =>   1
Atom  40H    basis set group =>   2
Atom  41H    basis set group =>   2
Atom  42H    basis set group =>   2
Atom  43C    basis set group =>   1
Atom  44C    basis set group =>   1
Atom  45H    basis set group =>   2
Atom  46H    basis set group =>   2
Atom  47H    basis set group =>   2
Atom  48H    basis set group =>   2
Atom  49C    basis set group =>   1
Atom  50C    basis set group =>   1
Atom  51C    basis set group =>   1
Atom  52H    basis set group =>   2
Atom  53H    basis set group =>   2
Atom  54C    basis set group =>   1
Atom  55C    basis set group =>   1
Atom  56C    basis set group =>   1
Atom  57H    basis set group =>   2
Atom  58H    basis set group =>   2
Atom  59C    basis set group =>   1
Atom  60C    basis set group =>   1
Atom  61H    basis set group =>   2
Atom  62H    basis set group =>   2
Atom  63H    basis set group =>   2
Atom  64H    basis set group =>   2
Atom  65H    basis set group =>   2
Atom  66H    basis set group =>   2
Atom  67H    basis set group =>   2
Atom  68H    basis set group =>   2
Atom  69H    basis set group =>   2
Atom  70H    basis set group =>   2
Atom  71H    basis set group =>   2
Atom  72H    basis set group =>   2

-------------------------------------
AUXILIARY/J BASIS SET IN INPUT FORMAT
-------------------------------------

 # Auxiliary/J basis set for element : H 
 NewAuxJGTO H 
 S 3 
   1      15.6752927000      0.1007184237
   2       3.6063578000      0.3404257499
   3       1.2080016000      0.6491996172
 S 1 
   1       0.4726794000      1.0000000000
 S 1 
   1       0.2018100000      1.0000000000
 P 2 
   1       2.0281365000      0.5596620919
   2       0.5358730000      0.5596620919
 D 1 
   1       2.2165124000      1.0000000000
  end;

 # Auxiliary/J basis set for element : C 
 NewAuxJGTO C 
 S 7 
   1    1861.0916331000      0.0134602335
   2     642.9939764000      0.0299160374
   3     235.1105725000      0.1008649584
   4      90.7028894000      0.2370970548
   5      36.7794552000      0.3924037254
   6      15.6046273000      0.3195862154
   7       6.8907294000      0.0530104441
 S 1 
   1       3.1478850000     -1.0000000000
 S 1 
   1       1.4777287000      1.0000000000
 S 1 
   1       0.7076466000      1.0000000000
 S 1 
   1       0.3430122000      1.0000000000
 S 1 
   1       0.1669453000      1.0000000000
 P 2 
   1      13.5472892000     -0.6769313712
   2       5.4669419000     -0.3779500978
 P 1 
   1       2.1751721000      1.0000000000
 P 1 
   1       0.8582194000      1.0000000000
 P 1 
   1       0.3376720000      1.0000000000
 D 2 
   1       5.9287253000     -0.3533329857
   2       1.9809209000     -0.7456525731
 D 1 
   1       0.8055417000     -1.0000000000
 D 1 
   1       0.3531244000     -1.0000000000
 F 2 
   1       1.6755626000      0.6311076882
   2       0.5997536000      0.4968166032
 G 1 
   1       1.0024600000     -1.0000000000
  end;

 # Auxiliary/J basis set for element : O 
 NewAuxJGTO O 
 S 7 
   1    2876.8216605000      0.0168151159
   2    1004.7443032000      0.0340137548
   3     369.7579954000      0.1194951309
   4     142.9442404000      0.2664627624
   5      57.8366425000      0.4202764046
   6      24.3864983000      0.2765077335
   7      10.6622662000      0.0057008815
 S 1 
   1       4.8070437000     -1.0000000000
 S 1 
   1       2.2210770000      1.0000000000
 S 1 
   1       1.0447795000      1.0000000000
 S 1 
   1       0.4968425000      1.0000000000
 S 1 
   1       0.2371384000      1.0000000000
 P 2 
   1      64.2613382000     -0.2731534179
   2      16.3006076000     -0.8168011598
 P 1 
   1       4.3550542000      1.0000000000
 P 1 
   1       1.2019554000      1.0000000000
 P 1 
   1       0.3354196000      1.0000000000
 D 2 
   1       9.2146611000     -0.4661230638
   2       2.8435251000     -0.6600908911
 D 1 
   1       0.9955759000     -1.0000000000
 D 1 
   1       0.3649441000     -1.0000000000
 F 2 
   1       2.6420115000      0.5931563945
   2       0.7345613000      0.5931563945
 G 1 
   1       1.3931000000     -1.0000000000
  end;



           ************************************************************
           *        Program running with 4 parallel MPI-processes     *
           *              working on a common directory               *
           ************************************************************
------------------------------------------------------------------------------
                           ORCA GTO INTEGRAL CALCULATION
                           -- RI-GTO INTEGRALS CHOSEN --
------------------------------------------------------------------------------
------------------------------------------------------------------------------
                   ___                                                        
                  /   \      - P O W E R E D   B Y -                         
                 /     \                                                     
                 |  |  |   _    _      __       _____    __    __             
                 |  |  |  | |  | |    /  \     |  _  \  |  |  /  |          
                  \  \/   | |  | |   /    \    | | | |  |  | /  /          
                 / \  \   | |__| |  /  /\  \   | |_| |  |  |/  /          
                |  |  |   |  __  | /  /__\  \  |    /   |      \           
                |  |  |   | |  | | |   __   |  |    \   |  |\   \          
                \     /   | |  | | |  |  |  |  | |\  \  |  | \   \       
                 \___/    |_|  |_| |__|  |__|  |_| \__\ |__|  \__/        
                                                                              
                      - O R C A' S   B I G   F R I E N D -                    
                                      &                                       
                       - I N T E G R A L  F E E D E R -                       
                                                                              
 v1 FN, 2020, v2 2021                                                         
------------------------------------------------------------------------------


Reading SHARK input file inpJ.SHARKINP.tmp ... ok
----------------------
SHARK INTEGRAL PACKAGE
----------------------

Number of atoms                             ...     73
Number of basis functions                   ...    509
Number of shells                            ...    335
Maximum angular momentum                    ...      1
Integral batch strategy                     ... SHARK/LIBINT Hybrid
RI-J (if used) integral strategy            ... SPLIT-RIJ (Revised 2003 algorithm where possible)
Printlevel                                  ...      1
Contraction scheme used                     ... SEGMENTED contraction
Coulomb Range Separation                    ... NOT USED
Exchange Range Separation                   ... NOT USED
Finite Nucleus Model                        ... NOT USED
Auxiliary Coulomb fitting basis             ... AVAILABLE
   # of basis functions in Aux-J            ...   1905
   # of shells in Aux-J                     ...    655
   Maximum angular momentum in Aux-J        ...      4
Auxiliary J/K fitting basis                 ... NOT available
Auxiliary Correlation fitting basis         ... NOT available
Auxiliary 'external' fitting basis          ... NOT available
Integral threshold                          ...     3.000000e-11
Primitive cut-off                           ...     1.000000e-12
Primitive pair pre-selection threshold      ...     1.000000e-12

Calculating pre-screening integrals         ... done (  0.0 sec) Dimension = 335
Organizing shell pair data                  ... done (  0.1 sec)
Shell pair information
Total number of shell pairs                 ...     56280
Shell pairs after pre-screening             ...     21765
Total number of primitive shell pairs       ...    145865
Primitive shell pairs kept                  ...     37442
          la=0 lb=0:  10942 shell pairs
          la=1 lb=0:   8966 shell pairs
          la=1 lb=1:   1857 shell pairs

Calculating one electron integrals          ... done (  0.0 sec)
Calculating RI/J V-Matrix + Cholesky decomp.... done (  0.3 sec)
Calculating Nuclear repulsion               ... done (  0.0 sec) ENN=   2779.747434554303 Eh

SHARK setup successfully completed in   0.6 seconds

Maximum memory used throughout the entire GTOINT-calculation: 46.2 MB


           ************************************************************
           *        Program running with 4 parallel MPI-processes     *
           *              working on a common directory               *
           ************************************************************
-------------------------------------------------------------------------------
                                 ORCA SCF
-------------------------------------------------------------------------------

------------
SCF SETTINGS
------------
Hamiltonian:
 Density Functional     Method          .... DFT(GTOs)
 Exchange Functional    Exchange        .... PBE
   PBE kappa parameter   XKappa         ....  0.804000
   PBE mue parameter    XMuePBE         ....  0.219520
 Correlation Functional Correlation     .... PBE
   PBE beta parameter  CBetaPBE         ....  0.066725
 LDA part of GGA corr.  LDAOpt          .... PW91-LDA
 Gradients option       PostSCFGGA      .... off
 Hybrid DFT is turned on
   Fraction HF Exchange ScalHFX         ....  0.250000
   Scaling of DF-GGA-X  ScalDFX         ....  0.750000
   Scaling of DF-GGA-C  ScalDFC         ....  1.000000
   Scaling of DF-LDA-C  ScalLDAC        ....  1.000000
   Perturbative correction              ....  0.000000
   Density functional embedding theory  .... OFF
   NL short-range parameter             ....  6.900000
 RI-approximation to the Coulomb term is turned on
   Number of AuxJ basis functions       .... 1905
   RIJ-COSX (HFX calculated with COS-X)).... on


General Settings:
 Integral files         IntName         .... inpJ
 Hartree-Fock type      HFTyp           .... RHF
 Total Charge           Charge          ....    0
 Multiplicity           Mult            ....    1
 Number of Electrons    NEL             ....  220
 Basis Dimension        Dim             ....  509
 Nuclear Repulsion      ENuc            ....   2779.7474345543 Eh

Convergence Acceleration:
 DIIS                   CNVDIIS         .... on
   Start iteration      DIISMaxIt       ....    12
   Startup error        DIISStart       ....  0.200000
   # of expansion vecs  DIISMaxEq       ....     5
   Bias factor          DIISBfac        ....   1.050
   Max. coefficient     DIISMaxC        ....  10.000
 Trust-Rad. Augm. Hess. CNVTRAH         .... auto
   Auto Start mean grad. ratio tolernc. ....  1.125000
   Auto Start start iteration           ....    20
   Auto Start num. interpolation iter.  ....    10
   Max. Number of Micro iterations      ....    16
   Max. Number of Macro iterations      .... Maxiter - #DIIS iter
   Number of Davidson start vectors     ....     2
   Converg. threshold I  (grad. norm)   ....   1.000e-04
   Converg. threshold II (energy diff.) ....   1.000e-07
   Grad. Scal. Fac. for Micro threshold ....   0.100
   Minimum threshold for Micro iter.    ....   0.010
   NR start threshold (gradient norm)   ....   0.001
   Initial trust radius                 ....   0.400
   Minimum AH scaling param. (alpha)    ....   1.000
   Maximum AH scaling param. (alpha)    .... 1000.000
   Orbital update algorithm             .... Taylor
   White noise on init. David. guess    .... on
   Maximum white noise                  ....   0.010
   Quad. conv. algorithm                .... NR
 SOSCF                  CNVSOSCF        .... off
 Level Shifting         CNVShift        .... on
   Level shift para.    LevelShift      ....    0.2500
   Turn off err/grad.   ShiftErr        ....    0.0010
 Zerner damping         CNVZerner       .... off
 Static damping         CNVDamp         .... on
   Fraction old density DampFac         ....    0.7000
   Max. Damping (<1)    DampMax         ....    0.9800
   Min. Damping (>=0)   DampMin         ....    0.0000
   Turn off err/grad.   DampErr         ....    0.1000
 Fernandez-Rico         CNVRico         .... off

SCF Procedure:
 Maximum # iterations   MaxIter         ....   125
 SCF integral mode      SCFMode         .... Direct
   Integral package                     .... SHARK and LIBINT hybrid scheme
 Reset frequency        DirectResetFreq ....    20
 Integral Threshold     Thresh          ....  3.000e-11 Eh
 Primitive CutOff       TCut            ....  1.000e-12 Eh

Convergence Tolerance:
 Convergence Check Mode ConvCheckMode   .... Total+1el-Energy
 Convergence forced     ConvForced      .... 0
 Energy Change          TolE            ....  1.000e-07 Eh
 1-El. energy change                    ....  1.000e-04 Eh
 DIIS Error             TolErr          ....  1.000e-07


Diagonalization of the overlap matrix:
Smallest eigenvalue                        ... 7.561e-03
Time for diagonalization                   ...    0.036 sec
Threshold for overlap eigenvalues          ... 1.000e-08
Number of eigenvalues below threshold      ... 0
Time for construction of square roots      ...    0.031 sec
Total time needed                          ...    0.069 sec

Time for model grid setup =    0.839 sec

------------------------------
INITIAL GUESS: MODEL POTENTIAL
------------------------------
Loading Hartree-Fock densities                     ... done
Calculating cut-offs                               ... done
Initializing the effective Hamiltonian             ... done
Setting up the integral package (SHARK)            ... done
Starting the Coulomb interaction                   ... done (   0.4 sec)
Reading the grid                                   ... done
Mapping shells                                     ... done
Starting the XC term evaluation                    ... done (   0.2 sec)
  promolecular density results
     # of electrons  =    219.980817782
     EX              =   -164.427426808
     EC              =     -7.323212783
     EX+EC           =   -171.750639591
Transforming the Hamiltonian                       ... done (   0.0 sec)
Diagonalizing the Hamiltonian                      ... done (   0.0 sec)
Back transforming the eigenvectors                 ... done (   0.0 sec)
Now organizing SCF variables                       ... done
                      ------------------
                      INITIAL GUESS DONE (   1.5 sec)
                      ------------------
-------------------
DFT GRID GENERATION
-------------------

General Integration Accuracy     IntAcc      ... 4.388
Radial Grid Type                 RadialGrid  ... OptM3 with GC (2021)
Angular Grid (max. ang.)         AngularGrid ... 4 (Lebedev-302)
Angular grid pruning method      GridPruning ... 4 (adaptive)
Weight generation scheme         WeightScheme... Becke
Basis function cutoff            BFCut       ... 1.0000e-11
Integration weight cutoff        WCut        ... 1.0000e-14
Angular grids for H and He will be reduced by one unit
Partially contracted basis set               ... off
Rotationally invariant grid construction     ... off

Total number of grid points                  ...   309995
Total number of batches                      ...     4880
Average number of points per batch           ...       63
Average number of grid points per atom       ...     4247
Time for grid setup =    3.019 sec

--------------------
COSX GRID GENERATION
--------------------

GRIDX 1
-------
General Integration Accuracy     IntAcc      ... 3.816
Radial Grid Type                 RadialGrid  ... OptM3 with GC (2021)
Angular Grid (max. ang.)         AngularGrid ... 1 (Lebedev-50)
Angular grid pruning method      GridPruning ... 4 (adaptive)
Weight generation scheme         WeightScheme... Becke
Basis function cutoff            BFCut       ... 1.0000e-11
Integration weight cutoff        WCut        ... 1.0000e-14
Angular grids for H and He will be reduced by one unit
Partially contracted basis set               ... on
Rotationally invariant grid construction     ... off

Total number of grid points                  ...    39415
Total number of batches                      ...      657
Average number of points per batch           ...       59
Average number of grid points per atom       ...      540
UseSFitting                                  ... on

GRIDX 2
-------
General Integration Accuracy     IntAcc      ... 4.020
Radial Grid Type                 RadialGrid  ... OptM3 with GC (2021)
Angular Grid (max. ang.)         AngularGrid ... 2 (Lebedev-110)
Angular grid pruning method      GridPruning ... 4 (adaptive)
Weight generation scheme         WeightScheme... Becke
Basis function cutoff            BFCut       ... 1.0000e-11
Integration weight cutoff        WCut        ... 1.0000e-14
Angular grids for H and He will be reduced by one unit
Partially contracted basis set               ... on
Rotationally invariant grid construction     ... off

Total number of grid points                  ...    81373
Total number of batches                      ...     1311
Average number of points per batch           ...       62
Average number of grid points per atom       ...     1115
UseSFitting                                  ... on

GRIDX 3
-------
General Integration Accuracy     IntAcc      ... 4.338
Radial Grid Type                 RadialGrid  ... OptM3 with GC (2021)
Angular Grid (max. ang.)         AngularGrid ... 3 (Lebedev-194)
Angular grid pruning method      GridPruning ... 4 (adaptive)
Weight generation scheme         WeightScheme... Becke
Basis function cutoff            BFCut       ... 1.0000e-11
Integration weight cutoff        WCut        ... 1.0000e-14
Angular grids for H and He will be reduced by one unit
Partially contracted basis set               ... on
Rotationally invariant grid construction     ... off

Total number of grid points                  ...   176212
Total number of batches                      ...     2793
Average number of points per batch           ...       63
Average number of grid points per atom       ...     2414
UseSFitting                                  ... on

Time for X-Grid setup             =    2.803 sec


--------------------
CPCM SOLVATION MODEL
--------------------
CPCM parameters:
  Epsilon                                         ...       4.9000
  Refrac                                          ...       1.4500
  Rsolv                                           ...       1.3000
  Surface type                                    ... GAUSSIAN VDW
  Epsilon function type                           ...         CPCM
Radii:
 Radius for C  used is    3.8550 Bohr (=   2.0400 Ang.)
 Radius for H  used is    2.4944 Bohr (=   1.3200 Ang.)
 Radius for O  used is    3.4469 Bohr (=   1.8240 Ang.)
Calculating surface                               ...        done! (  0.0s)
GEPOL surface points                              ...         3676
GEPOL Volume                                      ...    3589.4370
GEPOL Surface-area                                ...    1795.2933
Calculating surface distance matrix               ...        done! (  0.1s)
Performing Cholesky decomposition & store         ...        done! (  0.5s)
Overall time for CPCM initialization              ...                 0.6s
--------------
SCF ITERATIONS
--------------
ITER       Energy         Delta-E        Max-DP      RMS-DP      [F,P]     Damp
               ***  Starting incremental Fock matrix formation  ***

  HOMO= 109 E= -3.980 eV LUMO=  7.700 eV gap=  11.680 eV
  0  -1165.0110106276   0.000000000000 0.09763911  0.00106338  0.1964130 0.7000

  HOMO= 109 E= -4.846 eV LUMO=  7.017 eV gap=  11.862 eV
  1  -1165.2304836076  -0.219472979956 0.06546730  0.00078314  0.0951035 0.7000
                               ***Turning on DIIS***

  HOMO= 109 E= -5.444 eV LUMO=  6.469 eV gap=  11.913 eV
  2  -1165.3316492753  -0.101165667741 0.10340049  0.00138649  0.0375572 0.0000

  HOMO= 109 E= -6.001 eV LUMO=  5.940 eV gap=  11.941 eV
  3  -1165.4764310701  -0.144781794771 0.05165563  0.00057267  0.0460853 0.0000

  HOMO= 109 E= -6.070 eV LUMO=  5.869 eV gap=  11.939 eV
  4  -1165.5120540649  -0.035622994815 0.01159402  0.00013462  0.0059217 0.0000

  HOMO= 109 E= -6.020 eV LUMO=  5.927 eV gap=  11.947 eV
  5  -1165.5129134957  -0.000859430831 0.00249964  0.00003802  0.0051615 0.0000

  HOMO= 109 E= -6.006 eV LUMO=  5.941 eV gap=  11.947 eV
  6  -1165.5129938003  -0.000080304536 0.00116629  0.00001170  0.0010499 0.0000

  HOMO= 109 E= -6.008 eV LUMO= -0.864 eV gap=   5.144 eV
  7  -1165.5129991520  -0.000005351676 0.00051464  0.00000602  0.0002360 0.0000
               *** Restarting incremental Fock matrix formation ***
                                   *** Resetting DIIS ***

  HOMO= 109 E= -6.007 eV LUMO= -0.862 eV gap=   5.145 eV
  8  -1165.5129906744   0.000008477536 0.00037105  0.00000287  0.0001207 0.0000

  HOMO= 109 E= -6.007 eV LUMO= -0.862 eV gap=   5.145 eV
  9  -1165.5129907084  -0.000000033948 0.00013647  0.00000129  0.0001618 0.0000

  HOMO= 109 E= -6.008 eV LUMO= -0.862 eV gap=   5.145 eV
 10  -1165.5129908380  -0.000000129624 0.00006427  0.00000040  0.0000329 0.0000

  HOMO= 109 E= -6.008 eV LUMO= -0.862 eV gap=   5.145 eV
 11  -1165.5129908630  -0.000000024969 0.00002610  0.00000018  0.0000196 0.0000

  HOMO= 109 E= -6.008 eV LUMO= -0.862 eV gap=   5.145 eV
 12  -1165.5129908395   0.000000023457 0.00000736  0.00000005  0.0000036 0.0000
                 **** Energy Check signals convergence ****

               *****************************************************
               *                     SUCCESS                       *
               *           SCF CONVERGED AFTER  13 CYCLES          *
               *****************************************************

Old exchange energy                            =    -42.067343419 Eh
New exchange energy                            =    -42.067330739 Eh
Exchange energy change after final integration =      0.000012681 Eh
Total energy after final integration           =  -1165.512978155 Eh
Final COS-X integration done in                =    13.200 sec

----------------
TOTAL SCF ENERGY
----------------

Total Energy       :        -1165.51297815 Eh          -31715.22051 eV

Components:
Nuclear Repulsion  :         2779.74743455 Eh           75640.77320 eV
Electronic Energy  :        -3945.26041271 Eh         -107355.99370 eV
One Electron Energy:        -7101.25762822 Eh         -193235.04394 eV
Two Electron Energy:         3155.99721551 Eh           85879.05024 eV
Max COSX asymmetry :            0.00000172 Eh               0.00005 eV
CPCM Dielectric    :           -0.01342913 Eh              -0.36543 eV

Virial components:
Potential Energy   :        -2322.41003313 Eh          -63195.98982 eV
Kinetic Energy     :         1156.89705498 Eh           31480.76932 eV
Virial Ratio       :            2.00744744


DFT components:
N(Alpha)           :      110.000178647411 electrons
N(Beta)            :      110.000178647411 electrons
N(Total)           :      220.000357294822 electrons
E(X)               :     -125.744489496853 Eh       
E(C)               :       -7.326334115978 Eh       
E(XC)              :     -133.070823612832 Eh       
DFET-embed. en.    :        0.000000000000 Eh       
CPCM Solvation Model Properties:
Surface-charge          :           -0.03459914
Charge-correction       :           -0.00008159 Eh              -0.00222 eV
Free-energy (cav+disp)  :  This term is not implemented in the current solvation scheme

---------------
SCF CONVERGENCE
---------------

  Last Energy change         ...    3.9772e-09  Tolerance :   1.0000e-07
  Last MAX-Density change    ...    0.0000e+00  Tolerance :   1.0000e-05
  Last RMS-Density change    ...    0.0000e+00  Tolerance :   1.0000e-06
  Last DIIS Error            ...    2.2870e-06  Tolerance :   1.0000e-07

             **** THE GBW FILE WAS UPDATED (inpJ.gbw) ****
             **** DENSITY inpJ.scfp WAS UPDATED ****
             **** ENERGY FILE WAS UPDATED (inpJ.en.tmp) ****
             **** THE GBW FILE WAS UPDATED (inpJ.gbw) ****
             **** DENSITY inpJ.scfp WAS UPDATED ****
----------------
ORBITAL ENERGIES
----------------

  NO   OCC          E(Eh)            E(eV) 
   0   2.0000     -19.212377      -522.7953 
   1   2.0000     -10.300413      -280.2885 
   2   2.0000     -10.270371      -279.4710 
   3   2.0000     -10.268259      -279.4135 
   4   2.0000     -10.263714      -279.2899 
   5   2.0000     -10.257431      -279.1189 
   6   2.0000     -10.257026      -279.1079 
   7   2.0000     -10.250369      -278.9267 
   8   2.0000     -10.249255      -278.8964 
   9   2.0000     -10.248191      -278.8675 
  10   2.0000     -10.248040      -278.8633 
  11   2.0000     -10.247599      -278.8513 
  12   2.0000     -10.246243      -278.8144 
  13   2.0000     -10.245256      -278.7876 
  14   2.0000     -10.245009      -278.7809 
  15   2.0000     -10.244531      -278.7679 
  16   2.0000     -10.243310      -278.7346 
  17   2.0000     -10.242910      -278.7238 
  18   2.0000     -10.241684      -278.6904 
  19   2.0000     -10.241340      -278.6810 
  20   2.0000     -10.240166      -278.6491 
  21   2.0000     -10.234517      -278.4954 
  22   2.0000     -10.234280      -278.4889 
  23   2.0000     -10.233009      -278.4543 
  24   2.0000     -10.226702      -278.2827 
  25   2.0000     -10.226421      -278.2751 
  26   2.0000     -10.223665      -278.2001 
  27   2.0000     -10.222260      -278.1618 
  28   2.0000     -10.220917      -278.1253 
  29   2.0000      -1.043132       -28.3851 
  30   2.0000      -0.901564       -24.5328 
  31   2.0000      -0.882113       -24.0035 
  32   2.0000      -0.860013       -23.4022 
  33   2.0000      -0.846197       -23.0262 
  34   2.0000      -0.822674       -22.3861 
  35   2.0000      -0.814259       -22.1571 
  36   2.0000      -0.795898       -21.6575 
  37   2.0000      -0.795017       -21.6335 
  38   2.0000      -0.776717       -21.1355 
  39   2.0000      -0.758333       -20.6353 
  40   2.0000      -0.742209       -20.1965 
  41   2.0000      -0.736190       -20.0328 
  42   2.0000      -0.715151       -19.4602 
  43   2.0000      -0.702857       -19.1257 
  44   2.0000      -0.702056       -19.1039 
  45   2.0000      -0.695595       -18.9281 
  46   2.0000      -0.670707       -18.2509 
  47   2.0000      -0.656228       -17.8569 
  48   2.0000      -0.630662       -17.1612 
  49   2.0000      -0.622125       -16.9289 
  50   2.0000      -0.612544       -16.6682 
  51   2.0000      -0.606338       -16.4993 
  52   2.0000      -0.596779       -16.2392 
  53   2.0000      -0.582511       -15.8509 
  54   2.0000      -0.563499       -15.3336 
  55   2.0000      -0.549517       -14.9531 
  56   2.0000      -0.540289       -14.7020 
  57   2.0000      -0.529392       -14.4055 
  58   2.0000      -0.515223       -14.0199 
  59   2.0000      -0.509898       -13.8750 
  60   2.0000      -0.499979       -13.6051 
  61   2.0000      -0.492039       -13.3891 
  62   2.0000      -0.481051       -13.0901 
  63   2.0000      -0.475802       -12.9472 
  64   2.0000      -0.473426       -12.8826 
  65   2.0000      -0.466577       -12.6962 
  66   2.0000      -0.464242       -12.6327 
  67   2.0000      -0.462379       -12.5820 
  68   2.0000      -0.459121       -12.4933 
  69   2.0000      -0.453879       -12.3507 
  70   2.0000      -0.450055       -12.2466 
  71   2.0000      -0.440479       -11.9860 
  72   2.0000      -0.434608       -11.8263 
  73   2.0000      -0.432068       -11.7572 
  74   2.0000      -0.430200       -11.7063 
  75   2.0000      -0.423067       -11.5122 
  76   2.0000      -0.421069       -11.4579 
  77   2.0000      -0.413275       -11.2458 
  78   2.0000      -0.412223       -11.2172 
  79   2.0000      -0.402728       -10.9588 
  80   2.0000      -0.401759       -10.9324 
  81   2.0000      -0.397624       -10.8199 
  82   2.0000      -0.396568       -10.7912 
  83   2.0000      -0.388616       -10.5748 
  84   2.0000      -0.387230       -10.5371 
  85   2.0000      -0.380928       -10.3656 
  86   2.0000      -0.375442       -10.2163 
  87   2.0000      -0.373950       -10.1757 
  88   2.0000      -0.368639       -10.0312 
  89   2.0000      -0.364209        -9.9106 
  90   2.0000      -0.360627        -9.8131 
  91   2.0000      -0.358142        -9.7455 
  92   2.0000      -0.351097        -9.5538 
  93   2.0000      -0.344779        -9.3819 
  94   2.0000      -0.341391        -9.2897 
  95   2.0000      -0.340205        -9.2574 
  96   2.0000      -0.337837        -9.1930 
  97   2.0000      -0.333809        -9.0834 
  98   2.0000      -0.331354        -9.0166 
  99   2.0000      -0.330054        -8.9812 
 100   2.0000      -0.327545        -8.9129 
 101   2.0000      -0.324426        -8.8281 
 102   2.0000      -0.319140        -8.6842 
 103   2.0000      -0.316351        -8.6083 
 104   2.0000      -0.310916        -8.4605 
 105   2.0000      -0.300147        -8.1674 
 106   2.0000      -0.276555        -7.5255 
 107   2.0000      -0.275090        -7.4856 
 108   2.0000      -0.258048        -7.0218 
 109   2.0000      -0.220773        -6.0076 
 110   0.0000      -0.031687        -0.8622 
 111   0.0000       0.019415         0.5283 
 112   0.0000       0.025860         0.7037 
 113   0.0000       0.080256         2.1839 
 114   0.0000       0.087806         2.3893 
 115   0.0000       0.100846         2.7442 
 116   0.0000       0.104777         2.8511 
 117   0.0000       0.106834         2.9071 
 118   0.0000       0.110337         3.0024 
 119   0.0000       0.113779         3.0961 
 120   0.0000       0.117032         3.1846 
 121   0.0000       0.118874         3.2347 
 122   0.0000       0.121179         3.2975 
 123   0.0000       0.128930         3.5084 
 124   0.0000       0.132976         3.6185 
 125   0.0000       0.136583         3.7166 
 126   0.0000       0.138075         3.7572 
 127   0.0000       0.140694         3.8285 
 128   0.0000       0.143042         3.8924 
 129   0.0000       0.149000         4.0545 
 130   0.0000       0.154897         4.2150 
 131   0.0000       0.157611         4.2888 
 132   0.0000       0.160948         4.3796 
 133   0.0000       0.166421         4.5286 
 134   0.0000       0.167878         4.5682 
 135   0.0000       0.170591         4.6420 
 136   0.0000       0.174239         4.7413 
 137   0.0000       0.175972         4.7884 
 138   0.0000       0.177880         4.8404 
 139   0.0000       0.178040         4.8447 
 140   0.0000       0.184780         5.0281 
 141   0.0000       0.186360         5.0711 
 142   0.0000       0.187616         5.1053 
 143   0.0000       0.192931         5.2499 
 144   0.0000       0.196500         5.3470 
 145   0.0000       0.198994         5.4149 
 146   0.0000       0.202864         5.5202 
 147   0.0000       0.204476         5.5641 
 148   0.0000       0.205792         5.5999 
 149   0.0000       0.211504         5.7553 
 150   0.0000       0.218316         5.9407 
 151   0.0000       0.220682         6.0051 
 152   0.0000       0.223598         6.0844 
 153   0.0000       0.225827         6.1451 
 154   0.0000       0.232323         6.3218 
 155   0.0000       0.235267         6.4019 
 156   0.0000       0.238444         6.4884 
 157   0.0000       0.245681         6.6853 
 158   0.0000       0.246577         6.7097 
 159   0.0000       0.248693         6.7673 
 160   0.0000       0.255026         6.9396 
 161   0.0000       0.257380         7.0037 
 162   0.0000       0.260261         7.0821 
 163   0.0000       0.265393         7.2217 
 164   0.0000       0.268454         7.3050 
 165   0.0000       0.274792         7.4775 
 166   0.0000       0.277179         7.5424 
 167   0.0000       0.278056         7.5663 
 168   0.0000       0.281233         7.6527 
 169   0.0000       0.287593         7.8258 
 170   0.0000       0.293866         7.9965 
 171   0.0000       0.298550         8.1240 
 172   0.0000       0.304106         8.2751 
 173   0.0000       0.307045         8.3551 
 174   0.0000       0.310298         8.4436 
 175   0.0000       0.314800         8.5661 
 176   0.0000       0.319520         8.6946 
 177   0.0000       0.336176         9.1478 
 178   0.0000       0.349604         9.5132 
 179   0.0000       0.357233         9.7208 
 180   0.0000       0.365816         9.9543 
 181   0.0000       0.375257        10.2113 
 182   0.0000       0.379666        10.3312 
 183   0.0000       0.403620        10.9831 
 184   0.0000       0.421261        11.4631 
 185   0.0000       0.457614        12.4523 
 186   0.0000       0.466693        12.6994 
 187   0.0000       0.487028        13.2527 
 188   0.0000       0.504810        13.7366 
 189   0.0000       0.513918        13.9844 
 190   0.0000       0.516417        14.0524 
 191   0.0000       0.521391        14.1878 
 192   0.0000       0.546381        14.8678 
 193   0.0000       0.559193        15.2164 
 194   0.0000       0.568434        15.4679 
 195   0.0000       0.571955        15.5637 
 196   0.0000       0.575138        15.6503 
 197   0.0000       0.584731        15.9113 
 198   0.0000       0.589992        16.0545 
 199   0.0000       0.595367        16.2008 
 200   0.0000       0.607154        16.5215 
 201   0.0000       0.618823        16.8390 
 202   0.0000       0.619095        16.8464 
 203   0.0000       0.628846        17.1118 
 204   0.0000       0.630879        17.1671 
 205   0.0000       0.644482        17.5372 
 206   0.0000       0.650719        17.7070 
 207   0.0000       0.657766        17.8987 
 208   0.0000       0.664877        18.0922 
 209   0.0000       0.669081        18.2066 
 210   0.0000       0.671481        18.2719 
 211   0.0000       0.682255        18.5651 
 212   0.0000       0.687835        18.7169 
 213   0.0000       0.698386        19.0041 
 214   0.0000       0.705823        19.2064 
 215   0.0000       0.710042        19.3212 
 216   0.0000       0.712310        19.3829 
 217   0.0000       0.713787        19.4231 
 218   0.0000       0.720896        19.6166 
 219   0.0000       0.724948        19.7268 
 220   0.0000       0.728087        19.8123 
 221   0.0000       0.730943        19.8900 
 222   0.0000       0.733652        19.9637 
 223   0.0000       0.740749        20.1568 
 224   0.0000       0.746362        20.3095 
 225   0.0000       0.749437        20.3932 
 226   0.0000       0.751884        20.4598 
 227   0.0000       0.758945        20.6519 
 228   0.0000       0.761945        20.7336 
 229   0.0000       0.765129        20.8202 
 230   0.0000       0.769900        20.9500 
 231   0.0000       0.778400        21.1813 
 232   0.0000       0.779638        21.2150 
 233   0.0000       0.784672        21.3520 
 234   0.0000       0.790763        21.5178 
 235   0.0000       0.795075        21.6351 
 236   0.0000       0.797277        21.6950 
 237   0.0000       0.800377        21.7794 
 238   0.0000       0.811494        22.0819 
 239   0.0000       0.817199        22.2371 
 240   0.0000       0.821595        22.3567 
 241   0.0000       0.828203        22.5366 
 242   0.0000       0.839603        22.8468 
 243   0.0000       0.843264        22.9464 
 244   0.0000       0.849690        23.1212 
 245   0.0000       0.855418        23.2771 
 246   0.0000       0.861843        23.4519 
 247   0.0000       0.862738        23.4763 
 248   0.0000       0.866943        23.5907 
 249   0.0000       0.867888        23.6164 
 250   0.0000       0.871474        23.7140 
 251   0.0000       0.875471        23.8228 
 252   0.0000       0.876262        23.8443 
 253   0.0000       0.880659        23.9639 
 254   0.0000       0.882913        24.0253 
 255   0.0000       0.886438        24.1212 
 256   0.0000       0.888569        24.1792 
 257   0.0000       0.891706        24.2646 
 258   0.0000       0.893128        24.3033 
 259   0.0000       0.898374        24.4460 
 260   0.0000       0.901636        24.5348 
 261   0.0000       0.905180        24.6312 
 262   0.0000       0.907814        24.7029 
 263   0.0000       0.911174        24.7943 
 264   0.0000       0.916693        24.9445 
 265   0.0000       0.918079        24.9822 
 266   0.0000       0.923822        25.1385 
 267   0.0000       0.929355        25.2890 
 268   0.0000       0.930863        25.3301 
 269   0.0000       0.937069        25.4989 
 270   0.0000       0.937552        25.5121 
 271   0.0000       0.947764        25.7900 
 272   0.0000       0.951293        25.8860 
 273   0.0000       0.954185        25.9647 
 274   0.0000       0.958291        26.0764 
 275   0.0000       0.965291        26.2669 
 276   0.0000       0.966022        26.2868 
 277   0.0000       0.970610        26.4116 
 278   0.0000       0.973588        26.4927 
 279   0.0000       0.981210        26.7001 
 280   0.0000       0.985637        26.8206 
 281   0.0000       0.994271        27.0555 
 282   0.0000       1.001572        27.2541 
 283   0.0000       1.009871        27.4800 
 284   0.0000       1.016904        27.6714 
 285   0.0000       1.030464        28.0404 
 286   0.0000       1.034210        28.1423 
 287   0.0000       1.040265        28.3070 
 288   0.0000       1.058463        28.8023 
 289   0.0000       1.066820        29.0297 
 290   0.0000       1.073358        29.2076 
 291   0.0000       1.078211        29.3396 
 292   0.0000       1.081950        29.4414 
 293   0.0000       1.087381        29.5891 
 294   0.0000       1.101316        29.9683 
 295   0.0000       1.109217        30.1833 
 296   0.0000       1.123932        30.5838 
 297   0.0000       1.134348        30.8672 
 298   0.0000       1.144774        31.1509 
 299   0.0000       1.149539        31.2805 
 300   0.0000       1.158405        31.5218 
 301   0.0000       1.165056        31.7028 
 302   0.0000       1.177665        32.0459 
 303   0.0000       1.200240        32.6602 
 304   0.0000       1.231014        33.4976 
 305   0.0000       1.234984        33.6056 
 306   0.0000       1.244713        33.8704 
 307   0.0000       1.259705        34.2783 
 308   0.0000       1.272652        34.6306 
 309   0.0000       1.303193        35.4617 
 310   0.0000       1.332812        36.2677 
 311   0.0000       1.334683        36.3186 
 312   0.0000       1.366878        37.1946 
 313   0.0000       1.381243        37.5855 
 314   0.0000       1.410738        38.3881 
 315   0.0000       1.513301        41.1790 
 316   0.0000       1.527233        41.5581 
 317   0.0000       1.568431        42.6792 
 318   0.0000       1.591419        43.3047 
 319   0.0000       1.675186        45.5841 
 320   0.0000       6.202118       168.7682 
 321   0.0000       6.231979       169.5808 
 322   0.0000       6.261116       170.3736 
 323   0.0000       6.271407       170.6537 
 324   0.0000       6.282238       170.9484 
 325   0.0000       6.291612       171.2035 
 326   0.0000       6.300964       171.4579 
 327   0.0000       6.309908       171.7013 
 328   0.0000       6.317088       171.8967 
 329   0.0000       6.334163       172.3613 
 330   0.0000       6.343043       172.6030 
 331   0.0000       6.347217       172.7166 
 332   0.0000       6.358539       173.0246 
 333   0.0000       6.363329       173.1550 
 334   0.0000       6.386635       173.7892 
 335   0.0000       6.391949       173.9338 
 336   0.0000       6.405785       174.3103 
 337   0.0000       6.409746       174.4181 
 338   0.0000       6.417523       174.6297 
 339   0.0000       6.423701       174.7978 
 340   0.0000       6.429557       174.9571 
 341   0.0000       6.443363       175.3328 
 342   0.0000       6.454123       175.6256 
 343   0.0000       6.463338       175.8764 
 344   0.0000       6.475568       176.2092 
 345   0.0000       6.480813       176.3519 
 346   0.0000       6.485779       176.4870 
 347   0.0000       6.499505       176.8605 
 348   0.0000       6.504308       176.9912 
 349   0.0000       6.510003       177.1462 
 350   0.0000       6.523434       177.5117 
 351   0.0000       6.526634       177.5987 
 352   0.0000       6.534874       177.8230 
 353   0.0000       6.540996       177.9895 
 354   0.0000       6.548453       178.1925 
 355   0.0000       6.553349       178.3257 
 356   0.0000       6.558132       178.4559 
 357   0.0000       6.570452       178.7911 
 358   0.0000       6.573623       178.8774 
 359   0.0000       6.576444       178.9541 
 360   0.0000       6.581059       179.0797 
 361   0.0000       6.584843       179.1827 
 362   0.0000       6.588800       179.2904 
 363   0.0000       6.591940       179.3758 
 364   0.0000       6.597245       179.5202 
 365   0.0000       6.607202       179.7911 
 366   0.0000       6.608164       179.8173 
 367   0.0000       6.611422       179.9059 
 368   0.0000       6.614539       179.9908 
 369   0.0000       6.616511       180.0444 
 370   0.0000       6.621084       180.1689 
 371   0.0000       6.628133       180.3607 
 372   0.0000       6.631878       180.4626 
 373   0.0000       6.633791       180.5146 
 374   0.0000       6.634880       180.5443 
[...]
     69 H        0.000      0.000      0.000      0.000      0.000      0.000
     70 H        0.000      0.000      0.000     -0.000      0.001      0.020
     71 H        0.000      0.000      0.000      0.000      0.001      0.008
     72 H        0.000      0.000      0.000      0.000      0.002      0.034
                 25 H       27 H       28 H       30 H       31 H       33 H  
      3 H        0.074     -0.003      0.002      0.000      0.000      0.089
      4 H        2.301     -0.109      0.066      0.000      0.000      2.566
      8 H        0.120      0.000      0.000      0.000      0.000      0.111
      9 H       -0.258      0.014      0.000      0.000      0.000     -0.307
     10 H        0.000      0.000      0.000      0.000      0.000      0.000
     11 H        0.000      0.000      0.000      0.000      0.000      0.000
     13 H       -0.038      0.000      0.000      0.000      0.000      0.000
     16 H       -0.261      0.014     -0.005     -0.031     -0.002     -0.304
     17 H       -0.241      0.013      0.000      0.000      0.000     -0.299
     19 H        0.915     -0.045      0.074      0.064      0.005      0.972
     21 H       -2.830      0.190      0.671     -0.229     -0.027     -2.394
     24 H      -13.428      4.329      2.351      0.653     -0.497     -0.135
     25 H        0.000     12.975      5.210     -0.636     -0.354     -2.151
     27 H       12.975      0.000    -13.584      4.026     12.985      0.063
     28 H        5.210    -13.584      0.000      2.602      4.153      0.285
     30 H       -0.636      4.026      2.602      0.000    -12.982      0.034
     31 H       -0.354     12.985      4.153    -12.982      0.000     -0.324
     33 H       -2.151      0.063      0.285      0.034     -0.324      0.000
     35 H       -0.026      0.001     -0.001      0.000     -0.000     -0.034
     37 H        0.276      0.004     -0.036      0.512     -0.036      6.488
     38 H        0.168      0.001     -0.028     -0.012      0.125     12.173
     40 H       -0.013      0.019      0.146     -0.003     -0.033     -0.248
     41 H        0.010      0.022     -0.024      0.014      0.079     -0.433
     42 H       -0.018      0.014     -0.012     -0.259     -0.374     -0.211
     45 H       -0.059     -0.122     -0.146     -0.143      1.833     -0.474
     46 H       -0.017     -0.219      0.005     -0.208     -0.481     -0.213
     47 H        0.013      0.048      0.065     -0.337      0.026      0.870
     48 H       -0.014      0.030      0.022      0.028      0.008      0.000
     52 H        0.001      0.001      0.002     -0.003      0.001      0.003
     53 H        0.000     -0.000      0.000      0.000     -0.002     -0.003
     57 H        0.000      0.000      0.000     -0.000     -0.000      0.000
     58 H        0.000      0.000      0.000      0.000      0.000      0.000
     61 H        0.000      0.000      0.000      0.000      0.000     -0.000
     62 H        0.000      0.000      0.000      0.000      0.000      0.000
     63 H        0.000      0.000      0.000      0.000      0.000     -0.000
     64 H        0.000      0.000      0.000      0.000      0.000      0.000
     65 H        0.000      0.000      0.000      0.000      0.000      0.000
     66 H        0.000      0.000      0.000      0.000      0.000      0.000
     67 H        0.000      0.000      0.000     -0.000      0.000      0.000
     68 H        0.000      0.000      0.000      0.000      0.000      0.000
     69 H        0.000      0.000      0.000     -0.000     -0.000      0.000
     70 H        0.004     -0.011     -0.009     -0.435     -0.073      0.004
     71 H        0.000     -0.000     -0.003      0.077      0.015     -0.002
     72 H        0.000     -0.010     -0.011      0.088     -0.042      0.002
                 35 H       37 H       38 H       40 H       41 H       42 H  
      3 H       -0.270     -0.001     -0.001      0.000      0.000      0.000
      4 H       -0.648     -0.044     -0.015      0.000      0.000      0.000
      8 H       -0.027     -0.002     -0.002      0.000     -0.000      0.000
      9 H       -0.143      0.005      0.002      0.000      0.001      0.000
     10 H       -0.392     -0.000     -0.000      0.000      0.000      0.000
     11 H       -0.142     -0.002     -0.000      0.000      0.000      0.000
     13 H       12.410      0.000      0.000      0.000      0.000      0.000
     16 H       -0.003      0.004      0.004      0.000      0.001     -0.001
     17 H       -0.001      0.005      0.004     -0.000      0.001      0.000
     19 H        0.044     -0.018      0.082      0.013     -0.005      0.003
     21 H       -0.015      0.060     -0.571     -0.012      0.061     -0.023
     24 H       -0.001     -0.057     -0.081     -0.019      0.067     -0.024
     25 H       -0.026      0.276      0.168     -0.013      0.010     -0.018
     27 H        0.001      0.004      0.001      0.019      0.022      0.014
     28 H       -0.001     -0.036     -0.028      0.146     -0.024     -0.012
     30 H        0.000      0.512     -0.012     -0.003      0.014     -0.259
     31 H       -0.000     -0.036      0.125     -0.033      0.079     -0.374
     33 H       -0.034      6.488     12.173     -0.248     -0.433     -0.211
     35 H        0.000      0.000     -0.000      0.000      0.000      0.000
     37 H        0.000      0.000    -12.260      9.510      2.671     -0.263
     38 H       -0.000    -12.260      0.000      6.667     11.637     -0.468
     40 H        0.000      9.510      6.667      0.000    -13.876      9.509
     41 H        0.000      2.671     11.637    -13.876      0.000      8.737
     42 H        0.000     -0.263     -0.468      9.509      8.737      0.000
     45 H       -0.000      0.066     -0.062     -0.111     -0.065     -0.077
     46 H        0.000      0.060      0.034     -0.086      0.006      1.128
     47 H        0.000     -0.173      0.011      0.052      0.046     -0.408
     48 H        0.000      0.095     -0.009     -0.203     -0.426     10.345
     52 H        0.000     -0.000      0.004      0.079     -0.019     -0.287
     53 H        0.000      0.003      0.005     -0.119      0.018      0.095
     57 H        0.000      0.000      0.001      0.014     -0.002      0.026
     58 H        0.000      0.000      0.000      0.004     -0.001      0.001
     61 H        0.000      0.000      0.000     -0.004      0.001     -0.000
     62 H        0.000     -0.001     -0.000      0.011      0.003     -0.020
     63 H        0.000      0.000      0.000     -0.010     -0.001      0.001
     64 H        0.000      0.000      0.000      0.001     -0.000     -0.000
     65 H        0.000      0.000      0.000     -0.001     -0.000     -0.000
     66 H        0.000      0.000      0.000     -0.001     -0.000      0.000
     67 H        0.000      0.000      0.000      0.000     -0.000     -0.000
     68 H        0.000      0.000      0.000     -0.002      0.000      0.001
     69 H        0.000      0.000      0.000     -0.002     -0.000      0.002
     70 H        0.000     -0.007      0.004      0.083      0.023     -0.200
     71 H        0.000     -0.020      0.037      0.029     -0.054     -0.350
     72 H        0.000      0.064      0.010     -0.025      0.004     -0.431
                 45 H       46 H       47 H       48 H       52 H       53 H  
      3 H        0.001     -0.000     -0.001      0.000      0.000      0.000
      4 H        0.026     -0.017      0.000      0.000      0.000      0.000
      8 H        0.001     -0.001      0.000      0.000      0.000      0.000
      9 H       -0.003      0.002      0.000      0.000      0.000      0.000
     10 H        0.000     -0.000      0.000      0.000      0.000      0.000
     11 H        0.000      0.000      0.000      0.000      0.000      0.000
     13 H        0.000      0.000      0.000      0.000      0.000      0.000
     16 H       -0.003      0.001      0.002     -0.002      0.000      0.000
     17 H       -0.004      0.000      0.001     -0.002      0.000      0.000
     19 H        0.010     -0.010     -0.008      0.005      0.000      0.000
     21 H       -0.019      0.040      0.010     -0.015      0.002     -0.001
     24 H       -0.022     -0.023     -0.016      0.002      0.000      0.000
     25 H       -0.059     -0.017      0.013     -0.014      0.001      0.000
     27 H       -0.122     -0.219      0.048      0.030      0.001     -0.000
     28 H       -0.146      0.005      0.065      0.022      0.002      0.000
     30 H       -0.143     -0.208     -0.337      0.028     -0.003      0.000
     31 H        1.833     -0.481      0.026      0.008      0.001     -0.002
     33 H       -0.474     -0.213      0.870      0.000      0.003     -0.003
     35 H       -0.000      0.000      0.000      0.000      0.000      0.000
     37 H        0.066      0.060     -0.173      0.095     -0.000      0.003
     38 H       -0.062      0.034      0.011     -0.009      0.004      0.005
     40 H       -0.111     -0.086      0.052     -0.203      0.079     -0.119
     41 H       -0.065      0.006      0.046     -0.426     -0.019      0.018
     42 H       -0.077      1.128     -0.408     10.345     -0.287      0.095
     45 H        0.000    -13.573    -13.056     -0.172      0.072     -0.001
     46 H      -13.573      0.000    -12.903     -0.113      0.244     -0.000
     47 H      -13.056    -12.903      0.000     -0.067      0.077     -0.002
     48 H       -0.172     -0.113     -0.067      0.000      9.785     -0.627
     52 H        0.072      0.244      0.077      9.785      0.000     15.993
     53 H       -0.001     -0.000     -0.002     -0.627     15.993      0.000
     57 H       -0.000      0.000      0.000     -0.049     -0.682     10.144
     58 H        0.000      0.000      0.000      0.021      0.163     -0.320
     61 H        0.000      0.000      0.000      0.028      0.058     -0.329
     62 H        0.001      0.000      0.000      0.031     -0.329     -0.021
     63 H       -0.000     -0.000     -0.000     -0.004      0.115     -0.163
     64 H        0.000      0.000      0.000     -0.000     -0.004     -0.008
     65 H       -0.000     -0.000     -0.000     -0.004      0.081      0.035
     66 H        0.000      0.000      0.000     -0.003      0.120      0.034
     67 H        0.000      0.000      0.000      0.007      0.020     -0.004
     68 H        0.000      0.000      0.000     -0.002      0.082     -0.051
     69 H       -0.000      0.000     -0.000     -0.004      0.069     -0.001
     70 H       -0.016     -0.048     -0.183      4.505     -0.099     -0.411
     71 H        0.037     -0.031     -0.034     12.687     -0.269      0.097
     72 H       -0.011     -0.028     -0.016      2.312     -0.156      0.092
                 57 H       58 H       61 H       62 H       63 H       64 H  
      3 H        0.000      0.000      0.000      0.000      0.000      0.000
      4 H        0.000      0.000      0.000      0.000      0.000      0.000
      8 H        0.000      0.000      0.000      0.000      0.000      0.000
      9 H        0.000      0.000      0.000      0.000      0.000      0.000
     10 H        0.000      0.000      0.000      0.000      0.000      0.000
     11 H        0.000      0.000      0.000      0.000      0.000      0.000
     13 H        0.000      0.000      0.000      0.000      0.000      0.000
     16 H        0.000      0.000      0.000      0.000      0.000      0.000
     17 H        0.000      0.000      0.000      0.000      0.000      0.000
     19 H        0.000      0.000      0.000      0.000      0.000      0.000
     21 H        0.000      0.000      0.000      0.000     -0.000      0.000
     24 H        0.000      0.000      0.000      0.000      0.000      0.000
     25 H        0.000      0.000      0.000      0.000      0.000      0.000
     27 H        0.000      0.000      0.000      0.000      0.000      0.000
     28 H        0.000      0.000      0.000      0.000      0.000      0.000
     30 H       -0.000      0.000      0.000      0.000      0.000      0.000
     31 H       -0.000      0.000      0.000      0.000      0.000      0.000
     33 H        0.000      0.000     -0.000      0.000     -0.000      0.000
     35 H        0.000      0.000      0.000      0.000      0.000      0.000
     37 H        0.000      0.000      0.000     -0.001      0.000      0.000
     38 H        0.001      0.000      0.000     -0.000      0.000      0.000
     40 H        0.014      0.004     -0.004      0.011     -0.010      0.001
     41 H       -0.002     -0.001      0.001      0.003     -0.001     -0.000
     42 H        0.026      0.001     -0.000     -0.020      0.001     -0.000
     45 H       -0.000      0.000      0.000      0.001     -0.000      0.000
     46 H        0.000      0.000      0.000      0.000     -0.000      0.000
     47 H        0.000      0.000      0.000      0.000     -0.000      0.000
     48 H       -0.049      0.021      0.028      0.031     -0.004     -0.000
     52 H       -0.682      0.163      0.058     -0.329      0.115     -0.004
     53 H       10.144     -0.320     -0.329     -0.021     -0.163     -0.008
     57 H        0.000      2.658     12.980      2.552      4.535     -0.447
     58 H        2.658      0.000     -0.281     -0.332     -0.207      2.886
     61 H       12.980     -0.281      0.000    -12.255    -12.961     -0.273
     62 H        2.552     -0.332    -12.255      0.000    -12.587      0.017
     63 H        4.535     -0.207    -12.961    -12.587      0.000     -0.107
     64 H       -0.447      2.886     -0.273      0.017     -0.107      0.000
     65 H       -0.517     13.331      0.050      0.020      0.056    -12.037
     66 H        0.561      4.029     -0.078      0.052     -0.058    -13.140
     67 H       -0.333      3.202      0.038      0.055      0.009      2.862
     68 H        0.012      3.574     -0.062      0.024      0.573     -0.041
     69 H       -0.272     13.054      0.025      0.019     -0.055     -0.304
     70 H        0.107      0.130     -0.009      0.009     -0.016      0.004
     71 H        0.013     -0.012      0.002     -0.009      0.002     -0.001
     72 H       -0.003      0.037      0.001     -0.014      0.001     -0.000
                 65 H       66 H       67 H       68 H       69 H       70 H  
      3 H        0.000      0.000      0.000      0.000      0.000      0.000
      4 H        0.000      0.000      0.000      0.000      0.000      0.000
      8 H        0.000      0.000      0.000      0.000      0.000      0.000
      9 H        0.000      0.000      0.000      0.000      0.000      0.000
     10 H        0.000      0.000      0.000      0.000      0.000      0.000
     11 H        0.000      0.000      0.000      0.000      0.000      0.000
     13 H        0.000      0.000      0.000      0.000      0.000      0.000
     16 H        0.000      0.000      0.000      0.000      0.000      0.000
     17 H        0.000      0.000      0.000      0.000      0.000      0.000
     19 H        0.000      0.000      0.000      0.000      0.000     -0.000
     21 H        0.000      0.000      0.000      0.000      0.000      0.001
     24 H        0.000      0.000      0.000      0.000      0.000      0.020
     25 H        0.000      0.000      0.000      0.000      0.000      0.004
     27 H        0.000      0.000      0.000      0.000      0.000     -0.011
     28 H        0.000      0.000      0.000      0.000      0.000     -0.009
     30 H        0.000      0.000     -0.000      0.000     -0.000     -0.435
     31 H        0.000      0.000      0.000      0.000     -0.000     -0.073
     33 H        0.000      0.000      0.000      0.000      0.000      0.004
     35 H        0.000      0.000      0.000      0.000      0.000      0.000
     37 H        0.000      0.000      0.000      0.000      0.000     -0.007
     38 H        0.000      0.000      0.000      0.000      0.000      0.004
     40 H       -0.001     -0.001      0.000     -0.002     -0.002      0.083
     41 H       -0.000     -0.000     -0.000      0.000     -0.000      0.023
     42 H       -0.000      0.000     -0.000      0.001      0.002     -0.200
     45 H       -0.000      0.000      0.000      0.000     -0.000     -0.016
     46 H       -0.000      0.000      0.000      0.000      0.000     -0.048
     47 H       -0.000      0.000      0.000      0.000     -0.000     -0.183
     48 H       -0.004     -0.003      0.007     -0.002     -0.004      4.505
     52 H        0.081      0.120      0.020      0.082      0.069     -0.099
     53 H        0.035      0.034     -0.004     -0.051     -0.001     -0.411
     57 H       -0.517      0.561     -0.333      0.012     -0.272      0.107
     58 H       13.331      4.029      3.202      3.574     13.054      0.130
     61 H        0.050     -0.078      0.038     -0.062      0.025     -0.009
     62 H        0.020      0.052      0.055      0.024      0.019      0.009
     63 H        0.056     -0.058      0.009      0.573     -0.055     -0.016
     64 H      -12.037    -13.140      2.862     -0.041     -0.304      0.004
     65 H        0.000    -12.973     -0.227     -0.190     -0.323     -0.004
     66 H      -12.973      0.000     -0.068     -0.231     -0.229     -0.000
     67 H       -0.227     -0.068      0.000    -12.417    -12.409      0.004
     68 H       -0.190     -0.231    -12.417      0.000    -12.511      0.009
     69 H       -0.323     -0.229    -12.409    -12.511      0.000      0.003
     70 H       -0.004     -0.000      0.004      0.009      0.003      0.000
     71 H        0.001     -0.000      0.001      0.001     -0.002    -12.399
     72 H        0.000      0.002     -0.005     -0.002     -0.032    -13.303
                 71 H       72 H  
      3 H        0.000      0.000
      4 H        0.000      0.000
      8 H        0.000      0.000
      9 H        0.000      0.000
     10 H        0.000      0.000
     11 H        0.000      0.000
     13 H        0.000      0.000
     16 H        0.000      0.000
     17 H        0.000      0.000
     19 H        0.000      0.000
     21 H        0.001      0.002
     24 H        0.008      0.034
     25 H        0.000      0.000
     27 H       -0.000     -0.010
     28 H       -0.003     -0.011
     30 H        0.077      0.088
     31 H        0.015     -0.042
     33 H       -0.002      0.002
     35 H        0.000      0.000
     37 H       -0.020      0.064
     38 H        0.037      0.010
     40 H        0.029     -0.025
     41 H       -0.054      0.004
     42 H       -0.350     -0.431
     45 H        0.037     -0.011
     46 H       -0.031     -0.028
     47 H       -0.034     -0.016
     48 H       12.687      2.312
     52 H       -0.269     -0.156
     53 H        0.097      0.092
     57 H        0.013     -0.003
     58 H       -0.012      0.037
     61 H        0.002      0.001
     62 H       -0.009     -0.014
     63 H        0.002      0.001
     64 H       -0.001     -0.000
     65 H        0.001      0.000
     66 H       -0.000      0.002
     67 H        0.001     -0.005
     68 H        0.001     -0.002
     69 H       -0.002     -0.032
     70 H      -12.399    -13.303
     71 H        0.000    -12.615
     72 H      -12.615      0.000

Maximum memory used throughout the entire EPRNMR-calculation: 986.8 MB

Timings for individual modules:

Sum of individual times         ...      393.232 sec (=   6.554 min)
GTO integral calculation        ...        0.814 sec (=   0.014 min)   0.2 %
SCF iterations                  ...      102.072 sec (=   1.701 min)  26.0 %
EPR/NMR calculation             ...      290.346 sec (=   4.839 min)  73.8 %
                             ****ORCA TERMINATED NORMALLY****
TOTAL RUN TIME: 0 days 0 hours 6 minutes 33 seconds 626 msec
