
                                 *****************
                                 * O   R   C   A *
                                 *****************

                                            #,                                       
                                            ###                                      
                                            ####                                     
                                            #####                                    
                                            ######                                   
                                           ########,                                 
                                     ,,################,,,,,                         
                               ,,#################################,,                 
                          ,,##########################################,,             
                       ,#########################################, ''#####,          
                    ,#############################################,,   '####,        
                  ,##################################################,,,,####,       
                ,###########''''           ''''###############################       
              ,#####''   ,,,,##########,,,,          '''####'''          '####       
            ,##' ,,,,###########################,,,                        '##       
           ' ,,###''''                  '''############,,,                           
         ,,##''                                '''############,,,,        ,,,,,,###''
      ,#''                                            '''#######################'''  
     '                                                          ''''####''''         
             ,#######,   #######,   ,#######,      ##                                
            ,#'     '#,  ##    ##  ,#'     '#,    #''#        ######   ,####,        
            ##       ##  ##   ,#'  ##            #'  '#       #        #'  '#        
            ##       ##  #######   ##           ,######,      #####,   #    #        
            '#,     ,#'  ##    ##  '#,     ,#' ,#      #,         ##   #,  ,#        
             '#######'   ##     ##  '#######'  #'      '#     #####' # '####'        



                  #######################################################
                  #                        -***-                        #
                  #          Department of theory and spectroscopy      #
                  #    Directorship and core code : Frank Neese         #
                  #        Max Planck Institute fuer Kohlenforschung    #
                  #                Kaiser Wilhelm Platz 1               #
                  #                 D-45470 Muelheim/Ruhr               #
                  #                      Germany                        #
                  #                                                     #
                  #                  All rights reserved                #
                  #                        -***-                        #
                  #######################################################


                         Program Version 5.0.2 -  RELEASE  -


 With contributions from (in alphabetic order):
   Daniel Aravena         : Magnetic Suceptibility
   Michael Atanasov       : Ab Initio Ligand Field Theory (pilot matlab implementation)
   Alexander A. Auer      : GIAO ZORA, VPT2 properties, NMR spectrum
   Ute Becker             : Parallelization
   Giovanni Bistoni       : ED, misc. LED, open-shell LED, HFLD
   Martin Brehm           : Molecular dynamics
   Dmytro Bykov           : SCF Hessian
   Vijay G. Chilkuri      : MRCI spin determinant printing, contributions to CSF-ICE
   Dipayan Datta          : RHF DLPNO-CCSD density
   Achintya Kumar Dutta   : EOM-CC, STEOM-CC
   Dmitry Ganyushin       : Spin-Orbit,Spin-Spin,Magnetic field MRCI
   Miquel Garcia          : C-PCM and meta-GGA Hessian, CC/C-PCM, Gaussian charge scheme
   Yang Guo               : DLPNO-NEVPT2, F12-NEVPT2, CIM, IAO-localization
   Andreas Hansen         : Spin unrestricted coupled pair/coupled cluster methods
   Benjamin Helmich-Paris : MC-RPA, TRAH-SCF, COSX integrals
   Lee Huntington         : MR-EOM, pCC
   Robert Izsak           : Overlap fitted RIJCOSX, COSX-SCS-MP3, EOM
   Marcus Kettner         : VPT2
   Christian Kollmar      : KDIIS, OOCD, Brueckner-CCSD(T), CCSD density, CASPT2, CASPT2-K
   Simone Kossmann        : Meta GGA functionals, TD-DFT gradient, OOMP2, MP2 Hessian
   Martin Krupicka        : Initial AUTO-CI
   Lucas Lang             : DCDCAS
   Marvin Lechner         : AUTO-CI (C++ implementation), FIC-MRCC
   Dagmar Lenk            : GEPOL surface, SMD
   Dimitrios Liakos       : Extrapolation schemes; Compound Job, initial MDCI parallelization
   Dimitrios Manganas     : Further ROCIS development; embedding schemes
   Dimitrios Pantazis     : SARC Basis sets
   Anastasios Papadopoulos: AUTO-CI, single reference methods and gradients
   Taras Petrenko         : DFT Hessian,TD-DFT gradient, ASA, ECA, R-Raman, ABS, FL, XAS/XES, NRVS
   Peter Pinski           : DLPNO-MP2, DLPNO-MP2 Gradient
   Christoph Reimann      : Effective Core Potentials
   Marius Retegan         : Local ZFS, SOC
   Christoph Riplinger    : Optimizer, TS searches, QM/MM, DLPNO-CCSD(T), (RO)-DLPNO pert. Triples
   Tobias Risthaus        : Range-separated hybrids, TD-DFT gradient, RPA, STAB
   Michael Roemelt        : Original ROCIS implementation
   Masaaki Saitow         : Open-shell DLPNO-CCSD energy and density
   Barbara Sandhoefer     : DKH picture change effects
   Avijit Sen             : IP-ROCIS
   Kantharuban Sivalingam : CASSCF convergence, NEVPT2, FIC-MRCI
   Bernardo de Souza      : ESD, SOC TD-DFT
   Georgi Stoychev        : AutoAux, RI-MP2 NMR, DLPNO-MP2 response
   Willem Van den Heuvel  : Paramagnetic NMR
   Boris Wezisla          : Elementary symmetry handling
   Frank Wennmohs         : Technical directorship


 We gratefully acknowledge several colleagues who have allowed us to
 interface, adapt or use parts of their codes:
   Stefan Grimme, W. Hujo, H. Kruse, P. Pracht,  : VdW corrections, initial TS optimization,
                  C. Bannwarth, S. Ehlert          DFT functionals, gCP, sTDA/sTD-DF
   Ed Valeev, F. Pavosevic, A. Kumar             : LibInt (2-el integral package), F12 methods
   Garnet Chan, S. Sharma, J. Yang, R. Olivares  : DMRG
   Ulf Ekstrom                                   : XCFun DFT Library
   Mihaly Kallay                                 : mrcc  (arbitrary order and MRCC methods)
   Jiri Pittner, Ondrej Demel                    : Mk-CCSD
   Frank Weinhold                                : gennbo (NPA and NBO analysis)
   Christopher J. Cramer and Donald G. Truhlar   : smd solvation model
   Lars Goerigk                                  : TD-DFT with DH, B97 family of functionals
   V. Asgeirsson, H. Jonsson                     : NEB implementation
   FAccTs GmbH                                   : IRC, NEB, NEB-TS, DLPNO-Multilevel, CI-OPT
                                                   MM, QMMM, 2- and 3-layer-ONIOM, Crystal-QMMM,
                                                   LR-CPCM, SF, NACMEs, symmetry and pop. for TD-DFT,
                                                   nearIR, NL-DFT gradient (VV10), updates on ESD,
                                                   ML-optimized integration grids
   S Lehtola, MJT Oliveira, MAL Marques          : LibXC Library
   Liviu Ungur et al                             : ANISO software


 Your calculation uses the libint2 library for the computation of 2-el integrals
 For citations please refer to: http://libint.valeyev.net

 Your ORCA version has been built with support for libXC version: 5.1.0
 For citations please refer to: https://tddft.org/programs/libxc/

 This ORCA versions uses:
   CBLAS   interface :  Fast vector & matrix operations
   LAPACKE interface :  Fast linear algebra routines
   SCALAPACK package :  Parallel linear algebra routines
   Shared memory     :  Shared parallel matrices
   BLAS/LAPACK       :  OpenBLAS 0.3.15  USE64BITINT DYNAMIC_ARCH NO_AFFINITY Zen SINGLE_THREADED
        Core in use  :  Zen
   Copyright (c) 2011-2014, The OpenBLAS Project


Your calculation utilizes the atom-pairwise dispersion correction
based on tight binding partial charges (D4)
Cite in your paper:
E.Caldeweyher, C.Bannwarth, S.Grimme, J.Chem.Phys., (2017), 147, 034112.
E.Caldeweyher, S.Ehlert, A.Hansen, H.Neugebauer, S.Grimme, J.Chem.Phys., (2018), in progress.
   

================================================================================

----- Orbital basis set information -----
Your calculation utilizes the basis: pcSseg-1
   F. Jensen, J. Chem. Theory Comput. 11, 132 (2015).

----- AuxJ basis set information -----
Your calculation utilizes the auxiliary basis: def2/J
   F. Weigend, Phys. Chem. Chem. Phys. 8, 1057 (2006).

================================================================================
                                        WARNINGS
                       Please study these warnings very carefully!
================================================================================



WARNING: Found flag for RIJCOSX approximation but no HF exchange needed!
  ===> : RIJCOSX  will be disabled and Split-RI-J is turned on

INFO   : the flag for use of the SHARK integral package has been found!

================================================================================
                                       INPUT FILE
================================================================================
NAME = inpS
|  1> ! revTPSS
|  2> ! D4
|  3> ! pcSseg-1
|  4> ! def2/J RIJCOSX
|  5> ! DEFGRID2
|  6> ! scfconv7
|  7> ! smallprint printgap noloewdin
|  8> ! NOSOSCF
|  9> %MaxCore 4000
| 10> %output
| 11>        print[P_BondOrder_M] 1
| 12>        print[P_Mayer] 1
| 13>        print[P_basis] 2
| 14> end
| 15> %pal
| 16>     nprocs 4
| 17> end
| 18> ! CPCM(chloroform)
| 19> *xyz 0 1
| 20> C   -5.0486647100   0.1934272600  -0.4613964200
| 21> C   -6.4926790600  -0.2252913100  -0.6055016100
| 22> C   -7.3983220400   0.6721027700   0.2475984500
| 23> H   -6.6233371600  -1.2740653300  -0.3155623600
| 24> H   -6.8084874900  -0.1217409200  -1.6541892300
| 25> C   -4.8075709300   1.6250848000  -0.7472037200
| 26> C   -5.7393510400   2.5725042100  -0.0240590000
| 27> C   -7.2070435500   2.1383125000  -0.1439713000
| 28> H   -5.6078017000   3.5929153700  -0.3995082100
| 29> H   -5.4612822200   2.5837882500   1.0408177000
| 30> H   -7.5444650900   2.2653383200  -1.1816536900
| 31> H   -7.8395583200   2.7716572900   0.4887518400
| 32> O   -7.1504962900   0.4595134400   1.6473888700
| 33> H   -8.4462758900   0.3860094400   0.0944417400
| 34> C   -4.1039351200  -0.6795365200  -0.0372459900
| 35> C   -3.8726107500   2.0528233400  -1.6026538900
| 36> H   -3.2240031300   1.3554882300  -2.1261612700
| 37> H   -3.7430451500   3.1134604400  -1.8048545600
| 38> C   -2.7203267500  -0.3696325800   0.2395257100
| 39> H   -4.4367892400  -1.7017131500   0.1392668300
| 40> C   -1.7507215600  -1.2498201800   0.5676081100
| 41> H   -2.4509692400   0.6827635500   0.1854151200
| 42> C   -1.9155058100  -2.7449292800   0.6670813300
| 43> C   -0.9017453400  -3.4867335500  -0.2258833600
| 44> H   -2.9300582600  -3.0692737400   0.4202344500
| 45> H   -1.7282543100  -3.0370525800   1.7126220700
| 46> C    0.5414631600  -3.0157928800   0.0003176900
| 47> H   -1.1793395700  -3.3418414600  -1.2775845600
| 48> H   -0.9715750800  -4.5638708300  -0.0307243800
| 49> C    0.6757815100  -1.4941247200  -0.1459142200
| 50> H    1.2001221800  -3.5426630500  -0.6980267200
| 51> H    0.8589560400  -3.2973416800   1.0156941400
| 52> C   -0.3378815400  -0.8363157000   0.8447820700
| 53> H   -0.0756472100  -1.2626174900   1.8304119500
| 54> C    0.0651137400   0.6354765400   0.8683617700
| 55> H   -6.1925668700   0.3934242000   1.7685762400
| 56> C    1.6078532400   0.5926223200   0.7420751300
| 57> H   -0.2747395000   1.1404652800   1.7786202300
| 58> H   -0.3722353200   1.1723092300   0.0191524200
| 59> C    1.9981942500  -0.8719350300   0.3808710000
| 60> H    2.1039697400   0.9054996700   1.6661570700
| 61> H    1.9556866100   1.2766812400  -0.0409241200
| 62> H    2.2461507700  -1.4085609900   1.3114400300
| 63> C    3.2522700600  -0.9175009600  -0.5152360500
| 64> C    0.4015745200  -1.0514967000  -1.5895802700
| 65> H    0.6062784900   0.0146973000  -1.7295027900
| 66> H   -0.6419245300  -1.2230768500  -1.8713856100
| 67> H    1.0354845000  -1.6059155300  -2.2904289100
| 68> H    3.0334886300  -0.3722946400  -1.4452159500
| 69> C    3.6984956100  -2.3435494900  -0.8731167200
| 70> C    4.3853768100  -0.2099226900   0.1786500100
| 71> C    5.0517143100   0.8380700700  -0.3033953800
| 72> H    4.6749591400  -0.6215369800   1.1509401000
| 73> H    4.7523041600   1.2468711800  -1.2722046800
| 74> C    6.1860795600   1.5381146900   0.3909889500
| 75> C    5.8738203000   3.0347067400   0.5345674900
| 76> C    7.5548905600   1.2982733000  -0.3029214600
| 77> H    6.2743607400   1.1123730400   1.4018598300
| 78> H    8.2859567600   1.9060703000   0.2524230900
| 79> C    7.5839400000   1.7473295600  -1.7660993100
| 80> C    7.9762701600  -0.1674601600  -0.1891964400
| 81> H    5.6890875500   3.4996569300  -0.4400775000
| 82> H    6.7066861400   3.5640958600   1.0118077200
| 83> H    4.9769355300   3.1824616300   1.1455767300
| 84> H    7.2863976500   2.7942784400  -1.8840089900
| 85> H    6.9145180200   1.1318878600  -2.3783676400
| 86> H    8.5949143800   1.6409706200  -2.1746679200
| 87> H    7.9896967500  -0.4974434900   0.8560639700
| 88> H    8.9774081200  -0.3200212200  -0.6078348200
| 89> H    7.2784831800  -0.8131555600  -0.7354684800
| 90> H    2.9786909000  -2.8435806200  -1.5261808000
| 91> H    3.8184537500  -2.9520567500   0.0316672800
| 92> H    4.6621464500  -2.3176586100  -1.3931688900
| 93> *
| 94> %eprnmr
| 95>  Nuclei = all H { shift }
| 96>  origin giao
| 97>  giao_2el giao_2el_same_as_scf
| 98>  giao_1el giao_1el_analytic
| 99> end
|100> 
|101>                          ****END OF INPUT****
================================================================================

                       ****************************
                       * Single Point Calculation *
                       ****************************

---------------------------------
CARTESIAN COORDINATES (ANGSTROEM)
---------------------------------
  C     -5.048665    0.193427   -0.461396
  C     -6.492679   -0.225291   -0.605502
  C     -7.398322    0.672103    0.247598
  H     -6.623337   -1.274065   -0.315562
  H     -6.808487   -0.121741   -1.654189
  C     -4.807571    1.625085   -0.747204
  C     -5.739351    2.572504   -0.024059
  C     -7.207044    2.138313   -0.143971
  H     -5.607802    3.592915   -0.399508
  H     -5.461282    2.583788    1.040818
  H     -7.544465    2.265338   -1.181654
  H     -7.839558    2.771657    0.488752
  O     -7.150496    0.459513    1.647389
  H     -8.446276    0.386009    0.094442
  C     -4.103935   -0.679537   -0.037246
  C     -3.872611    2.052823   -1.602654
  H     -3.224003    1.355488   -2.126161
  H     -3.743045    3.113460   -1.804855
  C     -2.720327   -0.369633    0.239526
  H     -4.436789   -1.701713    0.139267
  C     -1.750722   -1.249820    0.567608
  H     -2.450969    0.682764    0.185415
  C     -1.915506   -2.744929    0.667081
  C     -0.901745   -3.486734   -0.225883
  H     -2.930058   -3.069274    0.420234
  H     -1.728254   -3.037053    1.712622
  C      0.541463   -3.015793    0.000318
  H     -1.179340   -3.341841   -1.277585
  H     -0.971575   -4.563871   -0.030724
  C      0.675782   -1.494125   -0.145914
  H      1.200122   -3.542663   -0.698027
  H      0.858956   -3.297342    1.015694
  C     -0.337882   -0.836316    0.844782
  H     -0.075647   -1.262617    1.830412
  C      0.065114    0.635477    0.868362
  H     -6.192567    0.393424    1.768576
  C      1.607853    0.592622    0.742075
  H     -0.274740    1.140465    1.778620
  H     -0.372235    1.172309    0.019152
  C      1.998194   -0.871935    0.380871
  H      2.103970    0.905500    1.666157
  H      1.955687    1.276681   -0.040924
  H      2.246151   -1.408561    1.311440
  C      3.252270   -0.917501   -0.515236
  C      0.401575   -1.051497   -1.589580
  H      0.606278    0.014697   -1.729503
  H     -0.641925   -1.223077   -1.871386
  H      1.035484   -1.605916   -2.290429
  H      3.033489   -0.372295   -1.445216
  C      3.698496   -2.343549   -0.873117
  C      4.385377   -0.209923    0.178650
  C      5.051714    0.838070   -0.303395
  H      4.674959   -0.621537    1.150940
  H      4.752304    1.246871   -1.272205
  C      6.186080    1.538115    0.390989
  C      5.873820    3.034707    0.534567
  C      7.554891    1.298273   -0.302921
  H      6.274361    1.112373    1.401860
  H      8.285957    1.906070    0.252423
  C      7.583940    1.747330   -1.766099
  C      7.976270   -0.167460   -0.189196
  H      5.689088    3.499657   -0.440078
  H      6.706686    3.564096    1.011808
  H      4.976936    3.182462    1.145577
  H      7.286398    2.794278   -1.884009
  H      6.914518    1.131888   -2.378368
  H      8.594914    1.640971   -2.174668
  H      7.989697   -0.497443    0.856064
  H      8.977408   -0.320021   -0.607835
  H      7.278483   -0.813156   -0.735468
  H      2.978691   -2.843581   -1.526181
  H      3.818454   -2.952057    0.031667
  H      4.662146   -2.317659   -1.393169

----------------------------
CARTESIAN COORDINATES (A.U.)
----------------------------
  NO LB      ZA    FRAG     MASS         X           Y           Z
   0 C     6.0000    0    12.011   -9.540594    0.365525   -0.871913
   1 C     6.0000    0    12.011  -12.269385   -0.425739   -1.144232
   2 C     6.0000    0    12.011  -13.980803    1.270090    0.467893
   3 H     1.0000    0     1.008  -12.516293   -2.407635   -0.596326
   4 H     1.0000    0     1.008  -12.866177   -0.230057   -3.125965
   5 C     6.0000    0    12.011   -9.084992    3.070965   -1.412010
   6 C     6.0000    0    12.011  -10.845802    4.861328   -0.045465
   7 C     6.0000    0    12.011  -13.619339    4.040825   -0.272066
   8 H     1.0000    0     1.008  -10.597209    6.789626   -0.754961
   9 H     1.0000    0     1.008  -10.320328    4.882652    1.966860
  10 H     1.0000    0     1.008  -14.256973    4.280869   -2.233002
  11 H     1.0000    0     1.008  -14.814618    5.237673    0.923607
  12 O     8.0000    0    15.999  -13.512480    0.868355    3.113114
  13 H     1.0000    0     1.008  -15.961148    0.729452    0.178469
  14 C     6.0000    0    12.011   -7.755313   -1.284138   -0.070385
  15 C     6.0000    0    12.011   -7.318174    3.879274   -3.028577
  16 H     1.0000    0     1.008   -6.092483    2.561502   -4.017863
  17 H     1.0000    0     1.008   -7.073330    5.883588   -3.410681
  18 C     6.0000    0    12.011   -5.140673   -0.698504    0.452638
  19 H     1.0000    0     1.008   -8.384317   -3.215772    0.263176
  20 C     6.0000    0    12.011   -3.308384   -2.361818    1.072624
  21 H     1.0000    0     1.008   -4.631661    1.290236    0.350384
  22 C     6.0000    0    12.011   -3.619781   -5.187165    1.260601
  23 C     6.0000    0    12.011   -1.704052   -6.588972   -0.426858
  24 H     1.0000    0     1.008   -5.537008   -5.800087    0.794128
  25 H     1.0000    0     1.008   -3.265927   -5.739198    3.236387
  26 C     6.0000    0    12.011    1.023217   -5.699023    0.000600
  27 H     1.0000    0     1.008   -2.228629   -6.315165   -2.414285
  28 H     1.0000    0     1.008   -1.836011   -8.624466   -0.058061
  29 C     6.0000    0    12.011    1.277042   -2.823487   -0.275738
  30 H     1.0000    0     1.008    2.267902   -6.694663   -1.319079
  31 H     1.0000    0     1.008    1.623192   -6.231073    1.919384
  32 C     6.0000    0    12.011   -0.638504   -1.580408    1.596407
  33 H     1.0000    0     1.008   -0.142953   -2.386001    3.458977
  34 C     6.0000    0    12.011    0.123047    1.200877    1.640966
  35 H     1.0000    0     1.008  -11.702255    0.743464    3.342125
  36 C     6.0000    0    12.011    3.038402    1.119894    1.402319
  37 H     1.0000    0     1.008   -0.519182    2.155167    3.361105
  38 H     1.0000    0     1.008   -0.703423    2.215343    0.036193
  39 C     6.0000    0    12.011    3.776040   -1.647718    0.719742
  40 H     1.0000    0     1.008    3.975927    1.711146    3.148581
  41 H     1.0000    0     1.008    3.695712    2.412578   -0.077335
  42 H     1.0000    0     1.008    4.244610   -2.661795    2.478262
  43 C     6.0000    0    12.011    6.145900   -1.733826   -0.973655
  44 C     6.0000    0    12.011    0.758866   -1.987041   -3.003871
  45 H     1.0000    0     1.008    1.145700    0.027774   -3.268287
  46 H     1.0000    0     1.008   -1.213062   -2.311280   -3.536406
  47 H     1.0000    0     1.008    1.956782   -3.034741   -4.328283
  48 H     1.0000    0     1.008    5.732463   -0.703535   -2.731062
  49 C     6.0000    0    12.011    6.989144   -4.428667   -1.649951
  50 C     6.0000    0    12.011    8.287161   -0.396696    0.337600
  51 C     6.0000    0    12.011    9.546357    1.583723   -0.573334
  52 H     1.0000    0     1.008    8.834392   -1.174535    2.174962
  53 H     1.0000    0     1.008    8.980553    2.356245   -2.404118
  54 C     6.0000    0    12.011   11.689996    2.906616    0.738862
  55 C     6.0000    0    12.011   11.099912    5.734765    1.010186
  56 C     6.0000    0    12.011   14.276674    2.453381   -0.572439
  57 H     1.0000    0     1.008   11.856823    2.102080    2.649131
  58 H     1.0000    0     1.008   15.658189    3.601951    0.477011
  59 C     6.0000    0    12.011   14.331570    3.301974   -3.337444
  60 C     6.0000    0    12.011   15.072966   -0.316454   -0.357529
  61 H     1.0000    0     1.008   10.750817    6.613393   -0.831626
  62 H     1.0000    0     1.008   12.673800    6.735165    1.912039
  63 H     1.0000    0     1.008    9.405045    6.013981    2.164826
  64 H     1.0000    0     1.008   13.769296    5.280421   -3.560261
  65 H     1.0000    0     1.008   13.066545    2.138958   -4.494463
  66 H     1.0000    0     1.008   16.242034    3.100985   -4.109527
  67 H     1.0000    0     1.008   15.098339   -0.940032    1.617726
  68 H     1.0000    0     1.008   16.964843   -0.604752   -1.148641
  69 H     1.0000    0     1.008   13.754340   -1.536641   -1.389834
  70 H     1.0000    0     1.008    5.628910   -5.373589   -2.884064
  71 H     1.0000    0     1.008    7.215832   -5.578579    0.059842
  72 H     1.0000    0     1.008    8.810180   -4.379740   -2.632708

--------------------------------
INTERNAL COORDINATES (ANGSTROEM)
--------------------------------
 C      0   0   0     0.000000000000     0.00000000     0.00000000
 C      1   0   0     1.510387033066     0.00000000     0.00000000
 C      2   1   0     1.534042064095   110.43771341     0.00000000
 H      2   1   3     1.095930313849   110.73449473   237.88178816
 H      2   1   3     1.100092437966   109.83517186   118.75721209
 C      1   2   3     1.479680822112   113.92723064   306.04666514
 C      6   1   2     1.512863509343   114.40833843    49.80310854
 C      3   2   1     1.529602988425   110.15463179    56.83842159
 H      7   6   1     1.095219737585   110.22016986   188.81233925
 H      7   6   1     1.100641623971   108.25710871    72.13781292
 H      8   3   2     1.098532474312   108.31518154    64.43379918
 H      8   3   2     1.096147403035   109.50690684   181.42503657
 O      3   2   1     1.437367401021   110.68715456   292.82832483
 H      3   2   1     1.097047694049   109.49661395   177.30447761
 C      1   2   3     1.354431004770   121.20208187   122.76522007
 C      6   1   2     1.337499828090   123.15207984   231.71352455
 H     16   6   1     1.086751157016   121.33891279   359.03899679
 H     16   6   1     1.087484902676   120.93835463   178.43204050
 C     15   1   2     1.444650527803   126.14079139   185.23358799
 H     15   1   2     1.089400616735   116.25559032     3.13802155
 C     19  15   1     1.350000924762   126.48222062   185.21138920
 H     19  15   1     1.087666786559   115.79889852     5.96286338
 C     21  19  15     1.507448172060   125.74497698     2.07690917
 C     23  21  19     1.541223476045   111.54514235   124.80511812
 H     23  21  19     1.093366079911   112.38047022     1.15424631
 H     23  21  19     1.101614535877   107.88182747   243.36693781
 C     24  23  21     1.534862470762   112.66970926    51.10375346
 H     24  23  21     1.097327521005   108.98662778   288.97825585
 H     24  23  21     1.096899238777   109.12799896   173.04580547
 C     27  24  23     1.534568075977   111.87037355   306.39060969
 H     27  24  23     1.095038262181   108.90262064   182.90879959
 H     27  24  23     1.100482072024   109.19317362    66.43605984
 C     21  19  15     1.497974726488   122.84695246   180.28289015
 H     33  21  19     1.105425854744   106.39564214   127.03248062
 C     33  21  19     1.526149925688   121.20635996     4.46020127
 H     13   3   2     0.967823816608   107.61962006    42.09990986
 C     35  33  21     1.548492804140   103.59927710   196.97531470
 H     35  33  21     1.095027084718   112.06322733    74.91972183
 H     35  33  21     1.095728094676   110.80023867   315.32853787
 C     30  27  24     1.553511549126   116.06136847   166.20248859
 H     37  35  33     1.094509593174   112.01359616   249.17990639
 H     37  35  33     1.096363299649   110.91972238   130.57207579
 H     40  30  27     1.102455702671   106.42329029   320.78711526
 C     40  30  27     1.542008507196   118.90772461    81.58267688
 C     30  27  24     1.534692380048   111.09966412   294.00623720
 H     45  30  27     1.094646825498   111.57682087   186.51164135
 H     45  30  27     1.094415033192   111.55315097    66.45503845
 H     45  30  27     1.095632656501   110.63495759   306.31240699
 H     44  40  30     1.099989936265   108.35544511    60.45443125
 C     44  40  30     1.536492832833   113.51395280   299.58805605
 C     44  40  30     1.505349055646   109.29356462   177.72741941
 C     51  44  40     1.332164496952   125.41434682   238.46064681
 H     51  44  40     1.094820655949   115.57771656    59.46654852
 H     52  51  44     1.093323486086   118.54240100     1.40497852
 C     52  51  44     1.503002524332   125.22197355   180.24514560
 C     55  52  51     1.535548243048   110.10053763   235.64129095
 C     55  52  51     1.553280110986   112.75485015   110.01885740
 H     55  52  51     1.100413311133   107.74328819   353.08594905
 H     57  55  52     1.101037034439   105.93577755   176.49084848
 C     57  55  52     1.530811815783   113.47997625    58.27675755
 C     57  55  52     1.529336039997   110.95141403   293.42679964
 H     56  55  52     1.095553615592   111.39136418   302.20057757
 H     56  55  52     1.096210100731   110.90873553   181.76331519
 H     56  55  52     1.095247044982   110.49770032    61.64158343
 H     60  57  55     1.094776735236   112.22939714    54.76869587
 H     60  57  55     1.096251240057   110.95050702   293.70727954
 H     60  57  55     1.095586477742   110.21104257   174.75560147
 H     61  57  55     1.096192773243   111.27161340   304.94145668
 H     61  57  55     1.095814849868   110.90062581   184.53547059
 H     61  57  55     1.096468130282   110.60975643    64.72727829
 H     50  44  40     1.092997092445   111.87071050    67.65882155
 H     50  44  40     1.096952655077   110.76240501   306.95193218
 H     50  44  40     1.095329876622   110.13019540   187.58675469

---------------------------
INTERNAL COORDINATES (A.U.)
---------------------------
 C      0   0   0     0.000000000000     0.00000000     0.00000000
 C      1   0   0     2.854217848720     0.00000000     0.00000000
 C      2   1   0     2.898919379056   110.43771341     0.00000000
 H      2   1   3     2.071008155037   110.73449473   237.88178816
 H      2   1   3     2.078873429753   109.83517186   118.75721209
 C      1   2   3     2.796191519408   113.92723064   306.04666514
 C      6   1   2     2.858897710660   114.40833843    49.80310854
 C      3   2   1     2.890530741751   110.15463179    56.83842159
 H      7   6   1     2.069665360501   110.22016986   188.81233925
 H      7   6   1     2.079911240900   108.25710871    72.13781292
 H      8   3   2     2.075925525669   108.31518154    64.43379918
 H      8   3   2     2.071418394145   109.50690684   181.42503657
 O      3   2   1     2.716230741755   110.68715456   292.82832483
 H      3   2   1     2.073119697603   109.49661395   177.30447761
 C      1   2   3     2.559503666307   121.20208187   122.76522007
 C      6   1   2     2.527508379256   123.15207984   231.71352455
 H     16   6   1     2.053662062482   121.33891279   359.03899679
 H     16   6   1     2.055048640832   120.93835463   178.43204050
 C     15   1   2     2.729993856773   126.14079139   185.23358799
 H     15   1   2     2.058668815755   116.25559032     3.13802155
 C     19  15   1     2.551132028341   126.48222062   185.21138920
 H     19  15   1     2.055392351558   115.79889852     5.96286338
 C     21  19  15     2.848664206274   125.74497698     2.07690917
 C     23  21  19     2.912490280895   111.54514235   124.80511812
 H     23  21  19     2.066162455150   112.38047022     1.15424631
 H     23  21  19     2.081749777954   107.88182747   243.36693781
 C     24  23  21     2.900469722974   112.66970926    51.10375346
 H     24  23  21     2.073648493914   108.98662778   288.97825585
 H     24  23  21     2.072839157795   109.12799896   173.04580547
 C     27  24  23     2.899913397454   111.87037355   306.39060969
 H     27  24  23     2.069322421688   108.90262064   182.90879959
 H     27  24  23     2.079609731416   109.19317362    66.43605984
 C     21  19  15     2.830761988597   122.84695246   180.28289015
 H     33  21  19     2.088952126822   106.39564214   127.03248062
 C     33  21  19     2.884005398855   121.20635996     4.46020127
 H     13   3   2     1.828921959275   107.61962006    42.09990986
 C     35  33  21     2.926227320173   103.59927710   196.97531470
 H     35  33  21     2.069301299344   112.06322733    74.91972183
 H     35  33  21     2.070626016182   110.80023867   315.32853787
 C     30  27  24     2.935711373731   116.06136847   166.20248859
 H     37  35  33     2.068323382048   112.01359616   249.17990639
 H     37  35  33     2.071826379619   110.91972238   130.57207579
 H     40  30  27     2.083339352828   106.42329029   320.78711526
 C     40  30  27     2.913973774776   118.90772461    81.58267688
 C     30  27  24     2.900148298106   111.09966412   294.00623720
 H     45  30  27     2.068582713558   111.57682087   186.51164135
 H     45  30  27     2.068144689580   111.55315097    66.45503845
 H     45  30  27     2.070445664168   110.63495759   306.31240699
 H     44  40  30     2.078679729611   108.35544511    60.45443125
 C     44  40  30     2.903550660787   113.51395280   299.58805605
 C     44  40  30     2.844697451128   109.29356462   177.72741941
 C     51  44  40     2.517426064572   125.41434682   238.46064681
 H     51  44  40     2.068911205504   115.57771656    59.46654852
 H     52  51  44     2.066081964486   118.54240100     1.40497852
 C     52  51  44     2.840263149580   125.22197355   180.24514560
 C     55  52  51     2.901765644784   110.10053763   235.64129095
 C     55  52  51     2.935274019030   112.75485015   110.01885740
 H     55  52  51     2.079479792163   107.74328819   353.08594905
 H     57  55  52     2.080658458394   105.93577755   176.49084848
 C     57  55  52     2.892815094400   113.47997625    58.27675755
 C     57  55  52     2.890026282330   110.95141403   293.42679964
 H     56  55  52     2.070296298495   111.39136418   302.20057757
 H     56  55  52     2.071536875619   110.90873553   181.76331519
 H     56  55  52     2.069716964003   110.49770032    61.64158343
 H     60  57  55     2.068828207385   112.22939714    54.76869587
 H     60  57  55     2.071614617680   110.95050702   293.70727954
 H     60  57  55     2.070358398960   110.21104257   174.75560147
 H     61  57  55     2.071504131413   111.27161340   304.94145668
 H     61  57  55     2.070789959734   110.90062581   184.53547059
 H     61  57  55     2.072024480806   110.60975643    64.72727829
 H     50  44  40     2.065465169894   111.87071050    67.65882155
 H     50  44  40     2.072940099974   110.76240501   306.95193218
 H     50  44  40     2.069873493118   110.13019540   187.58675469

---------------------
BASIS SET INFORMATION
---------------------
There are 3 groups of distinct atoms

 Group   1 Type C   : 8s5p1d contracted to 3s3p1d pattern {521/311/1}
 Group   2 Type H   : 4s2p contracted to 2s1p pattern {31/2}
 Group   3 Type O   : 8s5p1d contracted to 3s3p1d pattern {521/311/1}

Atom   0C    basis set group =>   1
Atom   1C    basis set group =>   1
Atom   2C    basis set group =>   1
Atom   3H    basis set group =>   2
Atom   4H    basis set group =>   2
Atom   5C    basis set group =>   1
Atom   6C    basis set group =>   1
Atom   7C    basis set group =>   1
Atom   8H    basis set group =>   2
Atom   9H    basis set group =>   2
Atom  10H    basis set group =>   2
Atom  11H    basis set group =>   2
Atom  12O    basis set group =>   3
Atom  13H    basis set group =>   2
Atom  14C    basis set group =>   1
Atom  15C    basis set group =>   1
Atom  16H    basis set group =>   2
Atom  17H    basis set group =>   2
Atom  18C    basis set group =>   1
Atom  19H    basis set group =>   2
Atom  20C    basis set group =>   1
Atom  21H    basis set group =>   2
Atom  22C    basis set group =>   1
Atom  23C    basis set group =>   1
Atom  24H    basis set group =>   2
Atom  25H    basis set group =>   2
Atom  26C    basis set group =>   1
Atom  27H    basis set group =>   2
Atom  28H    basis set group =>   2
Atom  29C    basis set group =>   1
Atom  30H    basis set group =>   2
Atom  31H    basis set group =>   2
Atom  32C    basis set group =>   1
Atom  33H    basis set group =>   2
Atom  34C    basis set group =>   1
Atom  35H    basis set group =>   2
Atom  36C    basis set group =>   1
Atom  37H    basis set group =>   2
Atom  38H    basis set group =>   2
Atom  39C    basis set group =>   1
Atom  40H    basis set group =>   2
Atom  41H    basis set group =>   2
Atom  42H    basis set group =>   2
Atom  43C    basis set group =>   1
Atom  44C    basis set group =>   1
Atom  45H    basis set group =>   2
Atom  46H    basis set group =>   2
Atom  47H    basis set group =>   2
Atom  48H    basis set group =>   2
Atom  49C    basis set group =>   1
Atom  50C    basis set group =>   1
Atom  51C    basis set group =>   1
Atom  52H    basis set group =>   2
Atom  53H    basis set group =>   2
Atom  54C    basis set group =>   1
Atom  55C    basis set group =>   1
Atom  56C    basis set group =>   1
Atom  57H    basis set group =>   2
Atom  58H    basis set group =>   2
Atom  59C    basis set group =>   1
Atom  60C    basis set group =>   1
Atom  61H    basis set group =>   2
Atom  62H    basis set group =>   2
Atom  63H    basis set group =>   2
Atom  64H    basis set group =>   2
Atom  65H    basis set group =>   2
Atom  66H    basis set group =>   2
Atom  67H    basis set group =>   2
Atom  68H    basis set group =>   2
Atom  69H    basis set group =>   2
Atom  70H    basis set group =>   2
Atom  71H    basis set group =>   2
Atom  72H    basis set group =>   2

-------------------------
BASIS SET IN INPUT FORMAT
-------------------------

 # Basis set for element : H 
 NewGTO H 
 S 3 
   1      12.2518000000      0.0372173893
   2       1.8687100000      0.2538082070
   3       0.4182080000      0.7973867639
 S 1 
   1       0.1061000000      1.0000000000
 P 2 
   1       9.0000000000      0.0402678705
   2       1.0000000000      0.9880231245
  end;

 # Basis set for element : C 
 NewGTO C 
 S 5 
   1    1243.2000000000      0.0056300977
   2     187.1450000000      0.0419506039
   3      42.5126000000      0.1846643605
   4      11.7393000000      0.4665574214
   5       3.5054800000      0.4482347783
 S 2 
   1       5.3908900000     -0.1481148174
   2       0.4933410000      1.0519817143
 S 1 
   1       0.1497410000      1.0000000000
 P 3 
   1      59.6736000000      0.0113906672
   2       9.1805600000      0.1672414929
   3       1.9365800000      0.9041087436
 P 1 
   1       0.5262960000      1.0000000000
 P 1 
   1       0.1363190000      1.0000000000
 D 1 
   1       0.8000000000      1.0000000000
  end;

 # Basis set for element : O 
 NewGTO O 
 S 5 
   1    2288.6400000000      0.0054511382
   2     344.4160000000      0.0407189228
   3      78.2538000000      0.1813694209
   4      21.7195000000      0.4655368202
   5       6.5590700000      0.4512113212
 S 2 
   1      10.4656000000     -0.1502112012
   2       0.9643510000      1.0528679834
 S 1 
   1       0.2851270000      1.0000000000
 P 3 
   1     110.8840000000      0.0113058003
   2      17.0590000000      0.1699226452
   3       3.6899900000      0.9008060328
 P 1 
   1       0.9929960000      1.0000000000
 P 1 
   1       0.2449240000      1.0000000000
 D 1 
   1       1.0000000000      1.0000000000
  end;

---------------------------------
AUXILIARY/J BASIS SET INFORMATION
---------------------------------
There are 3 groups of distinct atoms

 Group   1 Type C   : 12s5p4d2f1g contracted to 6s4p3d1f1g pattern {711111/2111/211/2/1}
 Group   2 Type H   : 5s2p1d contracted to 3s1p1d pattern {311/2/1}
 Group   3 Type O   : 12s5p4d2f1g contracted to 6s4p3d1f1g pattern {711111/2111/211/2/1}

Atom   0C    basis set group =>   1
Atom   1C    basis set group =>   1
Atom   2C    basis set group =>   1
Atom   3H    basis set group =>   2
Atom   4H    basis set group =>   2
Atom   5C    basis set group =>   1
Atom   6C    basis set group =>   1
Atom   7C    basis set group =>   1
Atom   8H    basis set group =>   2
Atom   9H    basis set group =>   2
Atom  10H    basis set group =>   2
Atom  11H    basis set group =>   2
Atom  12O    basis set group =>   3
Atom  13H    basis set group =>   2
Atom  14C    basis set group =>   1
Atom  15C    basis set group =>   1
Atom  16H    basis set group =>   2
Atom  17H    basis set group =>   2
Atom  18C    basis set group =>   1
Atom  19H    basis set group =>   2
Atom  20C    basis set group =>   1
Atom  21H    basis set group =>   2
Atom  22C    basis set group =>   1
Atom  23C    basis set group =>   1
Atom  24H    basis set group =>   2
Atom  25H    basis set group =>   2
Atom  26C    basis set group =>   1
Atom  27H    basis set group =>   2
Atom  28H    basis set group =>   2
Atom  29C    basis set group =>   1
Atom  30H    basis set group =>   2
Atom  31H    basis set group =>   2
Atom  32C    basis set group =>   1
Atom  33H    basis set group =>   2
Atom  34C    basis set group =>   1
Atom  35H    basis set group =>   2
Atom  36C    basis set group =>   1
Atom  37H    basis set group =>   2
Atom  38H    basis set group =>   2
Atom  39C    basis set group =>   1
Atom  40H    basis set group =>   2
Atom  41H    basis set group =>   2
Atom  42H    basis set group =>   2
Atom  43C    basis set group =>   1
Atom  44C    basis set group =>   1
Atom  45H    basis set group =>   2
Atom  46H    basis set group =>   2
Atom  47H    basis set group =>   2
Atom  48H    basis set group =>   2
Atom  49C    basis set group =>   1
Atom  50C    basis set group =>   1
Atom  51C    basis set group =>   1
Atom  52H    basis set group =>   2
Atom  53H    basis set group =>   2
Atom  54C    basis set group =>   1
Atom  55C    basis set group =>   1
Atom  56C    basis set group =>   1
Atom  57H    basis set group =>   2
Atom  58H    basis set group =>   2
Atom  59C    basis set group =>   1
Atom  60C    basis set group =>   1
Atom  61H    basis set group =>   2
Atom  62H    basis set group =>   2
Atom  63H    basis set group =>   2
Atom  64H    basis set group =>   2
Atom  65H    basis set group =>   2
Atom  66H    basis set group =>   2
Atom  67H    basis set group =>   2
Atom  68H    basis set group =>   2
Atom  69H    basis set group =>   2
Atom  70H    basis set group =>   2
Atom  71H    basis set group =>   2
Atom  72H    basis set group =>   2

-------------------------------------
AUXILIARY/J BASIS SET IN INPUT FORMAT
-------------------------------------

 # Auxiliary/J basis set for element : H 
 NewAuxJGTO H 
 S 3 
   1      15.6752927000      0.1007184237
   2       3.6063578000      0.3404257499
   3       1.2080016000      0.6491996172
 S 1 
   1       0.4726794000      1.0000000000
 S 1 
   1       0.2018100000      1.0000000000
 P 2 
   1       2.0281365000      0.5596620919
   2       0.5358730000      0.5596620919
 D 1 
   1       2.2165124000      1.0000000000
  end;

 # Auxiliary/J basis set for element : C 
 NewAuxJGTO C 
 S 7 
   1    1861.0916331000      0.0134602335
   2     642.9939764000      0.0299160374
   3     235.1105725000      0.1008649584
   4      90.7028894000      0.2370970548
   5      36.7794552000      0.3924037254
   6      15.6046273000      0.3195862154
   7       6.8907294000      0.0530104441
 S 1 
   1       3.1478850000     -1.0000000000
 S 1 
   1       1.4777287000      1.0000000000
 S 1 
   1       0.7076466000      1.0000000000
 S 1 
   1       0.3430122000      1.0000000000
 S 1 
   1       0.1669453000      1.0000000000
 P 2 
   1      13.5472892000     -0.6769313712
   2       5.4669419000     -0.3779500978
 P 1 
   1       2.1751721000      1.0000000000
 P 1 
   1       0.8582194000      1.0000000000
 P 1 
   1       0.3376720000      1.0000000000
 D 2 
   1       5.9287253000     -0.3533329857
   2       1.9809209000     -0.7456525731
 D 1 
   1       0.8055417000     -1.0000000000
 D 1 
   1       0.3531244000     -1.0000000000
 F 2 
   1       1.6755626000      0.6311076882
   2       0.5997536000      0.4968166032
 G 1 
   1       1.0024600000     -1.0000000000
  end;

 # Auxiliary/J basis set for element : O 
 NewAuxJGTO O 
 S 7 
   1    2876.8216605000      0.0168151159
   2    1004.7443032000      0.0340137548
   3     369.7579954000      0.1194951309
   4     142.9442404000      0.2664627624
   5      57.8366425000      0.4202764046
   6      24.3864983000      0.2765077335
   7      10.6622662000      0.0057008815
 S 1 
   1       4.8070437000     -1.0000000000
 S 1 
   1       2.2210770000      1.0000000000
 S 1 
   1       1.0447795000      1.0000000000
 S 1 
   1       0.4968425000      1.0000000000
 S 1 
   1       0.2371384000      1.0000000000
 P 2 
   1      64.2613382000     -0.2731534179
   2      16.3006076000     -0.8168011598
 P 1 
   1       4.3550542000      1.0000000000
 P 1 
   1       1.2019554000      1.0000000000
 P 1 
   1       0.3354196000      1.0000000000
 D 2 
   1       9.2146611000     -0.4661230638
   2       2.8435251000     -0.6600908911
 D 1 
   1       0.9955759000     -1.0000000000
 D 1 
   1       0.3649441000     -1.0000000000
 F 2 
   1       2.6420115000      0.5931563945
   2       0.7345613000      0.5931563945
 G 1 
   1       1.3931000000     -1.0000000000
  end;



           ************************************************************
           *        Program running with 4 parallel MPI-processes     *
           *              working on a common directory               *
           ************************************************************
------------------------------------------------------------------------------
                           ORCA GTO INTEGRAL CALCULATION
                           -- RI-GTO INTEGRALS CHOSEN --
------------------------------------------------------------------------------
------------------------------------------------------------------------------
                   ___                                                        
                  /   \      - P O W E R E D   B Y -                         
                 /     \                                                     
                 |  |  |   _    _      __       _____    __    __             
                 |  |  |  | |  | |    /  \     |  _  \  |  |  /  |          
                  \  \/   | |  | |   /    \    | | | |  |  | /  /          
                 / \  \   | |__| |  /  /\  \   | |_| |  |  |/  /          
                |  |  |   |  __  | /  /__\  \  |    /   |      \           
                |  |  |   | |  | | |   __   |  |    \   |  |\   \          
                \     /   | |  | | |  |  |  |  | |\  \  |  | \   \       
                 \___/    |_|  |_| |__|  |__|  |_| \__\ |__|  \__/        
                                                                              
                      - O R C A' S   B I G   F R I E N D -                    
                                      &                                       
                       - I N T E G R A L  F E E D E R -                       
                                                                              
 v1 FN, 2020, v2 2021                                                         
------------------------------------------------------------------------------


Reading SHARK input file inpS.SHARKINP.tmp ... ok
----------------------
SHARK INTEGRAL PACKAGE
----------------------

Number of atoms                             ...     73
Number of basis functions                   ...    713
Number of shells                            ...    335
Maximum angular momentum                    ...      2
Integral batch strategy                     ... SHARK/LIBINT Hybrid
RI-J (if used) integral strategy            ... SPLIT-RIJ (Revised 2003 algorithm where possible)
Printlevel                                  ...      1
Contraction scheme used                     ... SEGMENTED contraction
Coulomb Range Separation                    ... NOT USED
Exchange Range Separation                   ... NOT USED
Finite Nucleus Model                        ... NOT USED
Auxiliary Coulomb fitting basis             ... AVAILABLE
   # of basis functions in Aux-J            ...   1905
   # of shells in Aux-J                     ...    655
   Maximum angular momentum in Aux-J        ...      4
Auxiliary J/K fitting basis                 ... NOT available
Auxiliary Correlation fitting basis         ... NOT available
Auxiliary 'external' fitting basis          ... NOT available
Integral threshold                          ...     3.000000e-11
Primitive cut-off                           ...     1.000000e-12
Primitive pair pre-selection threshold      ...     1.000000e-12

Calculating pre-screening integrals         ... done (  0.0 sec) Dimension = 335
Organizing shell pair data                  ... done (  0.2 sec)
Shell pair information
Total number of shell pairs                 ...     56280
Shell pairs after pre-screening             ...     31544
Total number of primitive shell pairs       ...    225367
Primitive shell pairs kept                  ...     74187
          la=0 lb=0:   9647 shell pairs
          la=1 lb=0:  12957 shell pairs
          la=1 lb=1:   4236 shell pairs
          la=2 lb=0:   2753 shell pairs
          la=2 lb=1:   1755 shell pairs
          la=2 lb=2:    196 shell pairs

Calculating one electron integrals          ... done (  0.1 sec)
Calculating RI/J V-Matrix + Cholesky decomp.... done (  0.2 sec)
Calculating Nuclear repulsion               ... done (  0.0 sec) ENN=   2779.747434554303 Eh

SHARK setup successfully completed in   0.6 seconds

Maximum memory used throughout the entire GTOINT-calculation: 61.1 MB


           ************************************************************
           *        Program running with 4 parallel MPI-processes     *
           *              working on a common directory               *
           ************************************************************
-------------------------------------------------------------------------------
                                 ORCA SCF
-------------------------------------------------------------------------------

------------
SCF SETTINGS
------------
Hamiltonian:
 Density Functional     Method          .... DFT(GTOs)
 Exchange Functional    Exchange        .... revTPSS
 Correlation Functional Correlation     .... revTPSS
 LDA part of GGA corr.  LDAOpt          .... PW91-LDA
 Gradients option       PostSCFGGA      .... off
   Density functional embedding theory  .... OFF
 RI-approximation to the Coulomb term is turned on
   Number of AuxJ basis functions       .... 1905


General Settings:
 Integral files         IntName         .... inpS
 Hartree-Fock type      HFTyp           .... RHF
 Total Charge           Charge          ....    0
 Multiplicity           Mult            ....    1
 Number of Electrons    NEL             ....  220
 Basis Dimension        Dim             ....  713
 Nuclear Repulsion      ENuc            ....   2779.7474345543 Eh

Convergence Acceleration:
 DIIS                   CNVDIIS         .... on
   Start iteration      DIISMaxIt       ....    12
   Startup error        DIISStart       ....  0.200000
   # of expansion vecs  DIISMaxEq       ....     5
   Bias factor          DIISBfac        ....   1.050
   Max. coefficient     DIISMaxC        ....  10.000
 Trust-Rad. Augm. Hess. CNVTRAH         .... auto
   Auto Start mean grad. ratio tolernc. ....  1.125000
   Auto Start start iteration           ....    20
   Auto Start num. interpolation iter.  ....    10
   Max. Number of Micro iterations      ....    16
   Max. Number of Macro iterations      .... Maxiter - #DIIS iter
   Number of Davidson start vectors     ....     2
   Converg. threshold I  (grad. norm)   ....   1.000e-04
   Converg. threshold II (energy diff.) ....   1.000e-07
   Grad. Scal. Fac. for Micro threshold ....   0.100
   Minimum threshold for Micro iter.    ....   0.010
   NR start threshold (gradient norm)   ....   0.001
   Initial trust radius                 ....   0.400
   Minimum AH scaling param. (alpha)    ....   1.000
   Maximum AH scaling param. (alpha)    .... 1000.000
   Orbital update algorithm             .... Taylor
   White noise on init. David. guess    .... on
   Maximum white noise                  ....   0.010
   Quad. conv. algorithm                .... NR
 SOSCF                  CNVSOSCF        .... off
 Level Shifting         CNVShift        .... on
   Level shift para.    LevelShift      ....    0.2500
   Turn off err/grad.   ShiftErr        ....    0.0010
 Zerner damping         CNVZerner       .... off
 Static damping         CNVDamp         .... on
   Fraction old density DampFac         ....    0.7000
   Max. Damping (<1)    DampMax         ....    0.9800
   Min. Damping (>=0)   DampMin         ....    0.0000
   Turn off err/grad.   DampErr         ....    0.1000
 Fernandez-Rico         CNVRico         .... off

SCF Procedure:
 Maximum # iterations   MaxIter         ....   125
 SCF integral mode      SCFMode         .... Direct
   Integral package                     .... SHARK and LIBINT hybrid scheme
 Reset frequency        DirectResetFreq ....    20
 Integral Threshold     Thresh          ....  3.000e-11 Eh
 Primitive CutOff       TCut            ....  1.000e-12 Eh

Convergence Tolerance:
 Convergence Check Mode ConvCheckMode   .... Total+1el-Energy
 Convergence forced     ConvForced      .... 0
 Energy Change          TolE            ....  1.000e-07 Eh
 1-El. energy change                    ....  1.000e-04 Eh
 DIIS Error             TolErr          ....  1.000e-07


Diagonalization of the overlap matrix:
Smallest eigenvalue                        ... 5.140e-04
Time for diagonalization                   ...    0.062 sec
Threshold for overlap eigenvalues          ... 1.000e-08
Number of eigenvalues below threshold      ... 0
Time for construction of square roots      ...    0.068 sec
Total time needed                          ...    0.132 sec

Time for model grid setup =    0.826 sec

------------------------------
INITIAL GUESS: MODEL POTENTIAL
------------------------------
Loading Hartree-Fock densities                     ... done
Calculating cut-offs                               ... done
Initializing the effective Hamiltonian             ... done
Setting up the integral package (SHARK)            ... done
Starting the Coulomb interaction                   ... done (   0.6 sec)
Reading the grid                                   ... done
Mapping shells                                     ... done
Starting the XC term evaluation                    ... done (   0.3 sec)
  promolecular density results
     # of electrons  =    219.980817782
     EX              =   -164.427426808
     EC              =     -7.323212783
     EX+EC           =   -171.750639591
Transforming the Hamiltonian                       ... done (   0.0 sec)
Diagonalizing the Hamiltonian                      ... done (   0.1 sec)
Back transforming the eigenvectors                 ... done (   0.0 sec)
Now organizing SCF variables                       ... done
                      ------------------
                      INITIAL GUESS DONE (   1.9 sec)
                      ------------------
-------------------
DFT GRID GENERATION
-------------------

General Integration Accuracy     IntAcc      ... 4.388
Radial Grid Type                 RadialGrid  ... OptM3 with GC (2021)
Angular Grid (max. ang.)         AngularGrid ... 4 (Lebedev-302)
Angular grid pruning method      GridPruning ... 4 (adaptive)
Weight generation scheme         WeightScheme... Becke
Basis function cutoff            BFCut       ... 1.0000e-11
Integration weight cutoff        WCut        ... 1.0000e-14
Angular grids for H and He will be reduced by one unit
Partially contracted basis set               ... off
Rotationally invariant grid construction     ... off

Total number of grid points                  ...   309995
Total number of batches                      ...     4880
Average number of points per batch           ...       63
Average number of grid points per atom       ...     4247
Time for grid setup =    2.910 sec


--------------------
CPCM SOLVATION MODEL
--------------------
CPCM parameters:
  Epsilon                                         ...       4.9000
  Refrac                                          ...       1.4500
  Rsolv                                           ...       1.3000
  Surface type                                    ... GAUSSIAN VDW
  Epsilon function type                           ...         CPCM
Radii:
 Radius for C  used is    3.8550 Bohr (=   2.0400 Ang.)
 Radius for H  used is    2.4944 Bohr (=   1.3200 Ang.)
 Radius for O  used is    3.4469 Bohr (=   1.8240 Ang.)
Calculating surface                               ...        done! (  0.0s)
GEPOL surface points                              ...         3676
GEPOL Volume                                      ...    3589.4370
GEPOL Surface-area                                ...    1795.2933
Calculating surface distance matrix               ...        done! (  0.1s)
Performing Cholesky decomposition & store         ...        done! (  0.5s)
Overall time for CPCM initialization              ...                 0.6s
--------------
SCF ITERATIONS
--------------
ITER       Energy         Delta-E        Max-DP      RMS-DP      [F,P]     Damp
               ***  Starting incremental Fock matrix formation  ***

  HOMO= 109 E= -1.914 eV LUMO=  7.770 eV gap=   9.684 eV
  0  -1167.5247262970   0.000000000000 0.05525873  0.00082863  0.2626708 0.7000

  HOMO= 109 E= -3.436 eV LUMO=  6.669 eV gap=  10.105 eV
  1  -1167.8989429422  -0.374216645201 0.02896978  0.00061259  0.1013229 0.7000
                               ***Turning on DIIS***

  HOMO= 109 E= -4.411 eV LUMO=  5.785 eV gap=  10.197 eV
  2  -1168.0456296565  -0.146686714247 0.04851985  0.00101047  0.0316828 0.0000

  HOMO= 109 E= -5.032 eV LUMO=  5.203 eV gap=  10.235 eV
  3  -1168.2435093364  -0.197879679912 0.02333850  0.00047372  0.0551810 0.0000

  HOMO= 109 E= -5.055 eV LUMO=  5.179 eV gap=  10.234 eV
  4  -1168.3106179567  -0.067108620316 0.00755050  0.00015208  0.0103394 0.0000

  HOMO= 109 E= -5.011 eV LUMO=  5.230 eV gap=  10.242 eV
  5  -1168.3137076941  -0.003089737423 0.00345634  0.00005715  0.0103794 0.0000

  HOMO= 109 E= -4.992 eV LUMO=  5.247 eV gap=  10.239 eV
  6  -1168.3139838500  -0.000276155845 0.00125391  0.00001922  0.0029878 0.0000

  HOMO= 109 E= -4.993 eV LUMO= -1.557 eV gap=   3.436 eV
  7  -1168.3140039775  -0.000020127535 0.00070219  0.00001166  0.0004921 0.0000

  HOMO= 109 E= -4.991 eV LUMO= -1.556 eV gap=   3.436 eV
  8  -1168.3140069354  -0.000002957879 0.00025758  0.00000290  0.0003777 0.0000

  HOMO= 109 E= -4.990 eV LUMO= -1.554 eV gap=   3.436 eV
  9  -1168.3140076118  -0.000000676406 0.00015041  0.00000151  0.0002427 0.0000

  HOMO= 109 E= -4.990 eV LUMO= -1.554 eV gap=   3.436 eV
 10  -1168.3140078476  -0.000000235871 0.00006969  0.00000071  0.0000924 0.0000

  HOMO= 109 E= -4.990 eV LUMO= -1.554 eV gap=   3.436 eV
 11  -1168.3140078725  -0.000000024859 0.00003100  0.00000029  0.0000310 0.0000

  HOMO= 109 E= -4.990 eV LUMO= -1.554 eV gap=   3.436 eV
 12  -1168.3140078658   0.000000006715 0.00001509  0.00000013  0.0000173 0.0000

  HOMO= 109 E= -4.990 eV LUMO= -1.554 eV gap=   3.436 eV
 13  -1168.3140078937  -0.000000027912 0.00000674  0.00000006  0.0000072 0.0000
                 **** Energy Check signals convergence ****

               *****************************************************
               *                     SUCCESS                       *
               *           SCF CONVERGED AFTER  14 CYCLES          *
               *****************************************************


----------------
TOTAL SCF ENERGY
----------------

Total Energy       :        -1168.31400792 Eh          -31791.44040 eV

Components:
Nuclear Repulsion  :         2779.74743455 Eh           75640.77320 eV
Electronic Energy  :        -3948.06144248 Eh         -107432.21360 eV
One Electron Energy:        -7105.66951497 Eh         -193355.09749 eV
Two Electron Energy:         3157.60807250 Eh           85922.88389 eV
CPCM Dielectric    :           -0.00889557 Eh              -0.24206 eV

Virial components:
Potential Energy   :        -2330.42096384 Eh          -63413.97833 eV
Kinetic Energy     :         1162.10695592 Eh           31622.53793 eV
Virial Ratio       :            2.00534121


DFT components:
N(Alpha)           :      110.000157674704 electrons
N(Beta)            :      110.000157674704 electrons
N(Total)           :      220.000315349408 electrons
E(X)               :     -169.583673037974 Eh       
E(C)               :       -7.442322415506 Eh       
E(XC)              :     -177.025995453479 Eh       
DFET-embed. en.    :        0.000000000000 Eh       
CPCM Solvation Model Properties:
Surface-charge          :           -0.04546001
Charge-correction       :           -0.00006720 Eh              -0.00183 eV
Free-energy (cav+disp)  :  This term is not implemented in the current solvation scheme

---------------
SCF CONVERGENCE
---------------

  Last Energy change         ...   -2.7022e-08  Tolerance :   1.0000e-07
  Last MAX-Density change    ...    2.7801e-06  Tolerance :   1.0000e-05
  Last RMS-Density change    ...    2.8980e-08  Tolerance :   1.0000e-06
  Last DIIS Error            ...    3.5956e-06  Tolerance :   1.0000e-07

             **** THE GBW FILE WAS UPDATED (inpS.gbw) ****
             **** DENSITY inpS.scfp WAS UPDATED ****
             **** ENERGY FILE WAS UPDATED (inpS.en.tmp) ****
             **** THE GBW FILE WAS UPDATED (inpS.gbw) ****
             **** DENSITY inpS.scfp WAS UPDATED ****
----------------
ORBITAL ENERGIES
----------------

  NO   OCC          E(Eh)            E(eV) 
   0   2.0000     -18.903684      -514.3954 
   1   2.0000     -10.057204      -273.6704 
   2   2.0000     -10.016451      -272.5615 
   3   2.0000     -10.014724      -272.5145 
   4   2.0000     -10.012198      -272.4458 
   5   2.0000     -10.012114      -272.4435 
   6   2.0000     -10.012016      -272.4408 
   7   2.0000     -10.010290      -272.3938 
   8   2.0000     -10.009885      -272.3828 
   9   2.0000     -10.009724      -272.3784 
  10   2.0000     -10.008640      -272.3489 
  11   2.0000     -10.007639      -272.3217 
  12   2.0000     -10.007138      -272.3081 
  13   2.0000     -10.006457      -272.2895 
  14   2.0000     -10.006255      -272.2840 
  15   2.0000     -10.005772      -272.2709 
  16   2.0000     -10.005114      -272.2530 
  17   2.0000     -10.000988      -272.1407 
  18   2.0000     -10.000864      -272.1374 
  19   2.0000      -9.999685      -272.1053 
  20   2.0000      -9.999555      -272.1017 
  21   2.0000      -9.998791      -272.0809 
  22   2.0000      -9.998097      -272.0620 
  23   2.0000      -9.997849      -272.0553 
  24   2.0000      -9.997597      -272.0484 
  25   2.0000      -9.996592      -272.0211 
  26   2.0000      -9.995474      -271.9907 
  27   2.0000      -9.995136      -271.9815 
  28   2.0000      -9.993740      -271.9435 
  29   2.0000      -0.954340       -25.9689 
  30   2.0000      -0.807917       -21.9845 
  31   2.0000      -0.789509       -21.4836 
  32   2.0000      -0.770205       -20.9584 
  33   2.0000      -0.757029       -20.5998 
  34   2.0000      -0.734591       -19.9892 
  35   2.0000      -0.727938       -19.8082 
  36   2.0000      -0.708888       -19.2898 
  37   2.0000      -0.708830       -19.2883 
  38   2.0000      -0.693534       -18.8720 
  39   2.0000      -0.676152       -18.3990 
  40   2.0000      -0.660189       -17.9646 
  41   2.0000      -0.655290       -17.8313 
  42   2.0000      -0.636202       -17.3119 
  43   2.0000      -0.628523       -17.1030 
  44   2.0000      -0.625341       -17.0164 
  45   2.0000      -0.619358       -16.8536 
  46   2.0000      -0.591347       -16.0914 
  47   2.0000      -0.582397       -15.8478 
  48   2.0000      -0.557381       -15.1671 
  49   2.0000      -0.547731       -14.9045 
  50   2.0000      -0.541384       -14.7318 
  51   2.0000      -0.535806       -14.5800 
  52   2.0000      -0.526659       -14.3311 
  53   2.0000      -0.512819       -13.9545 
  54   2.0000      -0.496208       -13.5025 
  55   2.0000      -0.481186       -13.0937 
  56   2.0000      -0.472736       -12.8638 
  57   2.0000      -0.463464       -12.6115 
  58   2.0000      -0.451242       -12.2789 
  59   2.0000      -0.444958       -12.1079 
  60   2.0000      -0.434061       -11.8114 
  61   2.0000      -0.429659       -11.6916 
  62   2.0000      -0.416947       -11.3457 
  63   2.0000      -0.415381       -11.3031 
  64   2.0000      -0.409950       -11.1553 
  65   2.0000      -0.405488       -11.0339 
  66   2.0000      -0.403440       -10.9782 
  67   2.0000      -0.401553       -10.9268 
  68   2.0000      -0.397741       -10.8231 
  69   2.0000      -0.394073       -10.7233 
  70   2.0000      -0.388778       -10.5792 
  71   2.0000      -0.381876       -10.3914 
  72   2.0000      -0.376576       -10.2472 
  73   2.0000      -0.372198       -10.1280 
  74   2.0000      -0.371604       -10.1119 
  75   2.0000      -0.365792        -9.9537 
  76   2.0000      -0.362410        -9.8617 
  77   2.0000      -0.356734        -9.7072 
  78   2.0000      -0.356038        -9.6883 
  79   2.0000      -0.350004        -9.5241 
  80   2.0000      -0.346122        -9.4185 
  81   2.0000      -0.343910        -9.3583 
  82   2.0000      -0.342938        -9.3318 
  83   2.0000      -0.335927        -9.1410 
  84   2.0000      -0.334425        -9.1002 
  85   2.0000      -0.325856        -8.8670 
  86   2.0000      -0.323269        -8.7966 
  87   2.0000      -0.320914        -8.7325 
  88   2.0000      -0.314369        -8.5544 
  89   2.0000      -0.312096        -8.4926 
  90   2.0000      -0.309116        -8.4115 
  91   2.0000      -0.306142        -8.3305 
  92   2.0000      -0.302427        -8.2295 
  93   2.0000      -0.296260        -8.0617 
  94   2.0000      -0.290506        -7.9051 
  95   2.0000      -0.286687        -7.8012 
  96   2.0000      -0.285928        -7.7805 
  97   2.0000      -0.284206        -7.7336 
  98   2.0000      -0.282076        -7.6757 
  99   2.0000      -0.280460        -7.6317 
 100   2.0000      -0.275601        -7.4995 
 101   2.0000      -0.274532        -7.4704 
 102   2.0000      -0.271825        -7.3967 
 103   2.0000      -0.269023        -7.3205 
 104   2.0000      -0.260143        -7.0788 
 105   2.0000      -0.248605        -6.7649 
 106   2.0000      -0.230034        -6.2595 
 107   2.0000      -0.228676        -6.2226 
 108   2.0000      -0.213292        -5.8040 
 109   2.0000      -0.183382        -4.9901 
 110   0.0000      -0.057117        -1.5542 
 111   0.0000      -0.014239        -0.3875 
 112   0.0000      -0.007849        -0.2136 
 113   0.0000       0.030404         0.8273 
 114   0.0000       0.038749         1.0544 
 115   0.0000       0.040094         1.0910 
 116   0.0000       0.045057         1.2261 
 117   0.0000       0.048476         1.3191 
 118   0.0000       0.051859         1.4112 
 119   0.0000       0.056527         1.5382 
 120   0.0000       0.060617         1.6495 
 121   0.0000       0.062092         1.6896 
 122   0.0000       0.069805         1.8995 
 123   0.0000       0.072252         1.9661 
 124   0.0000       0.079158         2.1540 
 125   0.0000       0.081776         2.2252 
 126   0.0000       0.082458         2.2438 
 127   0.0000       0.085440         2.3250 
 128   0.0000       0.088041         2.3957 
 129   0.0000       0.093188         2.5358 
 130   0.0000       0.096134         2.6159 
 131   0.0000       0.100870         2.7448 
 132   0.0000       0.101538         2.7630 
 133   0.0000       0.104640         2.8474 
 134   0.0000       0.107409         2.9228 
 135   0.0000       0.111548         3.0354 
 136   0.0000       0.112097         3.0503 
 137   0.0000       0.118390         3.2215 
 138   0.0000       0.123346         3.3564 
 139   0.0000       0.125449         3.4136 
 140   0.0000       0.125853         3.4246 
 141   0.0000       0.128148         3.4871 
 142   0.0000       0.132144         3.5958 
 143   0.0000       0.134320         3.6550 
 144   0.0000       0.137293         3.7359 
 145   0.0000       0.140511         3.8235 
 146   0.0000       0.143779         3.9124 
 147   0.0000       0.145587         3.9616 
 148   0.0000       0.146159         3.9772 
 149   0.0000       0.151477         4.1219 
 150   0.0000       0.156769         4.2659 
 151   0.0000       0.159765         4.3474 
 152   0.0000       0.160527         4.3682 
 153   0.0000       0.164617         4.4794 
 154   0.0000       0.165607         4.5064 
 155   0.0000       0.171145         4.6571 
 156   0.0000       0.175757         4.7826 
 157   0.0000       0.177565         4.8318 
 158   0.0000       0.179923         4.8959 
 159   0.0000       0.183303         4.9879 
 160   0.0000       0.184738         5.0270 
 161   0.0000       0.191051         5.1988 
 162   0.0000       0.194599         5.2953 
 163   0.0000       0.196058         5.3350 
 164   0.0000       0.200734         5.4623 
 165   0.0000       0.204039         5.5522 
 166   0.0000       0.204575         5.5668 
 167   0.0000       0.208860         5.6834 
 168   0.0000       0.211459         5.7541 
 169   0.0000       0.216932         5.9030 
 170   0.0000       0.220414         5.9978 
 171   0.0000       0.225358         6.1323 
 172   0.0000       0.228858         6.2275 
 173   0.0000       0.230053         6.2601 
 174   0.0000       0.236422         6.4334 
 175   0.0000       0.245102         6.6696 
 176   0.0000       0.249219         6.7816 
 177   0.0000       0.252323         6.8661 
 178   0.0000       0.263643         7.1741 
 179   0.0000       0.266296         7.2463 
 180   0.0000       0.272472         7.4143 
 181   0.0000       0.278724         7.5845 
 182   0.0000       0.284382         7.7384 
 183   0.0000       0.293430         7.9846 
 184   0.0000       0.296030         8.0554 
 185   0.0000       0.314756         8.5650 
 186   0.0000       0.333607         9.0779 
 187   0.0000       0.335956         9.1418 
 188   0.0000       0.346714         9.4346 
 189   0.0000       0.349628         9.5139 
 190   0.0000       0.354000         9.6328 
 191   0.0000       0.362501         9.8642 
 192   0.0000       0.366755         9.9799 
 193   0.0000       0.368729        10.0336 
 194   0.0000       0.375036        10.2052 
 195   0.0000       0.378229        10.2921 
 196   0.0000       0.381521        10.3817 
 197   0.0000       0.388075        10.5601 
 198   0.0000       0.390012        10.6128 
 199   0.0000       0.395685        10.7671 
 200   0.0000       0.400454        10.8969 
 201   0.0000       0.403231        10.9725 
 202   0.0000       0.409680        11.1479 
 203   0.0000       0.414794        11.2871 
 204   0.0000       0.421498        11.4696 
 205   0.0000       0.427032        11.6201 
 206   0.0000       0.437983        11.9181 
 207   0.0000       0.441303        12.0085 
 208   0.0000       0.448832        12.2133 
 209   0.0000       0.452337        12.3087 
 210   0.0000       0.459272        12.4974 
 211   0.0000       0.463958        12.6249 
 212   0.0000       0.467009        12.7080 
 213   0.0000       0.471670        12.8348 
 214   0.0000       0.475231        12.9317 
 215   0.0000       0.481217        13.0946 
 216   0.0000       0.485025        13.1982 
 217   0.0000       0.495683        13.4882 
 218   0.0000       0.497172        13.5287 
 219   0.0000       0.499951        13.6044 
 220   0.0000       0.503246        13.6940 
 221   0.0000       0.508512        13.8373 
 222   0.0000       0.513013        13.9598 
 223   0.0000       0.515249        14.0207 
 224   0.0000       0.524215        14.2646 
 225   0.0000       0.526646        14.3308 
 226   0.0000       0.529403        14.4058 
 227   0.0000       0.539412        14.6781 
 228   0.0000       0.541484        14.7345 
 229   0.0000       0.542714        14.7680 
 230   0.0000       0.548684        14.9304 
 231   0.0000       0.552122        15.0240 
 232   0.0000       0.554562        15.0904 
 233   0.0000       0.564308        15.3556 
 234   0.0000       0.565462        15.3870 
 235   0.0000       0.566942        15.4273 
 236   0.0000       0.570661        15.5285 
 237   0.0000       0.572795        15.5865 
 238   0.0000       0.575285        15.6543 
 239   0.0000       0.581771        15.8308 
 240   0.0000       0.583522        15.8784 
 241   0.0000       0.585545        15.9335 
 242   0.0000       0.588575        16.0160 
 243   0.0000       0.590667        16.0729 
 244   0.0000       0.594654        16.1814 
 245   0.0000       0.594911        16.1883 
 246   0.0000       0.597712        16.2646 
 247   0.0000       0.599284        16.3073 
 248   0.0000       0.601780        16.3753 
 249   0.0000       0.605134        16.4665 
 250   0.0000       0.607159        16.5216 
 251   0.0000       0.608884        16.5686 
 252   0.0000       0.610520        16.6131 
 253   0.0000       0.612663        16.6714 
 254   0.0000       0.616251        16.7690 
 255   0.0000       0.618891        16.8409 
 256   0.0000       0.621161        16.9027 
 257   0.0000       0.625305        17.0154 
 258   0.0000       0.627925        17.0867 
 259   0.0000       0.631663        17.1884 
 260   0.0000       0.632453        17.2099 
 261   0.0000       0.636246        17.3131 
 262   0.0000       0.641099        17.4452 
 263   0.0000       0.642027        17.4704 
 264   0.0000       0.646838        17.6013 
 265   0.0000       0.649340        17.6694 
 266   0.0000       0.650536        17.7020 
 267   0.0000       0.653267        17.7763 
 268   0.0000       0.655926        17.8486 
 269   0.0000       0.658675        17.9235 
 270   0.0000       0.660886        17.9836 
 271   0.0000       0.665271        18.1029 
 272   0.0000       0.666265        18.1300 
 273   0.0000       0.669844        18.2274 
 274   0.0000       0.673765        18.3341 
 275   0.0000       0.679919        18.5015 
 276   0.0000       0.683016        18.5858 
 277   0.0000       0.684675        18.6310 
 278   0.0000       0.685194        18.6451 
 279   0.0000       0.692625        18.8473 
 280   0.0000       0.697309        18.9747 
 281   0.0000       0.699659        19.0387 
 282   0.0000       0.701103        19.0780 
 283   0.0000       0.709465        19.3055 
 284   0.0000       0.712621        19.3914 
 285   0.0000       0.716424        19.4949 
 286   0.0000       0.718113        19.5409 
 287   0.0000       0.724660        19.7190 
 288   0.0000       0.728824        19.8323 
 289   0.0000       0.732800        19.9405 
 290   0.0000       0.736761        20.0483 
 291   0.0000       0.741753        20.1841 
 292   0.0000       0.744592        20.2614 
 293   0.0000       0.749656        20.3992 
 294   0.0000       0.754491        20.5307 
 295   0.0000       0.762239        20.7416 
 296   0.0000       0.769417        20.9369 
 297   0.0000       0.774010        21.0619 
 298   0.0000       0.781747        21.2724 
 299   0.0000       0.789801        21.4916 
 300   0.0000       0.799057        21.7434 
 301   0.0000       0.804242        21.8845 
 302   0.0000       0.806702        21.9515 
 303   0.0000       0.814766        22.1709 
 304   0.0000       0.830380        22.5958 
 305   0.0000       0.850033        23.1306 
 306   0.0000       0.858609        23.3639 
 307   0.0000       0.871458        23.7136 
 308   0.0000       0.885233        24.0884 
 309   0.0000       0.894426        24.3386 
 310   0.0000       0.927440        25.2369 
 311   0.0000       0.935196        25.4480 
 312   0.0000       0.945268        25.7220 
 313   0.0000       0.953313        25.9410 
 314   0.0000       0.972862        26.4729 
 315   0.0000       0.986647        26.8480 
 316   0.0000       1.002300        27.2740 
 317   0.0000       1.022879        27.8339 
 318   0.0000       1.026357        27.9286 
 319   0.0000       1.038184        28.2504 
 320   0.0000       1.051715        28.6186 
 321   0.0000       1.059943        28.8425 
 322   0.0000       1.083484        29.4831 
 323   0.0000       1.091419        29.6990 
 324   0.0000       1.097329        29.8598 
 325   0.0000       1.111738        30.2519 
 326   0.0000       1.120613        30.4934 
 327   0.0000       1.146701        31.2033 
 328   0.0000       1.158784        31.5321 
 329   0.0000       1.175726        31.9931 
 330   0.0000       1.181397        32.1475 
 331   0.0000       1.191624        32.4257 
 332   0.0000       1.226236        33.3676 
 333   0.0000       1.248512        33.9737 
 334   0.0000       1.256255        34.1844 
 335   0.0000       1.265967        34.4487 
 336   0.0000       1.275046        34.6958 
 337   0.0000       1.280775        34.8517 
 338   0.0000       1.294541        35.2262 
 339   0.0000       1.307116        35.5684 
 340   0.0000       1.309653        35.6375 
 341   0.0000       1.330145        36.1951 
 342   0.0000       1.336728        36.3742 
 343   0.0000       1.350884        36.7594 
 344   0.0000       1.369853        37.2756 
 345   0.0000       1.377215        37.4759 
 346   0.0000       1.391632        37.8682 
 347   0.0000       1.396984        38.0139 
 348   0.0000       1.412971        38.4489 
 349   0.0000       1.417559        38.5737 
 350   0.0000       1.423387        38.7323 
 351   0.0000       1.431223        38.9455 
 352   0.0000       1.443532        39.2805 
 353   0.0000       1.448421        39.4135 
 354   0.0000       1.454963        39.5915 
 355   0.0000       1.465411        39.8759 
 356   0.0000       1.478885        40.2425 
 357   0.0000       1.486830        40.4587 
 358   0.0000       1.487651        40.4810 
 359   0.0000       1.507577        41.0232 
 360   0.0000       1.510073        41.0912 
 361   0.0000       1.521984        41.4153 
 362   0.0000       1.527130        41.5553 
 363   0.0000       1.547895        42.1204 
 364   0.0000       1.556405        42.3519 
 365   0.0000       1.563905        42.5560 
 366   0.0000       1.567577        42.6559 
 367   0.0000       1.582985        43.0752 
 368   0.0000       1.588540        43.2264 
 369   0.0000       1.599176        43.5158 
 370   0.0000       1.604153        43.6512 
 371   0.0000       1.613279        43.8996 
 372   0.0000       1.625852        44.2417 
 373   0.0000       1.631201        44.3872 
 374   0.0000       1.644660        44.7535 
 375   0.0000       1.651192        44.9312 
 376   0.0000       1.661674        45.2164 
 377   0.0000       1.667184        45.3664 
 378   0.0000       1.677608        45.6500 
 379   0.0000       1.681847        45.7654 
 380   0.0000       1.685718        45.8707 
 381   0.0000       1.690379        45.9975 
 382   0.0000       1.695892        46.1476 
 383   0.0000       1.705480        46.4085 
 384   0.0000       1.713545        46.6279 
 385   0.0000       1.715461        46.6801 
 386   0.0000       1.724627        46.9295 
 387   0.0000       1.731381        47.1133 
 388   0.0000       1.738160        47.2977 
 389   0.0000       1.742568        47.4177 
 390   0.0000       1.746026        47.5118 
 391   0.0000       1.751002        47.6472 
 392   0.0000       1.752655        47.6922 
 393   0.0000       1.759661        47.8828 
 394   0.0000       1.763497        47.9872 
 395   0.0000       1.770130        48.1677 
 396   0.0000       1.774037        48.2740 
 397   0.0000       1.786265        48.6067 
 398   0.0000       1.787995        48.6538 
 399   0.0000       1.793138        48.7938 
 400   0.0000       1.796419        48.8830 
 401   0.0000       1.809643        49.2429 
 402   0.0000       1.813859        49.3576 
 403   0.0000       1.821097        49.5546 
 404   0.0000       1.825724        49.6805 
 405   0.0000       1.830323        49.8056 
 406   0.0000       1.840003        50.0690 
 407   0.0000       1.843701        50.1697 
 408   0.0000       1.847435        50.2713 
 409   0.0000       1.852092        50.3980 
 410   0.0000       1.862272        50.6750 
 411   0.0000       1.869920        50.8831 
 412   0.0000       1.872832        50.9623 
 413   0.0000       1.880844        51.1804 
 414   0.0000       1.888956        51.4011 
 415   0.0000       1.891760        51.4774 
 416   0.0000       1.893680        51.5296 
 417   0.0000       1.906259        51.8719 
 418   0.0000       1.917369        52.1743 
 419   0.0000       1.922104        52.3031 
 420   0.0000       1.929888        52.5149 
 421   0.0000       1.931105        52.5480 
 422   0.0000       1.939684        52.7815 
 423   0.0000       1.951174        53.0941 
 424   0.0000       1.953587        53.1598 
 425   0.0000       1.962470        53.4015 
 426   0.0000       1.965599        53.4867 
 427   0.0000       1.969542        53.5940 
 428   0.0000       1.970925        53.6316 
 429   0.0000       1.973608        53.7046 
 430   0.0000       1.980609        53.8951 
 431   0.0000       1.987418        54.0804 
 432   0.0000       1.989981        54.1501 
 433   0.0000       1.992864        54.2286 
 434   0.0000       1.995967        54.3130 
 435   0.0000       2.000789        54.4442 
 436   0.0000       2.001911        54.4748 
 437   0.0000       2.007925        54.6384 
 438   0.0000       2.009350        54.6772 
 439   0.0000       2.018467        54.9253 
 440   0.0000       2.026892        55.1545 
 441   0.0000       2.031405        55.2773 
 442   0.0000       2.034202        55.3535 
 443   0.0000       2.044423        55.6316 
[...]

 --------------
 Nucleus  47H :
 --------------

Diamagnetic contribution to the shielding tensor (ppm) : 
            33.182         -3.168        -5.161
            -5.632         35.548         8.430
            -6.238          8.598        47.226

Paramagnetic contribution to the shielding tensor (ppm): 
            -1.684          1.827         2.807
             4.186         -8.176        -6.116
             3.075         -5.624       -12.123

Total shielding tensor (ppm): 
            31.498         -1.341        -2.354
            -1.447         27.372         2.314
            -3.163          2.974        35.103


 Diagonalized sT*s matrix:
 
 sDSO            31.378           31.610           52.967  iso=      38.652
 sPSO            -4.890           -1.604          -15.489  iso=      -7.328
        ---------------  ---------------  ---------------
 Total           26.488           30.006           37.478  iso=      31.324

 --------------
 Nucleus  48H :
 --------------

Diamagnetic contribution to the shielding tensor (ppm) : 
            37.535         -0.597        -1.950
            -8.554         39.590         0.199
            -2.509          0.164        43.929

Paramagnetic contribution to the shielding tensor (ppm): 
            -5.176          2.193         2.020
            10.319        -11.144        -1.597
             1.656         -2.140       -14.856

Total shielding tensor (ppm): 
            32.359          1.596         0.069
             1.765         28.446        -1.398
            -0.853         -1.976        29.073


 Diagonalized sT*s matrix:
 
 sDSO            43.090           42.070           35.894  iso=      40.351
 sPSO           -16.262          -12.243           -2.670  iso=     -10.392
        ---------------  ---------------  ---------------
 Total           26.827           29.827           33.223  iso=      29.959

 --------------
 Nucleus  52H :
 --------------

Diamagnetic contribution to the shielding tensor (ppm) : 
            39.373         -0.232         2.491
             0.813         39.767        -5.331
             5.853         -9.336        40.941

Paramagnetic contribution to the shielding tensor (ppm): 
            -8.605          3.326        -3.112
             1.641        -13.772         5.761
            -5.831         10.260       -18.228

Total shielding tensor (ppm): 
            30.768          3.095        -0.622
             2.454         25.995         0.430
             0.021          0.924        22.713


 Diagonalized sT*s matrix:
 
 sDSO            45.763           34.661           39.658  iso=      40.027
 sPSO           -23.293           -9.695           -7.617  iso=     -13.535
        ---------------  ---------------  ---------------
 Total           22.470           24.965           32.040  iso=      26.492

 --------------
 Nucleus  53H :
 --------------

Diamagnetic contribution to the shielding tensor (ppm) : 
            38.489         -0.403         3.827
            -3.225         38.096        -9.883
             2.417         -6.586        51.564

Paramagnetic contribution to the shielding tensor (ppm): 
            -7.855          4.185        -5.303
             6.447        -11.993         9.790
            -3.084          7.141       -28.754

Total shielding tensor (ppm): 
            30.634          3.783        -1.476
             3.222         26.103        -0.093
            -0.667          0.556        22.809


 Diagonalized sT*s matrix:
 
 sDSO            55.710           35.207           37.232  iso=      42.716
 sPSO           -33.260          -10.720           -4.622  iso=     -16.201
        ---------------  ---------------  ---------------
 Total           22.449           24.488           32.610  iso=      26.516

 --------------
 Nucleus  57H :
 --------------

Diamagnetic contribution to the shielding tensor (ppm) : 
            33.929          0.628         1.847
            11.043         33.081        -9.988
            11.949        -11.961        44.044

Paramagnetic contribution to the shielding tensor (ppm): 
            -5.015         -0.327        -2.399
           -10.615         -4.385         9.331
           -12.704         10.225       -11.694

Total shielding tensor (ppm): 
            28.913          0.301        -0.553
             0.428         28.696        -0.657
            -0.755         -1.736        32.351


 Diagonalized sT*s matrix:
 
 sDSO            24.781           39.202           47.071  iso=      37.018
 sPSO             3.506          -10.373          -14.228  iso=      -7.031
        ---------------  ---------------  ---------------
 Total           28.287           28.830           32.843  iso=      29.987

 --------------
 Nucleus  58H :
 --------------

Diamagnetic contribution to the shielding tensor (ppm) : 
            37.542          8.610         3.314
            13.799         16.662        -2.607
            12.514         -2.658        26.339

Paramagnetic contribution to the shielding tensor (ppm): 
            -4.552         -5.798        -0.251
           -11.536         12.799         4.937
            -9.790          4.831         2.473

Total shielding tensor (ppm): 
            32.990          2.812         3.064
             2.262         29.461         2.330
             2.725          2.173        28.812


 Diagonalized sT*s matrix:
 
 sDSO            26.018           11.246           43.279  iso=      26.847
 sPSO             0.754           17.134           -7.167  iso=       3.574
        ---------------  ---------------  ---------------
 Total           26.772           28.379           36.112  iso=      30.421

 --------------
 Nucleus  61H :
 --------------

Diamagnetic contribution to the shielding tensor (ppm) : 
            25.687         -1.854         3.270
            11.641         36.433       -12.774
            13.280         -7.141        41.445

Paramagnetic contribution to the shielding tensor (ppm): 
             2.696          0.017        -3.145
           -12.970         -3.851         9.468
           -13.181          4.970       -10.855

Total shielding tensor (ppm): 
            28.382         -1.837         0.125
            -1.329         32.582        -3.306
             0.099         -2.171        30.590


 Diagonalized sT*s matrix:
 
 sDSO            35.366           21.706           46.492  iso=      34.522
 sPSO            -7.834            7.522          -11.699  iso=      -4.003
        ---------------  ---------------  ---------------
 Total           27.532           29.229           34.793  iso=      30.518

 --------------
 Nucleus  62H :
 --------------

Diamagnetic contribution to the shielding tensor (ppm) : 
            28.115          8.075         5.503
            24.525         30.690        -4.104
            15.109          1.937        30.465

Paramagnetic contribution to the shielding tensor (ppm): 
             2.299         -5.195        -3.201
           -20.399          2.668         8.451
           -12.873          2.276        -1.769

Total shielding tensor (ppm): 
            30.414          2.881         2.302
             4.127         33.357         4.347
             2.237          4.212        28.696


 Diagonalized sT*s matrix:
 
 sDSO            31.269           12.417           45.584  iso=      29.756
 sPSO            -5.126           15.758           -7.435  iso=       1.066
        ---------------  ---------------  ---------------
 Total           26.143           28.175           38.149  iso=      30.822

 --------------
 Nucleus  63H :
 --------------

Diamagnetic contribution to the shielding tensor (ppm) : 
            31.428         -6.629        -6.061
            15.580         43.545         0.344
             5.326          7.588        34.273

Paramagnetic contribution to the shielding tensor (ppm): 
             1.348          5.218         1.803
           -17.397        -12.610         2.592
            -8.728         -4.750        -5.783

Total shielding tensor (ppm): 
            32.776         -1.411        -4.259
            -1.817         30.935         2.936
            -3.402          2.838        28.490


 Diagonalized sT*s matrix:
 
 sDSO            31.164           44.072           34.009  iso=      36.415
 sPSO            -5.548          -14.032            2.536  iso=      -5.682
        ---------------  ---------------  ---------------
 Total           25.615           30.040           36.545  iso=      30.733

 --------------
 Nucleus  64H :
 --------------

Diamagnetic contribution to the shielding tensor (ppm) : 
            27.235          2.318         0.482
             4.451         23.966       -15.452
            -3.702         -7.278        32.807

Paramagnetic contribution to the shielding tensor (ppm): 
             0.306         -3.307        -2.589
            -5.946         10.341        12.488
             2.329          2.790        -2.915

Total shielding tensor (ppm): 
            27.541         -0.989        -2.108
            -1.495         34.307        -2.964
            -1.373         -4.488        29.892


 Diagonalized sT*s matrix:
 
 sDSO            24.441           24.257           35.310  iso=      28.002
 sPSO             1.082            5.526            1.124  iso=       2.578
        ---------------  ---------------  ---------------
 Total           25.523           29.782           36.435  iso=      30.580

 --------------
 Nucleus  65H :
 --------------

Diamagnetic contribution to the shielding tensor (ppm) : 
            31.705          5.216         3.846
             3.855         17.385        -5.046
            -8.350         -0.995        42.756

Paramagnetic contribution to the shielding tensor (ppm): 
            -0.225         -2.434        -2.661
            -1.515         10.593         6.658
            10.141          2.739        -8.445

Total shielding tensor (ppm): 
            31.481          2.782         1.185
             2.340         27.978         1.613
             1.791          1.745        34.312


 Diagonalized sT*s matrix:
 
 sDSO            17.247           39.056           35.544  iso=      30.616
 sPSO             9.292           -7.667            0.299  iso=       0.641
        ---------------  ---------------  ---------------
 Total           26.539           31.389           35.843  iso=      31.257

 --------------
 Nucleus  66H :
 --------------

Diamagnetic contribution to the shielding tensor (ppm) : 
            35.837          3.567       -10.107
             5.861          7.734        -0.215
           -16.907          1.239        22.477

Paramagnetic contribution to the shielding tensor (ppm): 
            -1.096         -2.961         5.281
            -5.410         19.479        -1.310
            11.555         -2.576         8.762

Total shielding tensor (ppm): 
            34.741          0.606        -4.826
             0.451         27.213        -1.525
            -5.352         -1.337        31.239


 Diagonalized sT*s matrix:
 
 sDSO            12.554            9.083           44.411  iso=      22.016
 sPSO            13.892           19.150           -5.898  iso=       9.048
        ---------------  ---------------  ---------------
 Total           26.446           28.234           38.513  iso=      31.064

 --------------
 Nucleus  67H :
 --------------

Diamagnetic contribution to the shielding tensor (ppm) : 
            31.566         -2.496         0.196
           -12.853         21.612        -6.375
             8.964        -15.718        29.550

Paramagnetic contribution to the shielding tensor (ppm): 
            -2.066          0.408         1.824
            10.991          8.731         1.283
            -7.544         11.865         3.363

Total shielding tensor (ppm): 
            29.500         -2.088         2.020
            -1.862         30.343        -5.092
             1.421         -3.852        32.913


 Diagonalized sT*s matrix:
 
 sDSO            13.073           27.984           41.671  iso=      27.576
 sPSO            13.754            0.803           -4.529  iso=       3.343
        ---------------  ---------------  ---------------
 Total           26.827           28.787           37.143  iso=      30.919

 --------------
 Nucleus  68H :
 --------------

Diamagnetic contribution to the shielding tensor (ppm) : 
            40.914         -4.057        -6.686
           -14.163          9.179         5.423
            -2.566          2.743        16.091

Paramagnetic contribution to the shielding tensor (ppm): 
            -5.139          0.487         4.496
             9.791         20.279        -5.096
            -0.118         -2.948        11.170

Total shielding tensor (ppm): 
            35.774         -3.570        -2.190
            -4.372         29.458         0.327
            -2.684         -0.205        27.261


 Diagonalized sT*s matrix:
 
 sDSO            15.329            7.207           43.648  iso=      22.061
 sPSO            10.795           21.016           -5.501  iso=       8.770
        ---------------  ---------------  ---------------
 Total           26.124           28.223           38.146  iso=      30.831

 --------------
 Nucleus  69H :
 --------------

Diamagnetic contribution to the shielding tensor (ppm) : 
            36.803          1.696         0.429
           -15.191         30.254         2.406
             2.407         -4.032        22.439

Paramagnetic contribution to the shielding tensor (ppm): 
            -4.095         -0.319         0.219
            16.951          2.682         0.039
            -1.947          6.426         4.527

Total shielding tensor (ppm): 
            32.708          1.378         0.647
             1.760         32.937         2.446
             0.460          2.394        26.966


 Diagonalized sT*s matrix:
 
 sDSO            23.809           39.669           26.018  iso=      29.832
 sPSO             2.299           -8.168            8.983  iso=       1.038
        ---------------  ---------------  ---------------
 Total           26.109           31.501           35.001  iso=      30.870

 --------------
 Nucleus  70H :
 --------------

Diamagnetic contribution to the shielding tensor (ppm) : 
            31.297          0.906         4.216
            -9.780         38.990        11.633
            -1.859          8.774        36.624

Paramagnetic contribution to the shielding tensor (ppm): 
             1.002         -0.194        -3.972
            11.686         -8.343        -6.404
             2.462         -4.258        -8.980

Total shielding tensor (ppm): 
            32.300          0.712         0.244
             1.907         30.647         5.229
             0.603          4.516        27.644


 Diagonalized sT*s matrix:
 
 sDSO            28.029           36.879           42.002  iso=      35.637
 sPSO            -4.005           -5.215           -7.100  iso=      -5.440
        ---------------  ---------------  ---------------
 Total           24.024           31.665           34.902  iso=      30.197

 --------------
 Nucleus  71H :
 --------------

Diamagnetic contribution to the shielding tensor (ppm) : 
            28.672         -7.080         0.398
           -15.698         40.526        -0.292
            -1.902         -7.299        33.683

Paramagnetic contribution to the shielding tensor (ppm): 
             2.231          4.833         0.233
            13.906         -7.388        -3.392
             2.098          4.806        -4.981

Total shielding tensor (ppm): 
            30.903         -2.247         0.631
            -1.792         33.138        -3.684
             0.196         -2.493        28.702


 Diagonalized sT*s matrix:
 
 sDSO            29.982           25.653           47.246  iso=      34.294
 sPSO            -2.955            4.491          -11.674  iso=      -3.379
        ---------------  ---------------  ---------------
 Total           27.027           30.144           35.572  iso=      30.914

 --------------
 Nucleus  72H :
 --------------

Diamagnetic contribution to the shielding tensor (ppm) : 
            36.855         -7.216        -8.122
           -17.990         26.195         4.718
           -12.855          2.781        29.314

Paramagnetic contribution to the shielding tensor (ppm): 
            -1.857          6.305         3.574
            16.632          3.380        -2.278
             8.552         -0.491        -1.211

Total shielding tensor (ppm): 
            34.998         -0.911        -4.548
            -1.358         29.575         2.440
            -4.303          2.290        28.103


 Diagonalized sT*s matrix:
 
 sDSO            24.410           18.938           49.015  iso=      30.788
 sPSO             0.860           10.772          -11.319  iso=       0.104
        ---------------  ---------------  ---------------
 Total           25.270           29.710           37.696  iso=      30.892



--------------------------------
CHEMICAL SHIELDING SUMMARY (ppm)
--------------------------------


  Nucleus  Element    Isotropic     Anisotropy
  -------  -------  ------------   ------------
      3       H           29.371          6.474 
      4       H           29.052          7.402 
      8       H           29.572          7.935 
      9       H           29.338          5.425 
     10       H           30.109          8.323 
     11       H           29.861         10.225 
     13       H           27.734          7.779 
     16       H           26.795          4.785 
     17       H           26.511          4.874 
     19       H           25.409         10.393 
     21       H           25.604         14.668 
     24       H           28.911         10.088 
     25       H           30.045          9.611 
     27       H           30.245          6.981 
     28       H           30.115         11.813 
     30       H           29.763          8.174 
     31       H           30.421          7.051 
     33       H           29.766          4.437 
     35       H           30.168         14.773 
     37       H           30.395         10.697 
     38       H           30.259          9.755 
     40       H           30.093          9.311 
     41       H           30.571          9.114 
     42       H           30.549          5.071 
     45       H           31.270          7.230 
     46       H           31.027          8.001 
     47       H           31.324          9.231 
     48       H           29.959          4.896 
     52       H           26.492          8.323 
     53       H           26.516          9.141 
     57       H           29.987          4.285 
     58       H           30.421          8.537 
     61       H           30.518          6.413 
     62       H           30.822         10.990 
     63       H           30.733          8.718 
     64       H           30.580          8.782 
     65       H           31.257          6.880 
     66       H           31.064         11.173 
     67       H           30.919          9.336 
     68       H           30.831         10.973 
     69       H           30.870          6.196 
     70       H           30.197          7.058 
     71       H           30.914          6.987 
     72       H           30.892         10.206 



Maximum memory used throughout the entire EPRNMR-calculation: 140.6 MB

Timings for individual modules:

Sum of individual times         ...      140.905 sec (=   2.348 min)
GTO integral calculation        ...        0.829 sec (=   0.014 min)   0.6 %
SCF iterations                  ...       94.226 sec (=   1.570 min)  66.9 %
EPR/NMR calculation             ...       45.850 sec (=   0.764 min)  32.5 %
                             ****ORCA TERMINATED NORMALLY****
TOTAL RUN TIME: 0 days 0 hours 2 minutes 21 seconds 364 msec
