
                                 *****************
                                 * O   R   C   A *
                                 *****************

                                            #,                                       
                                            ###                                      
                                            ####                                     
                                            #####                                    
                                            ######                                   
                                           ########,                                 
                                     ,,################,,,,,                         
                               ,,#################################,,                 
                          ,,##########################################,,             
                       ,#########################################, ''#####,          
                    ,#############################################,,   '####,        
                  ,##################################################,,,,####,       
                ,###########''''           ''''###############################       
              ,#####''   ,,,,##########,,,,          '''####'''          '####       
            ,##' ,,,,###########################,,,                        '##       
           ' ,,###''''                  '''############,,,                           
         ,,##''                                '''############,,,,        ,,,,,,###''
      ,#''                                            '''#######################'''  
     '                                                          ''''####''''         
             ,#######,   #######,   ,#######,      ##                                
            ,#'     '#,  ##    ##  ,#'     '#,    #''#        ,####,   ,####,        
            ##       ##  ##   ,#'  ##            #'  '#       #'       #'  '#        
            ##       ##  #######   ##           ,######,      #####,   #    #        
            '#,     ,#'  ##    ##  '#,     ,#' ,#      #,     #,   #   #,  ,#        
             '#######'   ##     ##  '#######'  #'      '#     '####' # '####'        



                #########################################################
                #                        -***-                          #
                #          Department of theory and spectroscopy        #
                #                                                       #
                #                      Frank Neese                      #
                #                                                       #
                #     Directorship, Architecture, Infrastructure        #
                #                    SHARK, DRIVERS                     #
                #        Core code/Algorithms in most modules           #
                #                                                       #
                #        Max Planck Institute fuer Kohlenforschung      #
                #                Kaiser Wilhelm Platz 1                 #
                #                 D-45470 Muelheim/Ruhr                 #
                #                      Germany                          #
                #                                                       #
                #                  All rights reserved                  #
                #                        -***-                          #
                #########################################################


                         Program Version 6.0.0  -   RELEASE  -


 With contributions from (in alphabetic order):
   Daniel Aravena         : Magnetic Suceptibility
   Michael Atanasov       : Ab Initio Ligand Field Theory (pilot matlab implementation)
   Alexander A. Auer      : GIAO ZORA, VPT2 properties, NMR spectrum
   Ute Becker             : All parallelization in ORCA, NUMFREQ, NUMCALC
   Giovanni Bistoni       : ED, misc. LED, open-shell LED, HFLD
   Martin Brehm           : Molecular dynamics
   Dmytro Bykov           : pre 5.0 version of the SCF Hessian
   Marcos Casanova-Páez   : Triplet and SCS-CIS(D). UHF-(DLPNO)-IP/EA/STEOM-CCSD. UHF-CVS-IP/STEOM-CCSD
   Vijay G. Chilkuri      : MRCI spin determinant printing, contributions to CSF-ICE
   Pauline Colinet        : FMM embedding
   Dipayan Datta          : RHF DLPNO-CCSD density
   Achintya Kumar Dutta   : EOM-CC, STEOM-CC
   Nicolas Foglia         : Exact transition moments, OPA infrastructure, MCD improvements
   Dmitry Ganyushin       : Spin-Orbit,Spin-Spin,Magnetic field MRCI
   Miquel Garcia          : C-PCM and meta-GGA Hessian, CCSD/C-PCM, Gaussian charge scheme
   Tiago L. C. Gouveia    : GS-ROHF, GS-ROCIS
   Yang Guo               : DLPNO-NEVPT2, F12-NEVPT2, CIM, IAO-localization
   Andreas Hansen         : Spin unrestricted coupled pair/coupled cluster methods
   Ingolf Harden          : AUTO-CI MPn and infrastructure 
   Benjamin Helmich-Paris : MC-RPA, TRAH-(SCF,CASSCF), AVAS, COSX integrals, SCF dyn. polar.
   Lee Huntington         : MR-EOM, pCC
   Robert Izsak           : Overlap fitted RIJCOSX, COSX-SCS-MP3, EOM
   Riya Kayal             : Wick's Theorem for AUTO-CI, AUTO-CI UHF-CCSDT
   Emily Kempfer          : AUTO-CI, RHF CISDT and CCSDT
   Christian Kollmar      : KDIIS, OOCD, Brueckner-CCSD(T), CCSD density, CASPT2, CASPT2-K, improved NEVPT2
   Axel Koslowski         : Symmetry handling
   Simone Kossmann        : Meta GGA functionals, TD-DFT gradient, OOMP2, (MP2 Hessian; deprecated post 5.0)
   Lucas Lang             : DCDCAS
   Marvin Lechner         : AUTO-CI (C++ implementation), FIC-MRCC
   Spencer Leger          : CASSCF response
   Dagmar Lenk            : GEPOL surface, SMD, ORCA-2-JSON
   Dimitrios Liakos       : Extrapolation schemes; Compound Job, initial MDCI parallelization
   Dimitrios Manganas     : Further ROCIS development; embedding schemes. LFT, Crystal Embedding
   Dimitrios Pantazis     : SARC Basis sets
   Anastasios Papadopoulos: AUTO-CI, single reference methods and gradients
   Taras Petrenko         : pre 6.0 DFT Hessian and TD-DFT gradient, (ASA, deprecated), ECA, 1-Electron XAS/XES, NRVS
   Peter Pinski           : DLPNO-MP2, DLPNO-MP2 Gradient
   Christoph Reimann      : Effective Core Potentials
   Marius Retegan         : Local ZFS, SOC
   Christoph Riplinger    : Optimizer, TS searches, QM/MM, DLPNO-CCSD(T), (RO)-DLPNO pert. Triples
   Michael Roemelt        : Original ROCIS implementation
   Masaaki Saitow         : Open-shell DLPNO-CCSD energy and density
   Barbara Sandhoefer     : DKH picture change effects
   Kantharuban Sivalingam : CASSCF convergence/infrastructure, NEVPT2 and variants, FIC-MRCI
   Bernardo de Souza      : ESD, SOC TD-DFT
   Georgi Stoychev        : AutoAux, RI-MP2 NMR, DLPNO-MP2 response, X2C
   Van Anh Tran           : RI-MP2 g-tensors
   Willem Van den Heuvel  : Paramagnetic NMR
   Zikuan Wang            : NOTCH, Electric field optimization 
   Frank Wennmohs         : Technical directorship and infrastructure
   Hang Xu                : AUTO-CI-Response properties 


 We gratefully acknowledge several colleagues who have allowed us to
 interface, adapt or use parts of their codes:
   Stefan Grimme, W. Hujo, H. Kruse, P. Pracht,  : VdW corrections, initial TS optimization,
                  C. Bannwarth, S. Ehlert,         DFT functionals, gCP, sTDA/sTD-DF
                  L. Wittmann, M. Mueller
   Ed Valeev, F. Pavosevic, A. Kumar             : LibInt (2-el integral package), F12 methods
   Garnet Chan, S. Sharma, J. Yang, R. Olivares  : DMRG
   Ulf Ekstrom                                   : XCFun DFT Library
   Mihaly Kallay                                 : mrcc  (arbitrary order and MRCC methods)
   Frank Weinhold                                : gennbo (NPA and NBO analysis)
   Simon Mueller                                 : openCOSMO-RS
   Christopher J. Cramer and Donald G. Truhlar   : smd solvation model
   Lars Goerigk                                  : TD-DFT with DH, B97 family of functionals
   V. Asgeirsson, H. Jonsson                     : NEB implementation
   FAccTs GmbH                                   : IRC, NEB, NEB-TS, DLPNO-Multilevel, CI-OPT
                                                   MM, QMMM, 2- and 3-layer-ONIOM, Crystal-QMMM,
                                                   LR-CPCM, SF, NACMEs, symmetry and pop. for TD-DFT,
                                                   nearIR, NL-DFT gradient (VV10), updates on ESD,
                                                   ML-optimized integration grids, MBIS, APM,
                                                   GOAT, DOCKER, SOLVATOR, interface openCOSMO-RS
   S Lehtola, MJT Oliveira, MAL Marques          : LibXC Library
   Liviu Ungur et al                             : ANISO software


 Your calculation uses the libint2 library for the computation of 2-el integrals
 For citations please refer to: http://libint.valeyev.net

 Your ORCA version has been built with support for libXC version: 6.2.2
 For citations please refer to: https://libxc.gitlab.io

 This ORCA versions uses:
   CBLAS   interface :  Fast vector & matrix operations
   LAPACKE interface :  Fast linear algebra routines
   SCALAPACK package :  Parallel linear algebra routines
   Shared memory     :  Shared parallel matrices
   BLAS/LAPACK       :  OpenBLAS 0.3.27  USE64BITINT DYNAMIC_ARCH NO_AFFINITY Zen SINGLE_THREADED
        Core in use  :  Zen
   Copyright (c) 2011-2014, The OpenBLAS Project


NOTE: MaxCore=8000 MB was set to SCF,MP2,MDCI,CIPSI,MRCI and CIS
      => If you want to overwrite this, your respective input block should be placed after the MaxCore statement
Your calculation utilizes the atom-pairwise dispersion correction
based on EEQ partial charges (D4)


================================================================================

----- Orbital basis set information -----
Your calculation utilizes the basis: pcJ-0
   F. Jensen, Theor. Chem. Acc. 126, 371 (2010).

----- AuxJ basis set information -----
Your calculation utilizes the auxiliary basis: def2/J
   F. Weigend, Phys. Chem. Chem. Phys. 8, 1057 (2006).

================================================================================
                                        WARNINGS
                       Please study these warnings very carefully!
================================================================================


================================================================================
                                       INPUT FILE
================================================================================
NAME = inpJ
|  1> ! pbe0
|  2> ! D4
|  3> ! pcJ-0
|  4> ! def2/J RIJCOSX
|  5> ! DEFGRID2
|  6> ! scfconv7
|  7> ! smallprint printgap noloewdin
|  8> ! NOSOSCF
|  9> %MaxCore 8000
| 10> %output
| 11>        print[P_BondOrder_M] 1
| 12>        print[P_Mayer] 1
| 13>        print[P_basis] 2
| 14> end
| 15> %pal
| 16>     nprocs 4
| 17> end
| 18> ! CPCM(chloroform)
| 19> *xyz 0 1
| 20> C   -5.0095770700   0.3309846800   0.3471688400
| 21> C   -6.4297861300  -0.0518076900   0.0037719100
| 22> C   -6.9669789800   0.7623106100  -1.1797209200
| 23> H   -7.0839694700   0.1572522800   0.8672987800
| 24> H   -6.4995994600  -1.1226700500  -0.2166485900
| 25> C   -4.7963368000   1.7849668400   0.5087910200
| 26> C   -5.3767746700   2.6292541600  -0.6030986200
| 27> C   -6.8356090100   2.2548400800  -0.8980187600
| 28> H   -4.7837203500   2.4580082600  -1.5143282300
| 29> H   -5.2931580900   3.6923791100  -0.3541564900
| 30> H   -7.2090479000   2.8271105600  -1.7553471000
| 31> H   -7.4637504000   2.5058727300  -0.0299541500
| 32> O   -8.3172388500   0.3953721000  -1.4919892200
| 33> H   -6.3899289300   0.5087080500  -2.0800187600
| 34> C   -4.0399326600  -0.6093097600   0.4419449600
| 35> C   -4.1839242700   2.3256199700   1.5682391500
| 36> H   -3.7955880500   1.7084492500   2.3736161500
| 37> H   -4.0675427400   3.4031213300   1.6570664100
| 38> C   -2.6329747900  -0.3721221700   0.6680790000
| 39> H   -4.3553840000  -1.6407808200   0.2913511600
| 40> C   -1.6794614400  -1.3130336100   0.8383472300
| 41> H   -2.3249858900   0.6707003000   0.6904788700
| 42> C   -1.9112187800  -2.8019548600   0.8827548200
| 43> C   -0.9982366600  -3.5505939700  -0.1058341300
| 44> H   -2.9561456300  -3.0661495000   0.6993088900
| 45> H   -1.6705256100  -3.1485961500   1.9005882000
| 46> C    0.4783805000  -3.1605159200   0.0421171400
| 47> H   -1.3351440100  -3.3458444900  -1.1299504700
| 48> H   -1.1094342200  -4.6308804400   0.0484938900
| 49> C    0.6809777700  -1.6419886100  -0.0591816600
| 50> H    1.0632488000  -3.6931771200  -0.7144741200
| 51> H    0.8445390500  -3.4948815000   1.0245897000
| 52> C   -0.2309127100  -0.9777873300   1.0213875200
| 53> H    0.0789560500  -1.4514644000   1.9713189400
| 54> C    0.2405089100   0.4716628200   1.0681827600
| 55> H   -8.8626459600   0.6107710000  -0.7235704400
| 56> C    1.7678979500   0.3641795600   0.8373058700
| 57> H   -0.0131409200   0.9577481800   2.0160553100
| 58> H   -0.2270306100   1.0577874000   0.2692436900
| 59> C    2.0648062800  -1.1036400400   0.4014897100
| 60> H    2.3320237900   0.6220456900   1.7393425600
| 61> H    2.0880720300   1.0643248400   0.0559852700
| 62> H    2.3436384200  -1.6825397700   1.2968595700
| 63> C    3.2635732000  -1.1895901500  -0.5744381900
| 64> C    0.3323787300  -1.1294312700  -1.4629822900
| 65> H   -0.7359212900  -1.2368306500  -1.6746157600
| 66> H    0.8850774300  -1.6874922600  -2.2265982800
| 67> H    0.5827672200  -0.0703862500  -1.5806286600
| 68> H    3.0059873100  -0.5717653200  -1.4513909500
| 69> C    3.5508348600  -2.6079454600  -1.0621906500
| 70> C    4.4589689400  -0.5307754900   0.0766810900
| 71> C    5.5958627800  -1.1322146400   0.4291153500
| 72> H    4.3308619200   0.5282211100   0.2787390500
| 73> H    5.6982524400  -2.1990855500   0.2190896800
| 74> C    6.8141119400  -0.5666881800   1.1198926100
| 75> C    7.0754866700  -1.3895770700   2.3954592100
| 76> C    6.8871735800   0.9515241300   1.4028613900
| 77> H    7.6614391100  -0.7761516800   0.4440390300
| 78> H    7.8844512700   1.0927208800   1.8487733600
| 79> C    5.8804161400   1.4683236600   2.4374925800
| 80> C    6.8687036300   1.7985175800   0.1252350900
| 81> H    7.2137158000  -2.4482952000   2.1512285600
| 82> H    6.2337673600  -1.3189986800   3.0924657900
| 83> H    7.9783209300  -1.0371278500   2.9073739100
| 84> H    6.0688837000   2.5287072100   2.6404811100
| 85> H    5.9667106300   0.9311434600   3.3871304800
| 86> H    4.8448352100   1.3772604300   2.0972304100
| 87> H    5.8851552500   1.8142035400  -0.3524188400
| 88> H    7.5884842100   1.4159458000  -0.6076113300
| 89> H    7.1409689300   2.8349156100   0.3549282100
| 90> H    4.4730881600  -2.6346289800  -1.6525228200
| 91> H    2.7422532300  -2.9747158100  -1.6973291600
| 92> H    3.6634234600  -3.3051216500  -0.2234394900
| 93> *
| 94> %eprnmr
| 95>  Nuclei = all C { ssfc }
| 96>  SpinSpinRThresh 8.0
| 97> end
| 98> 
| 99>                          ****END OF INPUT****
================================================================================

                       ****************************
                       * Single Point Calculation *
                       ****************************

---------------------------------
CARTESIAN COORDINATES (ANGSTROEM)
---------------------------------
  C     -5.009577    0.330985    0.347169
  C     -6.429786   -0.051808    0.003772
  C     -6.966979    0.762311   -1.179721
  H     -7.083969    0.157252    0.867299
  H     -6.499599   -1.122670   -0.216649
  C     -4.796337    1.784967    0.508791
  C     -5.376775    2.629254   -0.603099
  C     -6.835609    2.254840   -0.898019
  H     -4.783720    2.458008   -1.514328
  H     -5.293158    3.692379   -0.354156
  H     -7.209048    2.827111   -1.755347
  H     -7.463750    2.505873   -0.029954
  O     -8.317239    0.395372   -1.491989
  H     -6.389929    0.508708   -2.080019
  C     -4.039933   -0.609310    0.441945
  C     -4.183924    2.325620    1.568239
  H     -3.795588    1.708449    2.373616
  H     -4.067543    3.403121    1.657066
  C     -2.632975   -0.372122    0.668079
  H     -4.355384   -1.640781    0.291351
  C     -1.679461   -1.313034    0.838347
  H     -2.324986    0.670700    0.690479
  C     -1.911219   -2.801955    0.882755
  C     -0.998237   -3.550594   -0.105834
  H     -2.956146   -3.066149    0.699309
  H     -1.670526   -3.148596    1.900588
  C      0.478380   -3.160516    0.042117
  H     -1.335144   -3.345844   -1.129950
  H     -1.109434   -4.630880    0.048494
  C      0.680978   -1.641989   -0.059182
  H      1.063249   -3.693177   -0.714474
  H      0.844539   -3.494881    1.024590
  C     -0.230913   -0.977787    1.021388
  H      0.078956   -1.451464    1.971319
  C      0.240509    0.471663    1.068183
  H     -8.862646    0.610771   -0.723570
  C      1.767898    0.364180    0.837306
  H     -0.013141    0.957748    2.016055
  H     -0.227031    1.057787    0.269244
  C      2.064806   -1.103640    0.401490
  H      2.332024    0.622046    1.739343
  H      2.088072    1.064325    0.055985
  H      2.343638   -1.682540    1.296860
  C      3.263573   -1.189590   -0.574438
  C      0.332379   -1.129431   -1.462982
  H     -0.735921   -1.236831   -1.674616
  H      0.885077   -1.687492   -2.226598
  H      0.582767   -0.070386   -1.580629
  H      3.005987   -0.571765   -1.451391
  C      3.550835   -2.607945   -1.062191
  C      4.458969   -0.530775    0.076681
  C      5.595863   -1.132215    0.429115
  H      4.330862    0.528221    0.278739
  H      5.698252   -2.199086    0.219090
  C      6.814112   -0.566688    1.119893
  C      7.075487   -1.389577    2.395459
  C      6.887174    0.951524    1.402861
  H      7.661439   -0.776152    0.444039
  H      7.884451    1.092721    1.848773
  C      5.880416    1.468324    2.437493
  C      6.868704    1.798518    0.125235
  H      7.213716   -2.448295    2.151229
  H      6.233767   -1.318999    3.092466
  H      7.978321   -1.037128    2.907374
  H      6.068884    2.528707    2.640481
  H      5.966711    0.931143    3.387130
  H      4.844835    1.377260    2.097230
  H      5.885155    1.814204   -0.352419
  H      7.588484    1.415946   -0.607611
  H      7.140969    2.834916    0.354928
  H      4.473088   -2.634629   -1.652523
  H      2.742253   -2.974716   -1.697329
  H      3.663423   -3.305122   -0.223439

----------------------------
CARTESIAN COORDINATES (A.U.)
----------------------------
  NO LB      ZA    FRAG     MASS         X           Y           Z
   0 C     6.0000    0    12.011   -9.466729    0.625470    0.656054
   1 C     6.0000    0    12.011  -12.150535   -0.097902    0.007128
   2 C     6.0000    0    12.011  -13.165682    1.440558   -2.229349
   3 H     1.0000    0     1.008  -13.386762    0.297164    1.638957
   4 H     1.0000    0     1.008  -12.282463   -2.121539   -0.409407
   5 C     6.0000    0    12.011   -9.063763    3.373098    0.961476
   6 C     6.0000    0    12.011  -10.160632    4.968570   -1.139691
   7 C     6.0000    0    12.011  -12.917429    4.261030   -1.697010
   8 H     1.0000    0     1.008   -9.039921    4.644962   -2.861666
   9 H     1.0000    0     1.008  -10.002619    6.977585   -0.669259
  10 H     1.0000    0     1.008  -13.623126    5.342465   -3.317125
  11 H     1.0000    0     1.008  -14.104444    4.735413   -0.056605
  12 O     8.0000    0    15.999  -15.717304    0.747145   -2.819451
  13 H     1.0000    0     1.008  -12.075216    0.961319   -3.930666
  14 C     6.0000    0    12.011   -7.634366   -1.151429    0.835155
  15 C     6.0000    0    12.011   -7.906471    4.394785    2.963543
  16 H     1.0000    0     1.008   -7.172622    3.228501    4.485484
  17 H     1.0000    0     1.008   -7.686542    6.430967    3.131402
  18 C     6.0000    0    12.011   -4.975601   -0.703209    1.262486
  19 H     1.0000    0     1.008   -8.230483   -3.100626    0.550574
  20 C     6.0000    0    12.011   -3.173722   -2.481274    1.584247
  21 H     1.0000    0     1.008   -4.393587    1.267440    1.304816
  22 C     6.0000    0    12.011   -3.611680   -5.294927    1.668165
  23 C     6.0000    0    12.011   -1.886394   -6.709650   -0.199998
  24 H     1.0000    0     1.008   -5.586306   -5.794183    1.321502
  25 H     1.0000    0     1.008   -3.156836   -5.949984    3.591591
  26 C     6.0000    0    12.011    0.904008   -5.972510    0.079590
  27 H     1.0000    0     1.008   -2.523057   -6.322730   -2.135297
  28 H     1.0000    0     1.008   -2.096527   -8.751096    0.091640
  29 C     6.0000    0    12.011    1.286861   -3.102909   -0.111837
  30 H     1.0000    0     1.008    2.009249   -6.979093   -1.350160
  31 H     1.0000    0     1.008    1.595948   -6.604369    1.936194
  32 C     6.0000    0    12.011   -0.436362   -1.847750    1.930143
  33 H     1.0000    0     1.008    0.149205   -2.742870    3.725253
  34 C     6.0000    0    12.011    0.454496    0.891314    2.018573
  35 H     1.0000    0     1.008  -16.747974    1.154190   -1.367350
  36 C     6.0000    0    12.011    3.340843    0.688200    1.582279
  37 H     1.0000    0     1.008   -0.024833    1.809882    3.809792
  38 H     1.0000    0     1.008   -0.429026    1.998928    0.508797
  39 C     6.0000    0    12.011    3.901918   -2.085577    0.758706
  40 H     1.0000    0     1.008    4.406886    1.175496    3.286881
  41 H     1.0000    0     1.008    3.945884    2.011282    0.105797
  42 H     1.0000    0     1.008    4.428835   -3.179539    2.450709
  43 C     6.0000    0    12.011    6.167260   -2.248000   -1.085531
  44 C     6.0000    0    12.011    0.628105   -2.134316   -2.764636
  45 H     1.0000    0     1.008   -1.390690   -2.337271   -3.164565
  46 H     1.0000    0     1.008    1.672554   -3.188898   -4.207661
  47 H     1.0000    0     1.008    1.101270   -0.133011   -2.986955
  48 H     1.0000    0     1.008    5.680493   -1.080480   -2.742731
  49 C     6.0000    0    12.011    6.710105   -4.928303   -2.007249
  50 C     6.0000    0    12.011    8.426230   -1.003020    0.144906
  51 C     6.0000    0    12.011   10.574648   -2.139576    0.810910
  52 H     1.0000    0     1.008    8.184143    0.998193    0.526740
  53 H     1.0000    0     1.008   10.768137   -4.155669    0.414019
  54 C     6.0000    0    12.011   12.876805   -1.070885    2.116290
  55 C     6.0000    0    12.011   13.370732   -2.625920    4.526762
  56 C     6.0000    0    12.011   13.014872    1.798120    2.651024
  57 H     1.0000    0     1.008   14.478022   -1.466714    0.839112
  58 H     1.0000    0     1.008   14.899454    2.064943    3.493675
  59 C     6.0000    0    12.011   11.112376    2.774730    4.606193
  60 C     6.0000    0    12.011   12.979969    3.398706    0.236660
  61 H     1.0000    0     1.008   13.631947   -4.626607    4.065233
  62 H     1.0000    0     1.008   11.780113   -2.492546    5.843913
  63 H     1.0000    0     1.008   15.076842   -1.959888    5.494140
  64 H     1.0000    0     1.008   11.468528    4.778564    4.989786
  65 H     1.0000    0     1.008   11.275449    1.759606    6.400749
  66 H     1.0000    0     1.008    9.155412    2.602645    3.963191
  67 H     1.0000    0     1.008   11.121332    3.428348   -0.665975
  68 H     1.0000    0     1.008   14.340157    2.675750   -1.148219
  69 H     1.0000    0     1.008   13.494476    5.357214    0.670717
  70 H     1.0000    0     1.008    8.452912   -4.978727   -3.122816
  71 H     1.0000    0     1.008    5.182108   -5.621398   -3.207487
  72 H     1.0000    0     1.008    6.922867   -6.245775   -0.422239

--------------------------------
INTERNAL COORDINATES (ANGSTROEM)
--------------------------------
 C      0   0   0     0.000000000000     0.00000000     0.00000000
 C      1   0   0     1.510445372786     0.00000000     0.00000000
 C      2   1   0     1.533629695574   111.73170013     0.00000000
 H      2   1   3     1.103331576908   109.36224985   241.47915909
 H      2   1   3     1.095538813521   110.69430536   122.91029783
 C      1   2   3     1.478396855860   114.18722993    50.50918337
 C      6   1   2     1.511961564056   114.41959698   312.02197303
 C      3   2   1     1.524551866873   110.29902023   304.98934217
 H      7   6   1     1.100626179444   108.36741360   290.03691304
 H      7   6   1     1.095079255512   110.21977075   172.84076782
 H      8   3   2     1.096340270815   109.70474562   179.20464044
 H      8   3   2     1.100506776141   108.65574835   296.65565997
 O      3   2   1     1.433651658472   111.23033756   180.29629640
 H      3   2   1     1.099016478199   109.01101537    65.11397959
 C      1   2   3     1.354011236534   120.88145814   232.66867851
 C      6   1   2     1.337828559286   123.37077620   129.78672865
 H     16   6   1     1.086433076410   121.40621464     0.68545199
 H     16   6   1     1.087402466176   120.93937100   181.35847873
 C     15   1   2     1.444619328699   126.46950917   175.31700619
 H     15   1   2     1.089091634402   116.14263617   357.96573997
 C     19  15   1     1.350367844959   126.37306622   175.94030038
 H     19  15   1     1.087583385601   115.87806323   355.25858446
 C     21  19  15     1.507504556343   125.68662409   357.26229441
 C     23  21  19     1.539904211477   111.72228177   127.61514929
 H     23  21  19     1.093308437217   112.37444528     3.45742231
 H     23  21  19     1.101852156807   107.71902650   246.18643508
 C     24  23  21     1.534421291756   112.64722404    51.07319366
 H     24  23  21     1.097380148307   109.04990710   288.96463896
 H     24  23  21     1.096905142832   109.16976688   172.98454372
 C     27  24  23     1.535328073054   111.84276172   305.99943429
 H     27  24  23     1.094636568473   108.89444351   182.42489319
 H     27  24  23     1.100511133964   109.20953842    65.97329128
 C     21  19  15     1.498061160034   122.83706198   177.82661925
 H     33  21  19     1.105784028539   106.26410511   124.15086091
 C     33  21  19     1.524904546398   121.02377011     1.93916155
 H     13   3   2     0.966609033279   107.53200001    62.77586092
 C     35  33  21     1.548474755696   103.55539657   196.38959328
 H     35  33  21     1.095024924150   112.14125938    74.42493635
 H     35  33  21     1.095645409617   110.74377218   314.78531638
 C     30  27  24     1.554676377594   116.12897251   166.20818475
 H     37  35  33     1.094715988037   111.65967558   249.12231149
 H     37  35  33     1.096894130987   110.47600276   130.63538175
 H     40  30  27     1.102070526730   106.50194948   320.56417861
 C     40  30  27     1.548181131487   118.89489747    80.92765700
 C     30  27  24     1.534565908088   111.14524673   294.29007251
 H     45  30  27     1.094343769197   111.46223827    66.57204773
 H     45  30  27     1.095453012103   110.66535558   306.46068285
 H     45  30  27     1.094582760090   111.68608895   186.59392442
 H     44  40  30     1.103224435264   106.81020878    62.33038073
 C     44  40  30     1.527138994639   113.48734949   303.34673163
 C     44  40  30     1.512271155656   108.44928491   176.67753387
 C     51  44  40     1.333591602480   126.24129487   115.67277685
 H     51  44  40     1.085685325766   114.31771524   297.05267290
 H     52  51  44     1.092157480924   118.01168557     1.16530018
 C     52  51  44     1.510339172416   129.76485018   182.23715769
 C     55  52  51     1.540302900667   108.39654687   123.50080908
 C     55  52  51     1.546084716932   119.30849534   354.60876653
 H     55  52  51     1.103909576211   105.54898901   236.69124672
 H     57  55  52     1.101515682218   104.04878075   183.20194758
 C     57  55  52     1.533331013358   115.05175399    67.51880921
 C     57  55  52     1.532993152577   112.91996923   297.80597985
 H     56  55  52     1.095280777504   110.68075160    57.76042124
 H     56  55  52     1.095121398990   111.23646994   298.28063756
 H     56  55  52     1.096077923226   110.77853044   177.68027013
 H     60  57  55     1.095964250144   109.76528592   174.71138415
 H     60  57  55     1.094450294620   111.60965760    55.63787260
 H     60  57  55     1.093845838668   112.56007053   294.42026784
 H     61  57  55     1.093511198839   112.50760975    72.38859749
 H     61  57  55     1.096133716982   110.88261073   311.73721200
 H     61  57  55     1.095905196423   110.17185530   192.37835367
 H     50  44  40     1.095333387849   110.67964305   186.63890230
 H     50  44  40     1.091661883963   111.01046897    67.25608183
 H     50  44  40     1.096464473275   111.44093697   306.94370829

---------------------------
INTERNAL COORDINATES (A.U.)
---------------------------
 C      0   0   0     0.000000000000     0.00000000     0.00000000
 C      1   0   0     2.854328094814     0.00000000     0.00000000
 C      2   1   0     2.898140115485   111.73170013     0.00000000
 H      2   1   3     2.084994515263   109.36224985   241.47915909
 H      2   1   3     2.070268326635   110.69430536   122.91029783
 C      1   2   3     2.793765174825   114.18722993    50.50918337
 C      6   1   2     2.857193281081   114.41959698   312.02197303
 C      3   2   1     2.880985505348   110.29902023   304.98934217
 H      7   6   1     2.079882054974   108.36741360   290.03691304
 H      7   6   1     2.069399887856   110.21977075   172.84076782
 H      8   3   2     2.071782861430   109.70474562   179.20464044
 H      8   3   2     2.079656415431   108.65574835   296.65565997
 O      3   2   1     2.709209005953   111.23033756   180.29629640
 H      3   2   1     2.076840160462   109.01101537    65.11397959
 C      1   2   3     2.558710419302   120.88145814   232.66867851
 C      6   1   2     2.528129591188   123.37077620   129.78672865
 H     16   6   1     2.053060977249   121.40621464     0.68545199
 H     16   6   1     2.054892858424   120.93937100   181.35847873
 C     15   1   2     2.729934899011   126.46950917   175.31700619
 H     15   1   2     2.058084923764   116.14263617   357.96573997
 C     19  15   1     2.551825407025   126.37306622   175.94030038
 H     19  15   1     2.055234746589   115.87806323   355.25858446
 C     21  19  15     2.848770757127   125.68662409   357.26229441
 C     23  21  19     2.909997232163   111.72228177   127.61514929
 H     23  21  19     2.066053526245   112.37444528     3.45742231
 H     23  21  19     2.082198816435   107.71902650   246.18643508
 C     24  23  21     2.899636015476   112.64722404    51.07319366
 H     24  23  21     2.073747945103   109.04990710   288.96463896
 H     24  23  21     2.072850314843   109.16976688   172.98454372
 C     27  24  23     2.901349583794   111.84276172   305.99943429
 H     27  24  23     2.068563330590   108.89444351   182.42489319
 H     27  24  23     2.079664650524   109.20953842    65.97329128
 C     21  19  15     2.830925324328   122.83706198   177.82661925
 H     33  21  19     2.089628977202   106.26410511   124.15086091
 C     33  21  19     2.881651973064   121.02377011     1.93916155
 H     13   3   2     1.826626351472   107.53200001    62.77586092
 C     35  33  21     2.926193213556   103.55539657   196.38959328
 H     35  33  21     2.069297216461   112.14125938    74.42493635
 H     35  33  21     2.070469764064   110.74377218   314.78531638
 C     30  27  24     2.937912580529   116.12897251   166.20818475
 H     37  35  33     2.068713411814   111.65967558   249.12231149
 H     37  35  33     2.072829505472   110.47600276   130.63538175
 H     40  30  27     2.082611475786   106.50194948   320.56417861
 C     40  30  27     2.925638344216   118.89489747    80.92765700
 C     30  27  24     2.899909300738   111.14524673   294.29007251
 H     45  30  27     2.068010020146   111.46223827    66.57204773
 H     45  30  27     2.070106185453   110.66535558   306.46068285
 H     45  30  27     2.068461647481   111.68608895   186.59392442
 H     44  40  30     2.084792046899   106.81020878    62.33038073
 C     44  40  30     2.885874468300   113.48734949   303.34673163
 C     44  40  30     2.857778324418   108.44928491   176.67753387
 C     51  44  40     2.520122903184   126.24129487   115.67277685
 H     51  44  40     2.051647933315   114.31771524   297.05267290
 H     52  51  44     2.063878534060   118.01168557     1.16530018
 C     52  51  44     2.854127405199   129.76485018   182.23715769
 C     55  52  51     2.910750645545   108.39654687   123.50080908
 C     55  52  51     2.921676694842   119.30849534   354.60876653
 H     55  52  51     2.086086775653   105.54898901   236.69124672
 H     57  55  52     2.081562971611   104.04878075   183.20194758
 C     57  55  52     2.897575687894   115.05175399    67.51880921
 C     57  55  52     2.896937223547   112.91996923   297.80597985
 H     56  55  52     2.069780709232   110.68075160    57.76042124
 H     56  55  52     2.069479527487   111.23646994   298.28063756
 H     56  55  52     2.071287096335   110.77853044   177.68027013
 H     60  57  55     2.071072285341   109.76528592   174.71138415
 H     60  57  55     2.068211324020   111.60965760    55.63787260
 H     60  57  55     2.067069067812   112.56007053   294.42026784
 H     61  57  55     2.066436690182   112.50760975    72.38859749
 H     61  57  55     2.071392531253   110.88261073   311.73721200
 H     61  57  55     2.070960689981   110.17185530   192.37835367
 H     50  44  40     2.069880128375   110.67964305   186.63890230
 H     50  44  40     2.062941991531   111.01046897    67.25608183
 H     50  44  40     2.072017570064   111.44093697   306.94370829

---------------------
BASIS SET INFORMATION
---------------------
There are 3 groups of distinct atoms

 Group   1 Type C   : 7s4p contracted to 4s3p pattern {4111/211}
 Group   2 Type H   : 5s contracted to 3s pattern {311}
 Group   3 Type O   : 7s4p contracted to 4s3p pattern {4111/211}

Atom   0C    basis set group =>   1
Atom   1C    basis set group =>   1
Atom   2C    basis set group =>   1
Atom   3H    basis set group =>   2
Atom   4H    basis set group =>   2
Atom   5C    basis set group =>   1
Atom   6C    basis set group =>   1
Atom   7C    basis set group =>   1
Atom   8H    basis set group =>   2
Atom   9H    basis set group =>   2
Atom  10H    basis set group =>   2
Atom  11H    basis set group =>   2
Atom  12O    basis set group =>   3
Atom  13H    basis set group =>   2
Atom  14C    basis set group =>   1
Atom  15C    basis set group =>   1
Atom  16H    basis set group =>   2
Atom  17H    basis set group =>   2
Atom  18C    basis set group =>   1
Atom  19H    basis set group =>   2
Atom  20C    basis set group =>   1
Atom  21H    basis set group =>   2
Atom  22C    basis set group =>   1
Atom  23C    basis set group =>   1
Atom  24H    basis set group =>   2
Atom  25H    basis set group =>   2
Atom  26C    basis set group =>   1
Atom  27H    basis set group =>   2
Atom  28H    basis set group =>   2
Atom  29C    basis set group =>   1
Atom  30H    basis set group =>   2
Atom  31H    basis set group =>   2
Atom  32C    basis set group =>   1
Atom  33H    basis set group =>   2
Atom  34C    basis set group =>   1
Atom  35H    basis set group =>   2
Atom  36C    basis set group =>   1
Atom  37H    basis set group =>   2
Atom  38H    basis set group =>   2
Atom  39C    basis set group =>   1
Atom  40H    basis set group =>   2
Atom  41H    basis set group =>   2
Atom  42H    basis set group =>   2
Atom  43C    basis set group =>   1
Atom  44C    basis set group =>   1
Atom  45H    basis set group =>   2
Atom  46H    basis set group =>   2
Atom  47H    basis set group =>   2
Atom  48H    basis set group =>   2
Atom  49C    basis set group =>   1
Atom  50C    basis set group =>   1
Atom  51C    basis set group =>   1
Atom  52H    basis set group =>   2
Atom  53H    basis set group =>   2
Atom  54C    basis set group =>   1
Atom  55C    basis set group =>   1
Atom  56C    basis set group =>   1
Atom  57H    basis set group =>   2
Atom  58H    basis set group =>   2
Atom  59C    basis set group =>   1
Atom  60C    basis set group =>   1
Atom  61H    basis set group =>   2
Atom  62H    basis set group =>   2
Atom  63H    basis set group =>   2
Atom  64H    basis set group =>   2
Atom  65H    basis set group =>   2
Atom  66H    basis set group =>   2
Atom  67H    basis set group =>   2
Atom  68H    basis set group =>   2
Atom  69H    basis set group =>   2
Atom  70H    basis set group =>   2
Atom  71H    basis set group =>   2
Atom  72H    basis set group =>   2

-------------------------
BASIS SET IN INPUT FORMAT
-------------------------

 # Basis set for element : H 
 NewGTO H 
 S 3 
   1    1357.7500000000      0.0012928364
   2      54.3100000000      0.0588280685
   3       4.3448000000      0.9761499708
 S 1 
   1       0.6604910000      1.0000000000
 S 1 
   1       0.1366870000      1.0000000000
  end;

 # Basis set for element : C 
 NewGTO C 
 S 4 
   1  139534.0000000000      0.0001655246
   2    5581.3600000000      0.0074486101
   3     446.5090000000      0.1285821065
   4      67.4620000000      0.9218029311
 S 1 
   1      15.0674000000      1.0000000000
 S 1 
   1       3.9387600000      1.0000000000
 S 1 
   1       0.2999150000      1.0000000000
 P 2 
   1      28.3900000000      0.0816325586
   2       4.3676900000      0.9660360576
 P 1 
   1       0.8698170000      1.0000000000
 P 1 
   1       0.1889340000      1.0000000000
  end;

 # Basis set for element : O 
 NewGTO O 
 S 4 
   1  253789.0000000000      0.0001641076
   2   10151.6000000000      0.0074010921
   3     812.1250000000      0.1277711901
   4     122.6930000000      0.9223372164
 S 1 
   1      27.5608000000      1.0000000000
 S 1 
   1       7.3172600000      1.0000000000
 S 1 
   1       0.5792400000      1.0000000000
 P 2 
   1      53.4157000000      0.0793786106
   2       8.2177900000      0.9670506337
 P 1 
   1       1.6754400000      1.0000000000
 P 1 
   1       0.3506720000      1.0000000000
  end;

---------------------------------
AUXILIARY/J BASIS SET INFORMATION
---------------------------------
There are 3 groups of distinct atoms

 Group   1 Type C   : 12s5p4d2f1g contracted to 6s4p3d1f1g pattern {711111/2111/211/2/1}
 Group   2 Type H   : 5s2p1d contracted to 3s1p1d pattern {311/2/1}
 Group   3 Type O   : 12s5p4d2f1g contracted to 6s4p3d1f1g pattern {711111/2111/211/2/1}

Atom   0C    basis set group =>   1
Atom   1C    basis set group =>   1
Atom   2C    basis set group =>   1
Atom   3H    basis set group =>   2
Atom   4H    basis set group =>   2
Atom   5C    basis set group =>   1
Atom   6C    basis set group =>   1
Atom   7C    basis set group =>   1
Atom   8H    basis set group =>   2
Atom   9H    basis set group =>   2
Atom  10H    basis set group =>   2
Atom  11H    basis set group =>   2
Atom  12O    basis set group =>   3
Atom  13H    basis set group =>   2
Atom  14C    basis set group =>   1
Atom  15C    basis set group =>   1
Atom  16H    basis set group =>   2
Atom  17H    basis set group =>   2
Atom  18C    basis set group =>   1
Atom  19H    basis set group =>   2
Atom  20C    basis set group =>   1
Atom  21H    basis set group =>   2
Atom  22C    basis set group =>   1
Atom  23C    basis set group =>   1
Atom  24H    basis set group =>   2
Atom  25H    basis set group =>   2
Atom  26C    basis set group =>   1
Atom  27H    basis set group =>   2
Atom  28H    basis set group =>   2
Atom  29C    basis set group =>   1
Atom  30H    basis set group =>   2
Atom  31H    basis set group =>   2
Atom  32C    basis set group =>   1
Atom  33H    basis set group =>   2
Atom  34C    basis set group =>   1
Atom  35H    basis set group =>   2
Atom  36C    basis set group =>   1
Atom  37H    basis set group =>   2
Atom  38H    basis set group =>   2
Atom  39C    basis set group =>   1
Atom  40H    basis set group =>   2
Atom  41H    basis set group =>   2
Atom  42H    basis set group =>   2
Atom  43C    basis set group =>   1
Atom  44C    basis set group =>   1
Atom  45H    basis set group =>   2
Atom  46H    basis set group =>   2
Atom  47H    basis set group =>   2
Atom  48H    basis set group =>   2
Atom  49C    basis set group =>   1
Atom  50C    basis set group =>   1
Atom  51C    basis set group =>   1
Atom  52H    basis set group =>   2
Atom  53H    basis set group =>   2
Atom  54C    basis set group =>   1
Atom  55C    basis set group =>   1
Atom  56C    basis set group =>   1
Atom  57H    basis set group =>   2
Atom  58H    basis set group =>   2
Atom  59C    basis set group =>   1
Atom  60C    basis set group =>   1
Atom  61H    basis set group =>   2
Atom  62H    basis set group =>   2
Atom  63H    basis set group =>   2
Atom  64H    basis set group =>   2
Atom  65H    basis set group =>   2
Atom  66H    basis set group =>   2
Atom  67H    basis set group =>   2
Atom  68H    basis set group =>   2
Atom  69H    basis set group =>   2
Atom  70H    basis set group =>   2
Atom  71H    basis set group =>   2
Atom  72H    basis set group =>   2

-------------------------------------
AUXILIARY/J BASIS SET IN INPUT FORMAT
-------------------------------------

 # Auxiliary/J basis set for element : H 
 NewAuxJGTO H 
 S 3 
   1      15.6752927000      0.1007184237
   2       3.6063578000      0.3404257499
   3       1.2080016000      0.6491996172
 S 1 
   1       0.4726794000      1.0000000000
 S 1 
   1       0.2018100000      1.0000000000
 P 2 
   1       2.0281365000      0.5596620919
   2       0.5358730000      0.5596620919
 D 1 
   1       2.2165124000      1.0000000000
  end;

 # Auxiliary/J basis set for element : C 
 NewAuxJGTO C 
 S 7 
   1    1861.0916331000      0.0134602335
   2     642.9939764000      0.0299160374
   3     235.1105725000      0.1008649584
   4      90.7028894000      0.2370970548
   5      36.7794552000      0.3924037254
   6      15.6046273000      0.3195862154
   7       6.8907294000      0.0530104441
 S 1 
   1       3.1478850000     -1.0000000000
 S 1 
   1       1.4777287000      1.0000000000
 S 1 
   1       0.7076466000      1.0000000000
 S 1 
   1       0.3430122000      1.0000000000
 S 1 
   1       0.1669453000      1.0000000000
 P 2 
   1      13.5472892000     -0.6769313712
   2       5.4669419000     -0.3779500978
 P 1 
   1       2.1751721000      1.0000000000
 P 1 
   1       0.8582194000      1.0000000000
 P 1 
   1       0.3376720000      1.0000000000
 D 2 
   1       5.9287253000     -0.3533329857
   2       1.9809209000     -0.7456525731
 D 1 
   1       0.8055417000     -1.0000000000
 D 1 
   1       0.3531244000     -1.0000000000
 F 2 
   1       1.6755626000      0.6311076882
   2       0.5997536000      0.4968166032
 G 1 
   1       1.0024600000     -1.0000000000
  end;

 # Auxiliary/J basis set for element : O 
 NewAuxJGTO O 
 S 7 
   1    2876.8216605000      0.0168151159
   2    1004.7443032000      0.0340137548
   3     369.7579954000      0.1194951309
   4     142.9442404000      0.2664627624
   5      57.8366425000      0.4202764046
   6      24.3864983000      0.2765077335
   7      10.6622662000      0.0057008815
 S 1 
   1       4.8070437000     -1.0000000000
 S 1 
   1       2.2210770000      1.0000000000
 S 1 
   1       1.0447795000      1.0000000000
 S 1 
   1       0.4968425000      1.0000000000
 S 1 
   1       0.2371384000      1.0000000000
 P 2 
   1      64.2613382000     -0.2731534179
   2      16.3006076000     -0.8168011598
 P 1 
   1       4.3550542000      1.0000000000
 P 1 
   1       1.2019554000      1.0000000000
 P 1 
   1       0.3354196000      1.0000000000
 D 2 
   1       9.2146611000     -0.4661230638
   2       2.8435251000     -0.6600908911
 D 1 
   1       0.9955759000     -1.0000000000
 D 1 
   1       0.3649441000     -1.0000000000
 F 2 
   1       2.6420115000      0.5931563945
   2       0.7345613000      0.5931563945
 G 1 
   1       1.3931000000     -1.0000000000
  end;



           ************************************************************
           *        Program running with 4 parallel MPI-processes     *
           *              working on a common directory               *
           ************************************************************
------------------------------------------------------------------------------
                             ORCA STARTUP CALCULATIONS
                           -- RI-GTO INTEGRALS CHOSEN --
------------------------------------------------------------------------------
------------------------------------------------------------------------------
                   ___                                                        
                  /   \      - P O W E R E D   B Y -                         
                 /     \                                                     
                 |  |  |   _    _      __       _____    __    __             
                 |  |  |  | |  | |    /  \     |  _  \  |  |  /  |          
                  \  \/   | |  | |   /    \    | | | |  |  | /  /          
                 / \  \   | |__| |  /  /\  \   | |_| |  |  |/  /          
                |  |  |   |  __  | /  /__\  \  |    /   |      \           
                |  |  |   | |  | | |   __   |  |    \   |  |\   \          
                \     /   | |  | | |  |  |  |  | |\  \  |  | \   \       
                 \___/    |_|  |_| |__|  |__|  |_| \__\ |__|  \__/        
                                                                              
                      - O R C A' S   B I G   F R I E N D -                    
                                      &                                       
                       - I N T E G R A L  F E E D E R -                       
                                                                              
 v1 FN, 2020, v2 2021, v3 2022-2024                                           
------------------------------------------------------------------------------


----------------------
SHARK INTEGRAL PACKAGE
----------------------

Number of atoms                             ...     73
Number of basis functions                   ...    509
Number of shells                            ...    335
Maximum angular momentum                    ...      1
Integral batch strategy                     ... SHARK/LIBINT Hybrid
RI-J (if used) integral strategy            ... SPLIT-RIJ (Revised 2003 algorithm where possible)
Printlevel                                  ...      1
Contraction scheme used                     ... SEGMENTED contraction
Prescreening option                         ... SCHWARTZ
   Thresh                                   ... 3.000e-11
   Tcut                                     ... 1.000e-12
   Tpresel                                  ... 1.000e-12 
Coulomb Range Separation                    ... NOT USED
Exchange Range Separation                   ... NOT USED
Multipole approximations                    ... NOT USED
Finite Nucleus Model                        ... NOT USED
CABS basis                                  ... NOT available
Auxiliary Coulomb fitting basis             ... AVAILABLE
   # of basis functions in Aux-J            ...   1905
   # of shells in Aux-J                     ...    655
   Maximum angular momentum in Aux-J        ...      4
Auxiliary J/K fitting basis                 ... NOT available
Auxiliary Correlation fitting basis         ... NOT available
Auxiliary 'external' fitting basis          ... NOT available

Checking pre-screening integrals            ... done (  0.0 sec) Dimension = 335
Check shell pair data                       ... done (  0.0 sec)
Shell pair information
Shell pair cut-off parameter TPreSel        ...   1.0e-12
Total number of shell pairs                 ...     56280
Shell pairs after pre-screening             ...     21923
Total number of primitive shell pairs       ...    145865
Primitive shell pairs kept                  ...     37646
          la=0 lb=0:  11057 shell pairs
          la=1 lb=0:   8990 shell pairs
          la=1 lb=1:   1876 shell pairs

Calculating one electron integrals          ... done (  0.0 sec)
Calculating RI/J V-Matrix + Cholesky decomp.... done (  0.2 sec)
Calculating Nuclear repulsion               ... done (  0.0 sec) ENN=   2778.499358712257 Eh

Diagonalization of the overlap matrix:
Smallest eigenvalue                        ... 7.549e-03
Time for diagonalization                   ...    0.025 sec
Threshold for overlap eigenvalues          ... 1.000e-07
Number of eigenvalues below threshold      ... 0
Time for construction of square roots      ...    0.013 sec
Total time needed                          ...    0.041 sec

-------------------
DFT GRID GENERATION
-------------------

General Integration Accuracy     IntAcc      ... 4.388
Radial Grid Type                 RadialGrid  ... OptM3 with GC (2021)
Angular Grid (max. ang.)         AngularGrid ... 4 (Lebedev-302)
Angular grid pruning method      GridPruning ... 4 (adaptive)
Weight generation scheme         WeightScheme... mBecke (2022)
Basis function cutoff            BFCut       ... 1.0000e-11
Integration weight cutoff        WCut        ... 1.0000e-14
Partially contracted basis set               ... off
Rotationally invariant grid construction     ... off
Angular grids for H and He will be reduced by one unit

Total number of grid points                  ...   309805
Total number of batches                      ...     4876
Average number of points per batch           ...       63
Average number of grid points per atom       ...     4244

--------------------
COSX GRID GENERATION
--------------------

GRIDX 1
-------
General Integration Accuracy     IntAcc      ... 3.816
Radial Grid Type                 RadialGrid  ... OptM3 with GC (2021)
Angular Grid (max. ang.)         AngularGrid ... 1 (Lebedev-50)
Angular grid pruning method      GridPruning ... 4 (adaptive)
Weight generation scheme         WeightScheme... mBecke (2022)
Basis function cutoff            BFCut       ... 1.0000e-11
Integration weight cutoff        WCut        ... 1.0000e-14
Partially contracted basis set               ... on
Rotationally invariant grid construction     ... off
Angular grids for H and He will be reduced by one unit

Total number of grid points                  ...    39439
Total number of batches                      ...      353
Average number of points per batch           ...      111
Average number of grid points per atom       ...      540
UseSFitting                                  ... on

GRIDX 2
-------
General Integration Accuracy     IntAcc      ... 4.020
Radial Grid Type                 RadialGrid  ... OptM3 with GC (2021)
Angular Grid (max. ang.)         AngularGrid ... 2 (Lebedev-110)
Angular grid pruning method      GridPruning ... 4 (adaptive)
Weight generation scheme         WeightScheme... mBecke (2022)
Basis function cutoff            BFCut       ... 1.0000e-11
Integration weight cutoff        WCut        ... 1.0000e-14
Partially contracted basis set               ... on
Rotationally invariant grid construction     ... off
Angular grids for H and He will be reduced by one unit

Total number of grid points                  ...    81446
Total number of batches                      ...      676
Average number of points per batch           ...      120
Average number of grid points per atom       ...     1116
UseSFitting                                  ... on

GRIDX 3
-------
General Integration Accuracy     IntAcc      ... 4.338
Radial Grid Type                 RadialGrid  ... OptM3 with GC (2021)
Angular Grid (max. ang.)         AngularGrid ... 3 (Lebedev-194)
Angular grid pruning method      GridPruning ... 4 (adaptive)
Weight generation scheme         WeightScheme... mBecke (2022)
Basis function cutoff            BFCut       ... 1.0000e-11
Integration weight cutoff        WCut        ... 1.0000e-14
Partially contracted basis set               ... on
Rotationally invariant grid construction     ... off
Angular grids for H and He will be reduced by one unit

Total number of grid points                  ...   176265
Total number of batches                      ...     1417
Average number of points per batch           ...      124
Average number of grid points per atom       ...     2415
UseSFitting                                  ... on
Initializing property integral containers    ... done (  0.0 sec)

SHARK setup successfully completed in   3.8 seconds

Maximum memory used throughout the entire STARTUP-calculation: 85.4 MB


           ************************************************************
           *        Program running with 4 parallel MPI-processes     *
           *              working on a common directory               *
           ************************************************************
-------------------------------------------------------------------------------
                                 ORCA GUESS
                   Start orbitals & Density for SCF / CASSCF
-------------------------------------------------------------------------------

------------
SCF SETTINGS
------------
Hamiltonian:
 Density Functional     Method          .... DFT(GTOs)
 Exchange Functional    Exchange        .... PBE
   PBE kappa parameter   XKappa         ....  0.804000
   PBE mue parameter    XMuePBE         ....  0.219520
 Correlation Functional Correlation     .... PBE
   PBE beta parameter  CBetaPBE         ....  0.066725
 LDA part of GGA corr.  LDAOpt          .... PW91-LDA
 Gradients option       PostSCFGGA      .... off
 Hybrid DFT is turned on
   Fraction HF Exchange ScalHFX         ....  0.250000
   Scaling of DF-GGA-X  ScalDFX         ....  0.750000
   Scaling of DF-GGA-C  ScalDFC         ....  1.000000
   Scaling of DF-LDA-C  ScalLDAC        ....  1.000000
   Perturbative correction              ....  0.000000
   NL short-range parameter             ....  6.900000
 RI-approximation to the Coulomb term is turned on
   Number of AuxJ basis functions       .... 1905
   RIJ-COSX (HFX calculated with COS-X)).... on


General Settings:
 Integral files         IntName         .... inpJ
 Hartree-Fock type      HFTyp           .... RHF
 Total Charge           Charge          ....    0
 Multiplicity           Mult            ....    1
 Number of Electrons    NEL             ....  220
 Basis Dimension        Dim             ....  509
 Nuclear Repulsion      ENuc            ....   2778.4993587123 Eh

Convergence Acceleration:
 AO-DIIS                CNVDIIS         .... on
   Start iteration      DIISMaxIt       ....    12
   Startup error        DIISStart       ....  0.200000
   # of expansion vecs  DIISMaxEq       ....     5
   Bias factor          DIISBfac        ....   1.050
   Max. coefficient     DIISMaxC        ....  10.000
 MO-DIIS                CNVKDIIS        .... off
 Trust-Rad. Augm. Hess. CNVTRAH         .... auto
   Auto Start mean grad. ratio tolernc. ....  1.125000
   Auto Start start iteration           ....    50
   Auto Start num. interpolation iter.  ....    10
   Max. Number of Micro iterations      ....    24
   Max. Number of Macro iterations      .... Maxiter - #DIIS iter
   Number of Davidson start vectors     ....     2
   Converg. threshold    (grad. norm)   ....   1.000e-04
   Grad. Scal. Fac. for Micro threshold ....   0.100
   Minimum threshold for Micro iter.    ....   1.000e-02
   NR start threshold (gradient norm)   ....   1.000e-04
   Initial trust radius                 ....   0.400
   Minimum AH scaling param. (alpha)    ....   1.000
   Maximum AH scaling param. (alpha)    .... 1000.000
   Quad. conv. algorithm                .... NR
   White noise on init. David. guess    .... on
   Maximum white noise                  ....   0.010
   Pseudo random numbers                .... off
   Inactive MOs                         .... canonical
   Orbital update algorithm             .... Taylor
   Preconditioner                       .... Diag
   Full preconditioner red. dimension   ....   250
 SOSCF                  CNVSOSCF        .... off
 Level Shifting         CNVShift        .... on
   Level shift para.    LevelShift      ....    0.2500
   Turn off err/grad.   ShiftErr        ....    0.0010
 Zerner damping         CNVZerner       .... off
 Static damping         CNVDamp         .... on
   Fraction old density DampFac         ....    0.7000
   Max. Damping (<1)    DampMax         ....    0.9800
   Min. Damping (>=0)   DampMin         ....    0.0000
   Turn off err/grad.   DampErr         ....    0.1000

SCF Procedure:
 Maximum # iterations   MaxIter         ....   125
 SCF integral mode      SCFMode         .... Direct
   Integral package                     .... SHARK and LIBINT hybrid scheme
 Reset frequency        DirectResetFreq ....    20
 Integral Threshold     Thresh          ....  3.000e-11 Eh
 Primitive CutOff       TCut            ....  1.000e-12 Eh

Convergence Tolerance:
 Convergence Check Mode ConvCheckMode   .... Total+1el-Energy
 Convergence forced     ConvForced      .... 0
 Energy Change          TolE            ....  1.000e-07 Eh
 1-El. energy change                    ....  1.000e-04 Eh
 DIIS Error             TolErr          ....  1.000e-07

------------------------------
INITIAL GUESS: MODEL POTENTIAL
------------------------------
Loading Hartree-Fock densities                     ... done
Calculating cut-offs                               ... done
Initializing the effective Hamiltonian             ... done
Setting up the integral package (SHARK)            ... done
Starting the Coulomb interaction                   ... done (   0.3 sec)
Making the grid                                    ... done (   0.4 sec)
Mapping shells                                     ... done
Starting the XC term evaluation                    ... done (   0.1 sec)
  promolecular density results
     # of electrons  =    219.979327268
     EX              =   -164.434498087
     EC              =     -7.327465764
     EX+EC           =   -171.761963850
Transforming the Hamiltonian                       ... done (   0.0 sec)
Diagonalizing the Hamiltonian                      ... done (   0.0 sec)
Back transforming the eigenvectors                 ... done (   0.0 sec)
Now organizing SCF variables                       ... done
                      ------------------
                      INITIAL GUESS DONE (   1.0 sec)
                      ------------------
             **** ENERGY FILE WAS UPDATED (inpJ.en.tmp) ****
Finished Guess after   1.1 sec
Maximum memory used throughout the entire GUESS-calculation: 45.8 MB


           ************************************************************
           *        Program running with 4 parallel MPI-processes     *
           *              working on a common directory               *
           ************************************************************

-------------------------------------------------------------------------------------------
                                      ORCA LEAN-SCF
                              memory conserving SCF solver
-------------------------------------------------------------------------------------------

--------------------
CPCM SOLVATION MODEL
--------------------
CPCM parameters:
  Epsilon                                         ...       4.8030
  Refrac                                          ...       1.4459
  Rsolv                                           ...       1.3000
  Surface type                                    ... GAUSSIAN VDW
  Discretization scheme                           ... Constant charge density
    Threshold for H atoms                         ...       5.0000 (charges/Ang^2)
    Threshold for non-H atoms                     ...       5.0000 (charges/Ang^2)
  Epsilon function type                           ...         CPCM
Solvent:                                          ... CHLOROFORM
Radii:
  Scheme                                          ... Element-dependent radii
  Radius for C  used is    3.8550 Bohr (=   2.0400 Ang.)
  Radius for H  used is    2.4944 Bohr (=   1.3200 Ang.)
  Radius for O  used is    3.4469 Bohr (=   1.8240 Ang.)
Calculating surface                               ...        done! (  0.0s)
Cavity surface points                             ...         5371
Cavity Volume                                     ...    3602.7159
Cavity Surface-area                               ...    1788.4197
Calculating surface distance matrix               ...        done! (  0.2s)
Performing Cholesky decomposition & store         ...        done! (  1.0s)
Overall time for CPCM initialization              ...                 1.2s

----------------------------------------D-I-I-S--------------------------------------------
Iteration    Energy (Eh)           Delta-E    RMSDP     MaxDP     DIISErr   Damp  Time(sec)
-------------------------------------------------------------------------------------------
               ***  Starting incremental Fock matrix formation  ***
    1    -1165.0036688887353193     0.00e+00  1.50e-03  9.74e-02  1.94e-01  0.700   6.1

  HOMO= 109 E= -3.898 eV LUMO=  7.778 eV gap=  11.676 eV
    2    -1165.2217488228147886    -2.18e-01  1.11e-03  6.54e-02  9.43e-02  0.700   3.6

  HOMO= 109 E= -4.748 eV LUMO=  7.083 eV gap=  11.831 eV
                               ***Turning on AO-DIIS***
    3    -1165.3224617465416486    -1.01e-01  4.54e-04  2.22e-02  3.77e-02  0.700   3.5

  HOMO= 109 E= -5.753 eV LUMO=  6.139 eV gap=  11.892 eV
    4    -1165.3802700528653986    -5.78e-02  7.64e-04  3.20e-02  2.69e-02  0.000   3.5

  HOMO= 109 E= -5.918 eV LUMO=  5.977 eV gap=  11.895 eV
    5    -1165.5026337536046412    -1.22e-01  1.06e-04  6.27e-03  3.21e-03  0.000   3.9

  HOMO= 109 E= -5.966 eV LUMO=  5.933 eV gap=  11.899 eV
    6    -1165.5028531463917716    -2.19e-04  3.15e-05  1.96e-03  8.75e-04  0.000   3.5

  HOMO= 109 E= -5.931 eV LUMO=  5.973 eV gap=  11.904 eV
               *** Restarting incremental Fock matrix formation ***
                             ****Resetting DIIS****
    7    -1165.5029458775288731    -9.27e-05  1.54e-05  1.13e-03  3.07e-04  0.000   6.9

  HOMO= 109 E= -5.924 eV LUMO= -0.823 eV gap=   5.101 eV
    8    -1165.5029471365405698    -1.26e-06  7.19e-06  6.98e-04  4.64e-04  0.000   4.4

  HOMO= 109 E= -5.926 eV LUMO= -0.824 eV gap=   5.102 eV
    9    -1165.5029481560045497    -1.02e-06  2.70e-06  2.51e-04  2.05e-04  0.000   3.6

  HOMO= 109 E= -5.927 eV LUMO= -0.824 eV gap=   5.102 eV
   10    -1165.5029483413836715    -1.85e-07  8.93e-07  8.45e-05  5.55e-05  0.000   3.6

  HOMO= 109 E= -5.926 eV LUMO= -0.824 eV gap=   5.102 eV
   11    -1165.5029483521698239    -1.08e-08  2.78e-07  2.97e-05  1.43e-05  0.000   3.2
                 **** Energy Check signals convergence ****

  HOMO= 109 E= -5.926 eV LUMO= -0.824 eV gap=   5.103 eV

               *****************************************************
               *                     SUCCESS                       *
               *           SCF CONVERGED AFTER  11 CYCLES          *
               *****************************************************

Recomputing exchange energy using gridx3       ... done (    8.892 sec)
Old exchange energy                            :    -42.067653815 Eh
New exchange energy                            :    -42.067702289 Eh
Exchange energy change after final integration :     -0.000048474 Eh
Total energy after final integration           :  -1165.502996826 Eh
             **** ENERGY FILE WAS UPDATED (inpJ.en.tmp) ****

----------------
TOTAL SCF ENERGY
----------------

Total Energy       :      -1165.50299682595460 Eh          -31714.94890 eV

Components:
Nuclear Repulsion  :       2778.49935871225716 Eh           75606.81133 eV
Electronic Energy  :      -3943.98650895669016 Eh         -107321.32902 eV
One Electron Energy:      -7099.02950030228931 Eh         -193174.41350 eV
Two Electron Energy:       3155.04299134559915 Eh           85853.08448 eV
CPCM Dielectric    :         -0.01579810773690 Eh              -0.42989 eV

Virial components:
Potential Energy   :      -2322.40643381148084 Eh          -63195.89188 eV
Kinetic Energy     :       1156.90343698552624 Eh           31480.94298 eV
Virial Ratio       :          2.00743325636825

DFT components:
N(Alpha)           :      110.000224750347 electrons
N(Beta)            :      110.000224750347 electrons
N(Total)           :      220.000449500695 electrons
E(X)               :     -125.747042960206 Eh       
E(C)               :       -7.327198652214 Eh       
E(XC)              :     -133.074241612421 Eh       

CPCM Solvation Model Properties:
Surface-charge          :         -0.03304765619083
Corrected charge        :         -0.00000000000000
Outlying charge corr.   :          0.00003828691468 Eh               0.00104 eV
Free-energy (cav+disp)  :  This term is not implemented in the current solvation scheme

---------------
SCF CONVERGENCE
---------------

  Last Energy change         ...    1.0786e-08  Tolerance :   1.0000e-07
  Last MAX-Density change    ...    2.9671e-05  Tolerance :   1.0000e-05
  Last RMS-Density change    ...    2.7814e-07  Tolerance :   1.0000e-06
  Last DIIS Error            ...    1.4302e-05  Tolerance :   1.0000e-07


----------------
ORBITAL ENERGIES
----------------

  NO   OCC          E(Eh)            E(eV) 
   0   2.0000     -19.215222      -522.8728 
   1   2.0000     -10.301456      -280.3169 
   2   2.0000     -10.269639      -279.4511 
   3   2.0000     -10.266946      -279.3778 
   4   2.0000     -10.262087      -279.2456 
   5   2.0000     -10.256747      -279.1003 
   6   2.0000     -10.253561      -279.0136 
   7   2.0000     -10.252427      -278.9827 
   8   2.0000     -10.251691      -278.9627 
   9   2.0000     -10.249342      -278.8988 
  10   2.0000     -10.248924      -278.8874 
  11   2.0000     -10.246525      -278.8221 
  12   2.0000     -10.246191      -278.8130 
  13   2.0000     -10.245798      -278.8023 
  14   2.0000     -10.243982      -278.7529 
  15   2.0000     -10.243385      -278.7367 
  16   2.0000     -10.243028      -278.7270 
  17   2.0000     -10.242013      -278.6993 
  18   2.0000     -10.241212      -278.6776 
  19   2.0000     -10.240701      -278.6636 
  20   2.0000     -10.239212      -278.6231 
  21   2.0000     -10.235610      -278.5251 
  22   2.0000     -10.234968      -278.5076 
  23   2.0000     -10.233656      -278.4719 
  24   2.0000     -10.227432      -278.3026 
  25   2.0000     -10.224033      -278.2101 
  26   2.0000     -10.223189      -278.1871 
  27   2.0000     -10.222931      -278.1801 
  28   2.0000     -10.220720      -278.1199 
  29   2.0000      -1.045938       -28.4614 
  30   2.0000      -0.901267       -24.5247 
  31   2.0000      -0.883871       -24.0514 
  32   2.0000      -0.858470       -23.3602 
  33   2.0000      -0.845316       -23.0022 
  34   2.0000      -0.821794       -22.3621 
  35   2.0000      -0.814165       -22.1546 
  36   2.0000      -0.794977       -21.6324 
  37   2.0000      -0.794885       -21.6299 
  38   2.0000      -0.775765       -21.1097 
  39   2.0000      -0.758346       -20.6356 
  40   2.0000      -0.742428       -20.2025 
  41   2.0000      -0.734047       -19.9744 
  42   2.0000      -0.714435       -19.4408 
  43   2.0000      -0.703404       -19.1406 
  44   2.0000      -0.699433       -19.0325 
  45   2.0000      -0.694205       -18.8903 
  46   2.0000      -0.669369       -18.2145 
  47   2.0000      -0.659672       -17.9506 
  48   2.0000      -0.636364       -17.3163 
  49   2.0000      -0.622231       -16.9318 
  50   2.0000      -0.619627       -16.8609 
  51   2.0000      -0.610548       -16.6139 
  52   2.0000      -0.597875       -16.2690 
  53   2.0000      -0.585528       -15.9330 
  54   2.0000      -0.558446       -15.1961 
  55   2.0000      -0.541655       -14.7392 
  56   2.0000      -0.538399       -14.6506 
  57   2.0000      -0.529929       -14.4201 
  58   2.0000      -0.515200       -14.0193 
  59   2.0000      -0.508719       -13.8429 
  60   2.0000      -0.501363       -13.6428 
  61   2.0000      -0.491636       -13.3781 
  62   2.0000      -0.480434       -13.0733 
  63   2.0000      -0.476217       -12.9585 
  64   2.0000      -0.474747       -12.9185 
  65   2.0000      -0.471375       -12.8268 
  66   2.0000      -0.462953       -12.5976 
  67   2.0000      -0.459182       -12.4950 
  68   2.0000      -0.457102       -12.4384 
  69   2.0000      -0.451643       -12.2898 
  70   2.0000      -0.447421       -12.1750 
  71   2.0000      -0.441729       -12.0201 
  72   2.0000      -0.435112       -11.8400 
  73   2.0000      -0.431599       -11.7444 
  74   2.0000      -0.430704       -11.7201 
  75   2.0000      -0.426803       -11.6139 
  76   2.0000      -0.414796       -11.2872 
  77   2.0000      -0.414040       -11.2666 
  78   2.0000      -0.409033       -11.1304 
  79   2.0000      -0.402999       -10.9662 
  80   2.0000      -0.401075       -10.9138 
  81   2.0000      -0.398881       -10.8541 
  82   2.0000      -0.396209       -10.7814 
  83   2.0000      -0.390524       -10.6267 
  84   2.0000      -0.385505       -10.4901 
  85   2.0000      -0.381724       -10.3872 
  86   2.0000      -0.379100       -10.3158 
  87   2.0000      -0.371283       -10.1031 
  88   2.0000      -0.369884       -10.0650 
  89   2.0000      -0.367393        -9.9973 
  90   2.0000      -0.364474        -9.9178 
  91   2.0000      -0.360119        -9.7993 
  92   2.0000      -0.355644        -9.6776 
  93   2.0000      -0.343752        -9.3540 
  94   2.0000      -0.341633        -9.2963 
  95   2.0000      -0.340293        -9.2598 
  96   2.0000      -0.337969        -9.1966 
  97   2.0000      -0.333568        -9.0768 
  98   2.0000      -0.330400        -8.9906 
  99   2.0000      -0.326783        -8.8922 
 100   2.0000      -0.325540        -8.8584 
 101   2.0000      -0.322435        -8.7739 
 102   2.0000      -0.316613        -8.6155 
 103   2.0000      -0.313614        -8.5339 
 104   2.0000      -0.311035        -8.4637 
 105   2.0000      -0.299838        -8.1590 
 106   2.0000      -0.280182        -7.6241 
 107   2.0000      -0.274904        -7.4805 
 108   2.0000      -0.254024        -6.9123 
 109   2.0000      -0.217788        -5.9263 
 110   0.0000      -0.030274        -0.8238 
 111   0.0000       0.021149         0.5755 
 112   0.0000       0.031024         0.8442 
 113   0.0000       0.081980         2.2308 
 114   0.0000       0.093037         2.5317 
 115   0.0000       0.097990         2.6665 
 116   0.0000       0.101305         2.7566 
 117   0.0000       0.104608         2.8465 
 118   0.0000       0.108014         2.9392 
 119   0.0000       0.111800         3.0422 
 120   0.0000       0.118468         3.2237 
*Only the first 10 virtual orbitals were printed.

                    ********************************
                    * MULLIKEN POPULATION ANALYSIS *
                    ********************************

-----------------------
MULLIKEN ATOMIC CHARGES
-----------------------
   0 C :    0.108045
   1 C :   -0.499806
   2 C :   -0.054982
   3 H :    0.207281
   4 H :    0.222183
   5 C :    0.135645
   6 C :   -0.475731
   7 C :   -0.451740
   8 H :    0.214209
   9 H :    0.224112
  10 H :    0.229177
  11 H :    0.204679
  12 O :   -0.487270
  13 H :    0.233908
  14 C :   -0.283352
  15 C :   -0.516724
  16 H :    0.201276
  17 H :    0.196736
  18 C :   -0.260315
  19 H :    0.217830
  20 C :    0.151192
  21 H :    0.218780
  22 C :   -0.479985
  23 C :   -0.427376
  24 H :    0.211775
  25 H :    0.206677
  26 C :   -0.397009
  27 H :    0.208097
  28 H :    0.216922
  29 C :    0.001336
  30 H :    0.222342
  31 H :    0.194293
  32 C :   -0.228762
  33 H :    0.227521
  34 C :   -0.429405
  35 H :    0.343178
  36 C :   -0.434176
  37 H :    0.207811
  38 H :    0.199080
  39 C :   -0.184642
  40 H :    0.215548
  41 H :    0.205999
  42 H :    0.212192
  43 C :   -0.242027
  44 C :   -0.627497
  45 H :    0.208973
  46 H :    0.201296
  47 H :    0.205673
  48 H :    0.218042
  49 C :   -0.640359
  50 C :   -0.196202
  51 C :   -0.177375
  52 H :    0.227274
  53 H :    0.214749
  54 C :   -0.228356
  55 C :   -0.618524
  56 C :   -0.207777
  57 H :    0.223049
  58 H :    0.219682
  59 C :   -0.626919
  60 C :   -0.610258
  61 H :    0.205492
  62 H :    0.202099
  63 H :    0.203183
  64 H :    0.198722
  65 H :    0.205529
  66 H :    0.205862
  67 H :    0.205168
  68 H :    0.198730
  69 H :    0.198203
  70 H :    0.200479
  71 H :    0.215256
  72 H :    0.191285
Sum of atomic charges:   -0.0000000

--------------------------------
MULLIKEN REDUCED ORBITAL CHARGES
--------------------------------
  0 C s       :     3.355819  s :     3.355819
      pz      :     1.008175  p :     2.536136
      px      :     0.795170
      py      :     0.732791

  1 C s       :     3.383649  s :     3.383649
      pz      :     1.030847  p :     3.116157
      px      :     0.943582
      py      :     1.141728

  2 C s       :     3.306279  s :     3.306279
      pz      :     1.068277  p :     2.748703
      px      :     0.787927
      py      :     0.892499

  3 H s       :     0.792719  s :     0.792719

  4 H s       :     0.777817  s :     0.777817

  5 C s       :     3.345294  s :     3.345294
      pz      :     0.823511  p :     2.519061
      px      :     0.937220
      py      :     0.758329

  6 C s       :     3.368306  s :     3.368306
      pz      :     1.041859  p :     3.107426
      px      :     0.944625
      py      :     1.120942

  7 C s       :     3.340466  s :     3.340466
      pz      :     1.186053  p :     3.111275
      px      :     0.983858
      py      :     0.941363

  8 H s       :     0.785791  s :     0.785791

  9 H s       :     0.775888  s :     0.775888

 10 H s       :     0.770823  s :     0.770823

 11 H s       :     0.795321  s :     0.795321

 12 O s       :     3.685520  s :     3.685520
      pz      :     1.639570  p :     4.801749
      px      :     1.282133
      py      :     1.880046

 13 H s       :     0.766092  s :     0.766092

 14 C s       :     3.392365  s :     3.392365
      pz      :     1.010854  p :     2.890987
      px      :     0.811656
      py      :     1.068477

 15 C s       :     3.386884  s :     3.386884
      pz      :     0.991353  p :     3.129840
      px      :     1.009639
      py      :     1.128847

 16 H s       :     0.798724  s :     0.798724

 17 H s       :     0.803264  s :     0.803264

 18 C s       :     3.396936  s :     3.396936
      pz      :     1.032655  p :     2.863379
      px      :     0.761536
      py      :     1.069188

 19 H s       :     0.782170  s :     0.782170

 20 C s       :     3.350345  s :     3.350345
      pz      :     0.958447  p :     2.498463
      px      :     0.753397
      py      :     0.786619

 21 H s       :     0.781220  s :     0.781220

 22 C s       :     3.372440  s :     3.372440
      pz      :     1.092105  p :     3.107545
      px      :     1.128659
      py      :     0.886781

 23 C s       :     3.327101  s :     3.327101
      pz      :     1.081253  p :     3.100275
      px      :     0.899807
      py      :     1.119215

 24 H s       :     0.788225  s :     0.788225

 25 H s       :     0.793323  s :     0.793323

 26 C s       :     3.350007  s :     3.350007
      pz      :     1.179977  p :     3.047001
      px      :     0.951444
      py      :     0.915581

 27 H s       :     0.791903  s :     0.791903

 28 H s       :     0.783078  s :     0.783078

 29 C s       :     3.318319  s :     3.318319
      pz      :     0.867453  p :     2.680345
      px      :     0.905334
      py      :     0.907559

 30 H s       :     0.777658  s :     0.777658

 31 H s       :     0.805707  s :     0.805707

 32 C s       :     3.362428  s :     3.362428
      pz      :     1.063845  p :     2.866334
      px      :     0.868003
      py      :     0.934486

 33 H s       :     0.772479  s :     0.772479

 34 C s       :     3.344723  s :     3.344723
      pz      :     1.188104  p :     3.084682
      px      :     0.925527
      py      :     0.971050

 35 H s       :     0.656822  s :     0.656822

 36 C s       :     3.336021  s :     3.336021
      pz      :     1.161972  p :     3.098156
      px      :     0.960643
      py      :     0.975541

 37 H s       :     0.792189  s :     0.792189

 38 H s       :     0.800920  s :     0.800920

 39 C s       :     3.338685  s :     3.338685
      pz      :     1.046684  p :     2.845957
      px      :     0.863016
      py      :     0.936257

 40 H s       :     0.784452  s :     0.784452

 41 H s       :     0.794001  s :     0.794001

 42 H s       :     0.787808  s :     0.787808

 43 C s       :     3.347649  s :     3.347649
      pz      :     1.036943  p :     2.894378
      px      :     0.881950
      py      :     0.975485

 44 C s       :     3.365927  s :     3.365927
      pz      :     0.966269  p :     3.261569
      px      :     1.157714
      py      :     1.137586

 45 H s       :     0.791027  s :     0.791027

 46 H s       :     0.798704  s :     0.798704

 47 H s       :     0.794327  s :     0.794327

 48 H s       :     0.781958  s :     0.781958

 49 C s       :     3.352347  s :     3.352347
      pz      :     1.142250  p :     3.288012
      px      :     1.168109
      py      :     0.977653

 50 C s       :     3.355044  s :     3.355044
      pz      :     0.970302  p :     2.841158
      px      :     0.797318
      py      :     1.073538

 51 C s       :     3.353574  s :     3.353574
      pz      :     0.967455  p :     2.823801
      px      :     0.782906
      py      :     1.073441

 52 H s       :     0.772726  s :     0.772726

 53 H s       :     0.785251  s :     0.785251

 54 C s       :     3.339630  s :     3.339630
      pz      :     0.972153  p :     2.888726
      px      :     1.015862
      py      :     0.900711

 55 C s       :     3.343060  s :     3.343060
      pz      :     1.003424  p :     3.275464
      px      :     1.164045
      py      :     1.107996

 56 C s       :     3.319510  s :     3.319510
      pz      :     0.921911  p :     2.888267
      px      :     1.083749
      py      :     0.882607

 57 H s       :     0.776951  s :     0.776951

 58 H s       :     0.780318  s :     0.780318

 59 C s       :     3.348764  s :     3.348764
      pz      :     1.070565  p :     3.278156
      px      :     1.075489
      py      :     1.132102

 60 C s       :     3.344133  s :     3.344133
      pz      :     1.006999  p :     3.266125
      px      :     1.167248
      py      :     1.091877

 61 H s       :     0.794508  s :     0.794508

 62 H s       :     0.797901  s :     0.797901

 63 H s       :     0.796817  s :     0.796817

 64 H s       :     0.801278  s :     0.801278

 65 H s       :     0.794471  s :     0.794471

 66 H s       :     0.794138  s :     0.794138

 67 H s       :     0.794832  s :     0.794832

 68 H s       :     0.801270  s :     0.801270

 69 H s       :     0.801797  s :     0.801797

 70 H s       :     0.799521  s :     0.799521

 71 H s       :     0.784744  s :     0.784744

 72 H s       :     0.808715  s :     0.808715


------------------------
MULLIKEN OVERLAP CHARGES
------------------------
B(  0-C ,  1-C ) :   0.4960 B(  0-C ,  2-C ) :  -0.1307 B(  0-C ,  3-H ) :  -0.0877 
B(  0-C ,  4-H ) :  -0.0673 B(  0-C ,  5-C ) :   0.4212 B(  0-C ,  6-C ) :  -0.1565 
B(  0-C , 14-C ) :   0.9462 B(  0-C , 15-C ) :  -0.2028 B(  0-C , 18-C ) :  -0.1835 
B(  0-C , 19-H ) :  -0.0752 B(  1-C ,  2-C ) :   0.5268 B(  1-C ,  3-H ) :   0.7958 
B(  1-C ,  4-H ) :   0.8137 B(  1-C ,  5-C ) :  -0.1485 B(  1-C ,  7-C ) :  -0.1691 
[...]
        0.0000         3.0118        0.0000
        0.0000         0.0000        3.0118

 Diagonalized JT*J matrix:
 
 J[55,60](FC)             3.012            3.012            3.012  iso=      3.012
                ---------------  ---------------  ---------------  ---------------
 J[55,60](Total)          3.012            3.012            3.012  iso=      3.012



-----------------------------------------------------------
 NUCLEUS A = C   56 NUCLEUS B = C   59 
 ( 13C  gnA =  1.405  13C  gnB =  1.405) r(AB) =     1.5333
-----------------------------------------------------------

Fermi-contact contribution to J (Hz):
       25.8984         0.0000        0.0000
        0.0000        25.8984        0.0000
        0.0000         0.0000       25.8984

Total spin-spin coupling tensor J (Hz):
       25.8984         0.0000        0.0000
        0.0000        25.8984        0.0000
        0.0000         0.0000       25.8984

 Diagonalized JT*J matrix:
 
 J[56,59](FC)            25.898           25.898           25.898  iso=     25.898
                ---------------  ---------------  ---------------  ---------------
 J[56,59](Total)         25.898           25.898           25.898  iso=     25.898



-----------------------------------------------------------
 NUCLEUS A = C   56 NUCLEUS B = C   60 
 ( 13C  gnA =  1.405  13C  gnB =  1.405) r(AB) =     1.5330
-----------------------------------------------------------

Fermi-contact contribution to J (Hz):
       26.4705         0.0000        0.0000
        0.0000        26.4705        0.0000
        0.0000         0.0000       26.4705

Total spin-spin coupling tensor J (Hz):
       26.4705         0.0000        0.0000
        0.0000        26.4705        0.0000
        0.0000         0.0000       26.4705

 Diagonalized JT*J matrix:
 
 J[56,60](FC)            26.470           26.470           26.470  iso=     26.470
                ---------------  ---------------  ---------------  ---------------
 J[56,60](Total)         26.470           26.470           26.470  iso=     26.470



-----------------------------------------------------------
 NUCLEUS A = C   59 NUCLEUS B = C   60 
 ( 13C  gnA =  1.405  13C  gnB =  1.405) r(AB) =     2.5362
-----------------------------------------------------------

Fermi-contact contribution to J (Hz):
       -1.0603         0.0000        0.0000
        0.0000        -1.0603        0.0000
        0.0000         0.0000       -1.0603

Total spin-spin coupling tensor J (Hz):
       -1.0603         0.0000        0.0000
        0.0000        -1.0603        0.0000
        0.0000         0.0000       -1.0603

 Diagonalized JT*J matrix:
 
 J[59,60](FC)            -1.060           -1.060           -1.060  iso=     -1.060
                ---------------  ---------------  ---------------  ---------------
 J[59,60](Total)         -1.060           -1.060           -1.060  iso=     -1.060



-----------------------------------------------------------------------------
                SUMMARY OF ISOTROPIC COUPLING CONSTANTS J (Hz)                
-----------------------------------------------------------------------------
                  0 C        1 C        2 C        5 C        6 C        7 C  
      0 C        0.000     32.397     -2.391     42.159     -0.177      0.889
      1 C       32.397      0.000     25.297     -1.183      0.377     -0.379
      2 C       -2.391     25.297      0.000      2.004     -1.359     25.801
      5 C       42.159     -1.183      2.004      0.000     30.981     -2.897
      6 C       -0.177      0.377     -1.359     30.981      0.000     23.055
      7 C        0.889     -0.379     25.801     -2.897     23.055      0.000
     14 C       70.189     -0.374      3.569     -3.174      2.743     -0.706
     15 C       -3.284      2.724     -0.839     64.313     -0.908      2.826
     18 C       -2.641      4.228     -1.077      3.281     -1.015      0.208
     20 C        6.947     -1.152      1.259     -1.502      0.783     -0.148
     22 C       -0.937      0.333     -0.381      0.445     -0.237      0.046
     23 C        0.799     -0.271      0.294     -0.334      0.190      0.000
     26 C       -0.077      0.030      0.000      0.041      0.000      0.000
     29 C        1.122     -0.359      0.000     -0.485      0.257      0.000
     32 C       -1.150      0.557     -0.415      0.513     -0.278      0.058
     34 C        0.021     -0.015      0.016     -0.017      0.009     -0.002
     36 C       -0.013      0.000      0.000      0.015     -0.009      0.000
     39 C       -0.080      0.000      0.000      0.033      0.000      0.000
     43 C        0.000      0.000      0.000      0.000      0.000      0.000
     44 C        0.006     -0.002      0.003     -0.005      0.003     -0.001
     49 C        0.000      0.000      0.000      0.000      0.000      0.000
     50 C        0.000      0.000      0.000      0.000      0.000      0.000
     51 C        0.000      0.000      0.000      0.000      0.000      0.000
     54 C        0.000      0.000      0.000      0.000      0.000      0.000
     55 C        0.000      0.000      0.000      0.000      0.000      0.000
     56 C        0.000      0.000      0.000      0.000      0.000      0.000
     59 C        0.000      0.000      0.000      0.000      0.000      0.000
     60 C        0.000      0.000      0.000      0.000      0.000      0.000
                 14 C       15 C       18 C       20 C       22 C       23 C  
      0 C       70.189     -3.284     -2.641      6.947     -0.937      0.799
      1 C       -0.374      2.724      4.228     -1.152      0.333     -0.271
      2 C        3.569     -0.839     -1.077      1.259     -0.381      0.294
      5 C       -3.174     64.313      3.281     -1.502      0.445     -0.334
      6 C        2.743     -0.908     -1.015      0.783     -0.237      0.190
      7 C       -0.706      2.826      0.208     -0.148      0.046      0.000
     14 C        0.000      3.063     54.454     -2.772      3.897     -0.897
     15 C        3.063      0.000     -1.130      1.070     -0.276      0.238
     18 C       54.454     -1.130      0.000     70.039     -2.149      2.475
     20 C       -2.772      1.070     70.039      0.000     32.250     -2.866
     22 C        3.897     -0.276     -2.149     32.250      0.000     24.431
     23 C       -0.897      0.238      2.475     -2.866     24.431      0.000
     26 C        0.117     -0.021     -0.364      1.023     -1.915     25.450
     29 C       -1.152      0.341      2.390     -2.350      1.081     -2.185
     32 C        4.415     -0.337     -1.329     37.048     -0.195      1.525
     34 C        0.061      0.005      2.456     -1.321      1.626     -0.255
     36 C        0.012     -0.014     -0.156      3.488      0.072      0.171
     39 C        0.267     -0.024     -0.054      2.942     -0.337      2.542
     43 C        0.013      0.000      0.296      0.225     -0.005     -0.107
     44 C        0.005      0.002     -0.078      0.699     -0.133      0.622
     49 C       -0.002      0.000     -0.009     -0.030      0.144      0.054
     50 C        0.000      0.000      0.004      0.224     -0.008      0.117
     51 C        0.000      0.000      0.000      0.070     -0.003      0.002
     54 C        0.000      0.000      0.000      0.000      0.000      0.000
     55 C        0.000      0.000      0.000      0.000      0.000      0.000
     56 C        0.000      0.000      0.000      0.000      0.000      0.000
     59 C        0.000      0.000      0.000      0.000      0.000      0.000
     60 C        0.000      0.000      0.000      0.000      0.000      0.000
                 26 C       29 C       32 C       34 C       36 C       39 C  
      0 C       -0.077      1.122     -1.150      0.021     -0.013     -0.080
      1 C        0.030     -0.359      0.557     -0.015      0.000      0.000
      2 C        0.000      0.000     -0.415      0.016      0.000      0.000
      5 C        0.041     -0.485      0.513     -0.017      0.015      0.033
      6 C        0.000      0.257     -0.278      0.009     -0.009      0.000
      7 C        0.000      0.000      0.058     -0.002      0.000      0.000
     14 C        0.117     -1.152      4.415      0.061      0.012      0.267
     15 C       -0.021      0.341     -0.337      0.005     -0.014     -0.024
     18 C       -0.364      2.390     -1.329      2.456     -0.156     -0.054
     20 C        1.023     -2.350     37.048     -1.321      3.488      2.942
     22 C       -1.915      1.081     -0.195      1.626      0.072     -0.337
     23 C       25.450     -2.185      1.525     -0.255      0.171      2.542
     26 C        0.000     27.872     -0.927      2.303      3.036     -0.559
     29 C       27.872      0.000     23.301      0.875      0.719     28.112
     32 C       -0.927     23.301      0.000     28.062      1.240      3.387
     34 C        2.303      0.875     28.062      0.000     26.056      0.033
     36 C        3.036      0.719      1.240     26.056      0.000     26.422
     39 C       -0.559     28.112      3.387      0.033     26.422      0.000
     43 C       -0.021     -0.680      2.844      1.523     -0.016     27.920
     44 C       -0.591     27.206     -1.003      0.805      0.300     -1.253
     49 C        0.443      0.118     -0.001      0.060      3.287     -1.019
     50 C       -0.073      3.040      0.019      0.100      1.433     -2.672
     51 C       -0.017      0.184      0.153     -0.036      0.050      2.906
     54 C       -0.003      0.116     -0.032      0.018      0.007     -0.770
     55 C       -0.009      0.115      0.065     -0.009      0.013      1.330
     56 C        0.001     -0.003      0.001     -0.002     -0.001      0.031
     59 C        0.000      0.001      0.002      0.002      0.016     -0.009
     60 C        0.000     -0.002     -0.001      0.001      0.001     -0.037
                 43 C       44 C       49 C       50 C       51 C       54 C  
      0 C        0.000      0.006      0.000      0.000      0.000      0.000
      1 C        0.000     -0.002      0.000      0.000      0.000      0.000
      2 C        0.000      0.003      0.000      0.000      0.000      0.000
      5 C        0.000     -0.005      0.000      0.000      0.000      0.000
      6 C        0.000      0.003      0.000      0.000      0.000      0.000
      7 C        0.000     -0.001      0.000      0.000      0.000      0.000
     14 C        0.013      0.005     -0.002      0.000      0.000      0.000
     15 C        0.000      0.002      0.000      0.000      0.000      0.000
     18 C        0.296     -0.078     -0.009      0.004      0.000      0.000
     20 C        0.225      0.699     -0.030      0.224      0.070      0.000
     22 C       -0.005     -0.133      0.144     -0.008     -0.003      0.000
     23 C       -0.107      0.622      0.054      0.117      0.002      0.000
     26 C       -0.021     -0.591      0.443     -0.073     -0.017     -0.003
     29 C       -0.680     27.206      0.118      3.040      0.184      0.116
     32 C        2.844     -1.003     -0.001      0.019      0.153     -0.032
     34 C        1.523      0.805      0.060      0.100     -0.036      0.018
     36 C       -0.016      0.300      3.287      1.433      0.050      0.007
     39 C       27.920     -1.253     -1.019     -2.672      2.906     -0.770
     43 C        0.000      1.412     27.457     35.758     -1.527      3.402
     44 C        1.412      0.000     -0.021     -0.108      0.079      0.006
     49 C       27.457     -0.021      0.000     -1.947      3.352      0.030
     50 C       35.758     -0.108     -1.947      0.000     67.834     -1.868
     51 C       -1.527      0.079      3.352     67.834      0.000     35.838
     54 C        3.402      0.006      0.030     -1.868     35.838      0.000
     55 C       -0.813     -0.007      0.051      3.660     -2.225     26.023
     56 C       -0.187     -0.001      0.043      0.956     -2.001     27.483
     59 C        0.034     -0.000      0.043      0.141      0.550     -1.780
     60 C        0.044      0.000      0.027      0.238      0.410     -0.819
                 55 C       56 C       59 C       60 C  
      0 C        0.000      0.000      0.000      0.000
      1 C        0.000      0.000      0.000      0.000
      2 C        0.000      0.000      0.000      0.000
      5 C        0.000      0.000      0.000      0.000
      6 C        0.000      0.000      0.000      0.000
      7 C        0.000      0.000      0.000      0.000
     14 C        0.000      0.000      0.000      0.000
     15 C        0.000      0.000      0.000      0.000
     18 C        0.000      0.000      0.000      0.000
     20 C        0.000      0.000      0.000      0.000
     22 C        0.000      0.000      0.000      0.000
     23 C        0.000      0.000      0.000      0.000
     26 C       -0.009      0.001      0.000      0.000
     29 C        0.115     -0.003      0.001     -0.002
     32 C        0.065      0.001      0.002     -0.001
     34 C       -0.009     -0.002      0.002      0.001
     36 C        0.013     -0.001      0.016      0.001
     39 C        1.330      0.031     -0.009     -0.037
     43 C       -0.813     -0.187      0.034      0.044
     44 C       -0.007     -0.001     -0.000      0.000
     49 C        0.051      0.043      0.043      0.027
     50 C        3.660      0.956      0.141      0.238
     51 C       -2.225     -2.001      0.550      0.410
     54 C       26.023     27.483     -1.780     -0.819
     55 C        0.000     -0.555      0.894      3.012
     56 C       -0.555      0.000     25.898     26.470
     59 C        0.894     25.898      0.000     -1.060
     60 C        3.012     26.470     -1.060      0.000

NMR spin-spin coupling calculation done in   0.2 sec 

Maximum memory used throughout the entire PROP-calculation: 34.2 MB

--------------------------------
SUGGESTED CITATIONS FOR THIS RUN
--------------------------------

Below you find a list of papers that are relevant to this ORCA run
We neither can nor want to force you to cite these papers, but we appreciate if you do
You receive ORCA, which is the product of decades of hard work by many enthusiastic individuals, for free
The only thing we kindly ask in return is that you cite our papers,
We deeply appreciate it, if you show your appreciation for ORCA by not just citing the generic ORCA reference.

Please note that relegating all ORCA citations to the supporting information does *not* help us.
SI sections are not indexed - citations you put there will not count into any citation statistics
But we need these citations in order to attract the funding resources that allow us to do what we are doing

Therefore, if you are a happy ORCA user, please consider citing a few of the papers listed below in the main body of your paper

In addition to the list printed below, the program has created the file inpJ.bibtex that contains the list in bibtex format
You can import this file easily into all common literature databanks and citation aid programs


List of essential papers. We consider these as the minimum necessary citations

  1. Neese,F.
     Software update: the ORCA program system, version 5.0
     WIRES Comput. Molec. Sci., 2022 12(1)e1606
     doi.org/10.1002/wcms.1606

List of papers to cite with high priority. The work reported in these papers was absolutely
necessary for this run to complete.
Our perspective: the developers of density functionals and basis sets usually get cited in chemistry papers
Good! But without the algorithms to do something with them, the functionals or basis sets would not do anything.
Hence, in our opinion, the algorithm design and method developments papers are equally worthy of getting cited

  1. Neese,F.
     An improvement of the resolution of the identity approximation for the formation of the Coulomb matrix
     J. Comp. Chem., 2003 24(14)1740-1747
     doi.org/10.1002/jcc.10318
  2. Neese,F.; Wennmohs,F.; Hansen,A.; Becker,U.
     Efficient, approximate and parallel Hartree-Fock and hybrid DFT calculations. A 'chain-of-spheres' algorithm for the Hartree-Fock exchange
     Chem. Phys., 2009 356(1-3)98-109
     doi.org/10.1016/j.chemphys.2008.10.036
  3. Stoychev,G.L.; Auer,A.A.; Izsak,R.; Neese,F.
     Self-Consistent Field Calculation of Nuclear Magnetic Resonance Chemical Shielding Constants Using Gauge-Including Atomic Orbitals and Approximate Two-Electron Integrals
     J. Chem. Theory Comput., 2018 14(2)619-637
     doi.org/10.1021/acs.jctc.7b01006
  4. Garcia-Rates,M.; Neese,F.
     Effect of the Solute Cavity on the Solvation Energy and its Derivatives within the Framework of the Gaussian Charge Scheme
     J. Comput. Chem., 2020 41 922-939
     doi.org/10.1002/jcc.26139
  5. Helmich-Paris,B.; de Souza,B.; Neese,F.; Izsák,R.
     An improved chain of spheres for exchange algorithm
     J. Chem. Phys., 2021 155 104109
     doi.org/doi: 10.1063/5.0058766.
  6. Neese,F.
     The SHARK Integral Generation and Digestion System
     J. Comp. Chem., 2022  1-16
     doi.org/10.1002/jcc.26942
  7. Grimme,S.; Bannwarth,C.; Dohm,S.; Hansen,A.; Pisarek,J.; Pracht,P.; Seibert,J.; Neese,F.
     Fully Automated Quantum-Chemistry-Based Computation of Spin-Spin-Coupled Nuclear Magnetic Resonance Spectra
     Angew. Chem., Int. Ed., 2017 56 14763-14769
     doi.org/10.1002/anie.201708266
  8. Caldeweyher,E.; Bannwarth,C.; Grimme,S.
     Extension of the D3 dispersion coefficient model
     J. Chem. Phys., 2017 147 034112-XXXX
     doi.org/10.1063/1.4993215
  9. Caldeweyher,E.; Ehlert,S.; Hansen,A.; Neugebauer,H.; Spicher,S.; Bannwarth,C.; Grimme,S.
     A generally applicable atomic-charge dependent London dispersion correction
     J. Chem. Phys., 2019 150 154122-XXXX
     doi.org/10.1063/1.5090222
 10. Caldeweyher,E.; Mewes,J.; Ehlert,S.; Grimme,S.
     Extension and evaluation of the D4 London-dispersion model for periodic systems
     Phys. Chem. Chem. Phys., 2020 22(16)8499-8512
     doi.org/10.1039/D0CP00502A

List of suggested additional citations. These are papers that are important in the 'surrounding' of 
of this run, or papers that preceded the highly important papers. If you like your results we are grateful for a citation.

  1. Izsak,R.; Neese,F.
     An overlap fitted chain of spheres exchange method
     J. Chem. Phys., 2011 135 144105
     doi.org/10.1063/1.3646921
  2. Izsak,R.; Hansen,A.; Neese,F.
     The resolution of identity and chain of spheres approximations for the LPNO-CCSD singles Fock term
     Molec. Phys., 2012 110 2413-2417
     doi.org/10.1080/00268976.2012.687466
  3. Neese,F.
     The ORCA program system
     WIRES Comput. Molec. Sci., 2012 2(1)73-78
     doi.org/10.1002/wcms.81
  4. Izsak,R.; Neese,F.; Klopper,W.
     Robust fitting techniques in the chain of spheres approximation to the Fock exchange: The role of the complementary space
     J. Chem. Phys., 2013 139 
     doi.org/10.1063/1.4819264
  5. Neese,F.
     Software update: the ORCA program system, version 4.0
     WIRES Comput. Molec. Sci., 2018 8(1)1-6
     doi.org/10.1002/wcms.1327
  6. Neese,F.; Wennmohs,F.; Becker,U.; Riplinger,C.
     The ORCA quantum chemistry program package
     J. Chem. Phys., 2020 152 Art. No. L224108
     doi.org/10.1063/5.0004608

Timings for individual modules:

Sum of individual times          ...      153.612 sec (=   2.560 min)
Startup calculation              ...        3.950 sec (=   0.066 min)   2.6 %
SCF iterations                   ...       58.134 sec (=   0.969 min)  37.8 %
Property integrals               ...        0.789 sec (=   0.013 min)   0.5 %
SCF Response                     ...       90.278 sec (=   1.505 min)  58.8 %
Property calculations            ...        0.462 sec (=   0.008 min)   0.3 %
                             ****ORCA TERMINATED NORMALLY****
TOTAL RUN TIME: 0 days 0 hours 2 minutes 33 seconds 864 msec
