
                                 *****************
                                 * O   R   C   A *
                                 *****************

                                            #,                                       
                                            ###                                      
                                            ####                                     
                                            #####                                    
                                            ######                                   
                                           ########,                                 
                                     ,,################,,,,,                         
                               ,,#################################,,                 
                          ,,##########################################,,             
                       ,#########################################, ''#####,          
                    ,#############################################,,   '####,        
                  ,##################################################,,,,####,       
                ,###########''''           ''''###############################       
              ,#####''   ,,,,##########,,,,          '''####'''          '####       
            ,##' ,,,,###########################,,,                        '##       
           ' ,,###''''                  '''############,,,                           
         ,,##''                                '''############,,,,        ,,,,,,###''
      ,#''                                            '''#######################'''  
     '                                                          ''''####''''         
             ,#######,   #######,   ,#######,      ##                                
            ,#'     '#,  ##    ##  ,#'     '#,    #''#        ,####,   ,####,        
            ##       ##  ##   ,#'  ##            #'  '#       #'       #'  '#        
            ##       ##  #######   ##           ,######,      #####,   #    #        
            '#,     ,#'  ##    ##  '#,     ,#' ,#      #,     #,   #   #,  ,#        
             '#######'   ##     ##  '#######'  #'      '#     '####' # '####'        



                #########################################################
                #                        -***-                          #
                #          Department of theory and spectroscopy        #
                #                                                       #
                #                      Frank Neese                      #
                #                                                       #
                #     Directorship, Architecture, Infrastructure        #
                #                    SHARK, DRIVERS                     #
                #        Core code/Algorithms in most modules           #
                #                                                       #
                #        Max Planck Institute fuer Kohlenforschung      #
                #                Kaiser Wilhelm Platz 1                 #
                #                 D-45470 Muelheim/Ruhr                 #
                #                      Germany                          #
                #                                                       #
                #                  All rights reserved                  #
                #                        -***-                          #
                #########################################################


                         Program Version 6.0.0  -   RELEASE  -


 With contributions from (in alphabetic order):
   Daniel Aravena         : Magnetic Suceptibility
   Michael Atanasov       : Ab Initio Ligand Field Theory (pilot matlab implementation)
   Alexander A. Auer      : GIAO ZORA, VPT2 properties, NMR spectrum
   Ute Becker             : All parallelization in ORCA, NUMFREQ, NUMCALC
   Giovanni Bistoni       : ED, misc. LED, open-shell LED, HFLD
   Martin Brehm           : Molecular dynamics
   Dmytro Bykov           : pre 5.0 version of the SCF Hessian
   Marcos Casanova-Páez   : Triplet and SCS-CIS(D). UHF-(DLPNO)-IP/EA/STEOM-CCSD. UHF-CVS-IP/STEOM-CCSD
   Vijay G. Chilkuri      : MRCI spin determinant printing, contributions to CSF-ICE
   Pauline Colinet        : FMM embedding
   Dipayan Datta          : RHF DLPNO-CCSD density
   Achintya Kumar Dutta   : EOM-CC, STEOM-CC
   Nicolas Foglia         : Exact transition moments, OPA infrastructure, MCD improvements
   Dmitry Ganyushin       : Spin-Orbit,Spin-Spin,Magnetic field MRCI
   Miquel Garcia          : C-PCM and meta-GGA Hessian, CCSD/C-PCM, Gaussian charge scheme
   Tiago L. C. Gouveia    : GS-ROHF, GS-ROCIS
   Yang Guo               : DLPNO-NEVPT2, F12-NEVPT2, CIM, IAO-localization
   Andreas Hansen         : Spin unrestricted coupled pair/coupled cluster methods
   Ingolf Harden          : AUTO-CI MPn and infrastructure 
   Benjamin Helmich-Paris : MC-RPA, TRAH-(SCF,CASSCF), AVAS, COSX integrals, SCF dyn. polar.
   Lee Huntington         : MR-EOM, pCC
   Robert Izsak           : Overlap fitted RIJCOSX, COSX-SCS-MP3, EOM
   Riya Kayal             : Wick's Theorem for AUTO-CI, AUTO-CI UHF-CCSDT
   Emily Kempfer          : AUTO-CI, RHF CISDT and CCSDT
   Christian Kollmar      : KDIIS, OOCD, Brueckner-CCSD(T), CCSD density, CASPT2, CASPT2-K, improved NEVPT2
   Axel Koslowski         : Symmetry handling
   Simone Kossmann        : Meta GGA functionals, TD-DFT gradient, OOMP2, (MP2 Hessian; deprecated post 5.0)
   Lucas Lang             : DCDCAS
   Marvin Lechner         : AUTO-CI (C++ implementation), FIC-MRCC
   Spencer Leger          : CASSCF response
   Dagmar Lenk            : GEPOL surface, SMD, ORCA-2-JSON
   Dimitrios Liakos       : Extrapolation schemes; Compound Job, initial MDCI parallelization
   Dimitrios Manganas     : Further ROCIS development; embedding schemes. LFT, Crystal Embedding
   Dimitrios Pantazis     : SARC Basis sets
   Anastasios Papadopoulos: AUTO-CI, single reference methods and gradients
   Taras Petrenko         : pre 6.0 DFT Hessian and TD-DFT gradient, (ASA, deprecated), ECA, 1-Electron XAS/XES, NRVS
   Peter Pinski           : DLPNO-MP2, DLPNO-MP2 Gradient
   Christoph Reimann      : Effective Core Potentials
   Marius Retegan         : Local ZFS, SOC
   Christoph Riplinger    : Optimizer, TS searches, QM/MM, DLPNO-CCSD(T), (RO)-DLPNO pert. Triples
   Michael Roemelt        : Original ROCIS implementation
   Masaaki Saitow         : Open-shell DLPNO-CCSD energy and density
   Barbara Sandhoefer     : DKH picture change effects
   Kantharuban Sivalingam : CASSCF convergence/infrastructure, NEVPT2 and variants, FIC-MRCI
   Bernardo de Souza      : ESD, SOC TD-DFT
   Georgi Stoychev        : AutoAux, RI-MP2 NMR, DLPNO-MP2 response, X2C
   Van Anh Tran           : RI-MP2 g-tensors
   Willem Van den Heuvel  : Paramagnetic NMR
   Zikuan Wang            : NOTCH, Electric field optimization 
   Frank Wennmohs         : Technical directorship and infrastructure
   Hang Xu                : AUTO-CI-Response properties 


 We gratefully acknowledge several colleagues who have allowed us to
 interface, adapt or use parts of their codes:
   Stefan Grimme, W. Hujo, H. Kruse, P. Pracht,  : VdW corrections, initial TS optimization,
                  C. Bannwarth, S. Ehlert,         DFT functionals, gCP, sTDA/sTD-DF
                  L. Wittmann, M. Mueller
   Ed Valeev, F. Pavosevic, A. Kumar             : LibInt (2-el integral package), F12 methods
   Garnet Chan, S. Sharma, J. Yang, R. Olivares  : DMRG
   Ulf Ekstrom                                   : XCFun DFT Library
   Mihaly Kallay                                 : mrcc  (arbitrary order and MRCC methods)
   Frank Weinhold                                : gennbo (NPA and NBO analysis)
   Simon Mueller                                 : openCOSMO-RS
   Christopher J. Cramer and Donald G. Truhlar   : smd solvation model
   Lars Goerigk                                  : TD-DFT with DH, B97 family of functionals
   V. Asgeirsson, H. Jonsson                     : NEB implementation
   FAccTs GmbH                                   : IRC, NEB, NEB-TS, DLPNO-Multilevel, CI-OPT
                                                   MM, QMMM, 2- and 3-layer-ONIOM, Crystal-QMMM,
                                                   LR-CPCM, SF, NACMEs, symmetry and pop. for TD-DFT,
                                                   nearIR, NL-DFT gradient (VV10), updates on ESD,
                                                   ML-optimized integration grids, MBIS, APM,
                                                   GOAT, DOCKER, SOLVATOR, interface openCOSMO-RS
   S Lehtola, MJT Oliveira, MAL Marques          : LibXC Library
   Liviu Ungur et al                             : ANISO software


 Your calculation uses the libint2 library for the computation of 2-el integrals
 For citations please refer to: http://libint.valeyev.net

 Your ORCA version has been built with support for libXC version: 6.2.2
 For citations please refer to: https://libxc.gitlab.io

 This ORCA versions uses:
   CBLAS   interface :  Fast vector & matrix operations
   LAPACKE interface :  Fast linear algebra routines
   SCALAPACK package :  Parallel linear algebra routines
   Shared memory     :  Shared parallel matrices
   BLAS/LAPACK       :  OpenBLAS 0.3.27  USE64BITINT DYNAMIC_ARCH NO_AFFINITY Zen SINGLE_THREADED
        Core in use  :  Zen
   Copyright (c) 2011-2014, The OpenBLAS Project


NOTE: MaxCore=8000 MB was set to SCF,MP2,MDCI,CIPSI,MRCI and CIS
      => If you want to overwrite this, your respective input block should be placed after the MaxCore statement
Your calculation utilizes the atom-pairwise dispersion correction
based on EEQ partial charges (D4)


================================================================================

----- Orbital basis set information -----
Your calculation utilizes the basis: def2-SVP
   F. Weigend and R. Ahlrichs, Phys. Chem. Chem. Phys. 7, 3297 (2005).

----- AuxJ basis set information -----
Your calculation utilizes the auxiliary basis: def2/J
   F. Weigend, Phys. Chem. Chem. Phys. 8, 1057 (2006).

================================================================================
                                        WARNINGS
                       Please study these warnings very carefully!
================================================================================


================================================================================
                                       INPUT FILE
================================================================================
NAME = inpS
|  1> ! wb97x-d4
|  2> ! def2-svp
|  3> ! def2/J RIJCOSX
|  4> ! DEFGRID2
|  5> ! scfconv7
|  6> ! smallprint printgap noloewdin
|  7> ! NOSOSCF
|  8> %MaxCore 8000
|  9> %output
| 10>        print[P_BondOrder_M] 1
| 11>        print[P_Mayer] 1
| 12>        print[P_basis] 2
| 13> end
| 14> %pal
| 15>     nprocs 4
| 16> end
| 17> ! CPCM(chloroform)
| 18> *xyz 0 1
| 19> C   -5.0095770700   0.3309846800   0.3471688400
| 20> C   -6.4297861300  -0.0518076900   0.0037719100
| 21> C   -6.9669789800   0.7623106100  -1.1797209200
| 22> H   -7.0839694700   0.1572522800   0.8672987800
| 23> H   -6.4995994600  -1.1226700500  -0.2166485900
| 24> C   -4.7963368000   1.7849668400   0.5087910200
| 25> C   -5.3767746700   2.6292541600  -0.6030986200
| 26> C   -6.8356090100   2.2548400800  -0.8980187600
| 27> H   -4.7837203500   2.4580082600  -1.5143282300
| 28> H   -5.2931580900   3.6923791100  -0.3541564900
| 29> H   -7.2090479000   2.8271105600  -1.7553471000
| 30> H   -7.4637504000   2.5058727300  -0.0299541500
| 31> O   -8.3172388500   0.3953721000  -1.4919892200
| 32> H   -6.3899289300   0.5087080500  -2.0800187600
| 33> C   -4.0399326600  -0.6093097600   0.4419449600
| 34> C   -4.1839242700   2.3256199700   1.5682391500
| 35> H   -3.7955880500   1.7084492500   2.3736161500
| 36> H   -4.0675427400   3.4031213300   1.6570664100
| 37> C   -2.6329747900  -0.3721221700   0.6680790000
| 38> H   -4.3553840000  -1.6407808200   0.2913511600
| 39> C   -1.6794614400  -1.3130336100   0.8383472300
| 40> H   -2.3249858900   0.6707003000   0.6904788700
| 41> C   -1.9112187800  -2.8019548600   0.8827548200
| 42> C   -0.9982366600  -3.5505939700  -0.1058341300
| 43> H   -2.9561456300  -3.0661495000   0.6993088900
| 44> H   -1.6705256100  -3.1485961500   1.9005882000
| 45> C    0.4783805000  -3.1605159200   0.0421171400
| 46> H   -1.3351440100  -3.3458444900  -1.1299504700
| 47> H   -1.1094342200  -4.6308804400   0.0484938900
| 48> C    0.6809777700  -1.6419886100  -0.0591816600
| 49> H    1.0632488000  -3.6931771200  -0.7144741200
| 50> H    0.8445390500  -3.4948815000   1.0245897000
| 51> C   -0.2309127100  -0.9777873300   1.0213875200
| 52> H    0.0789560500  -1.4514644000   1.9713189400
| 53> C    0.2405089100   0.4716628200   1.0681827600
| 54> H   -8.8626459600   0.6107710000  -0.7235704400
| 55> C    1.7678979500   0.3641795600   0.8373058700
| 56> H   -0.0131409200   0.9577481800   2.0160553100
| 57> H   -0.2270306100   1.0577874000   0.2692436900
| 58> C    2.0648062800  -1.1036400400   0.4014897100
| 59> H    2.3320237900   0.6220456900   1.7393425600
| 60> H    2.0880720300   1.0643248400   0.0559852700
| 61> H    2.3436384200  -1.6825397700   1.2968595700
| 62> C    3.2635732000  -1.1895901500  -0.5744381900
| 63> C    0.3323787300  -1.1294312700  -1.4629822900
| 64> H   -0.7359212900  -1.2368306500  -1.6746157600
| 65> H    0.8850774300  -1.6874922600  -2.2265982800
| 66> H    0.5827672200  -0.0703862500  -1.5806286600
| 67> H    3.0059873100  -0.5717653200  -1.4513909500
| 68> C    3.5508348600  -2.6079454600  -1.0621906500
| 69> C    4.4589689400  -0.5307754900   0.0766810900
| 70> C    5.5958627800  -1.1322146400   0.4291153500
| 71> H    4.3308619200   0.5282211100   0.2787390500
| 72> H    5.6982524400  -2.1990855500   0.2190896800
| 73> C    6.8141119400  -0.5666881800   1.1198926100
| 74> C    7.0754866700  -1.3895770700   2.3954592100
| 75> C    6.8871735800   0.9515241300   1.4028613900
| 76> H    7.6614391100  -0.7761516800   0.4440390300
| 77> H    7.8844512700   1.0927208800   1.8487733600
| 78> C    5.8804161400   1.4683236600   2.4374925800
| 79> C    6.8687036300   1.7985175800   0.1252350900
| 80> H    7.2137158000  -2.4482952000   2.1512285600
| 81> H    6.2337673600  -1.3189986800   3.0924657900
| 82> H    7.9783209300  -1.0371278500   2.9073739100
| 83> H    6.0688837000   2.5287072100   2.6404811100
| 84> H    5.9667106300   0.9311434600   3.3871304800
| 85> H    4.8448352100   1.3772604300   2.0972304100
| 86> H    5.8851552500   1.8142035400  -0.3524188400
| 87> H    7.5884842100   1.4159458000  -0.6076113300
| 88> H    7.1409689300   2.8349156100   0.3549282100
| 89> H    4.4730881600  -2.6346289800  -1.6525228200
| 90> H    2.7422532300  -2.9747158100  -1.6973291600
| 91> H    3.6634234600  -3.3051216500  -0.2234394900
| 92> *
| 93> %eprnmr
| 94>  Nuclei = all C { shift }
| 95>  origin giao
| 96>  giao_2el giao_2el_same_as_scf
| 97>  giao_1el giao_1el_analytic
| 98> end
| 99> 
|100>                          ****END OF INPUT****
================================================================================

                       ****************************
                       * Single Point Calculation *
                       ****************************

---------------------------------
CARTESIAN COORDINATES (ANGSTROEM)
---------------------------------
  C     -5.009577    0.330985    0.347169
  C     -6.429786   -0.051808    0.003772
  C     -6.966979    0.762311   -1.179721
  H     -7.083969    0.157252    0.867299
  H     -6.499599   -1.122670   -0.216649
  C     -4.796337    1.784967    0.508791
  C     -5.376775    2.629254   -0.603099
  C     -6.835609    2.254840   -0.898019
  H     -4.783720    2.458008   -1.514328
  H     -5.293158    3.692379   -0.354156
  H     -7.209048    2.827111   -1.755347
  H     -7.463750    2.505873   -0.029954
  O     -8.317239    0.395372   -1.491989
  H     -6.389929    0.508708   -2.080019
  C     -4.039933   -0.609310    0.441945
  C     -4.183924    2.325620    1.568239
  H     -3.795588    1.708449    2.373616
  H     -4.067543    3.403121    1.657066
  C     -2.632975   -0.372122    0.668079
  H     -4.355384   -1.640781    0.291351
  C     -1.679461   -1.313034    0.838347
  H     -2.324986    0.670700    0.690479
  C     -1.911219   -2.801955    0.882755
  C     -0.998237   -3.550594   -0.105834
  H     -2.956146   -3.066149    0.699309
  H     -1.670526   -3.148596    1.900588
  C      0.478380   -3.160516    0.042117
  H     -1.335144   -3.345844   -1.129950
  H     -1.109434   -4.630880    0.048494
  C      0.680978   -1.641989   -0.059182
  H      1.063249   -3.693177   -0.714474
  H      0.844539   -3.494881    1.024590
  C     -0.230913   -0.977787    1.021388
  H      0.078956   -1.451464    1.971319
  C      0.240509    0.471663    1.068183
  H     -8.862646    0.610771   -0.723570
  C      1.767898    0.364180    0.837306
  H     -0.013141    0.957748    2.016055
  H     -0.227031    1.057787    0.269244
  C      2.064806   -1.103640    0.401490
  H      2.332024    0.622046    1.739343
  H      2.088072    1.064325    0.055985
  H      2.343638   -1.682540    1.296860
  C      3.263573   -1.189590   -0.574438
  C      0.332379   -1.129431   -1.462982
  H     -0.735921   -1.236831   -1.674616
  H      0.885077   -1.687492   -2.226598
  H      0.582767   -0.070386   -1.580629
  H      3.005987   -0.571765   -1.451391
  C      3.550835   -2.607945   -1.062191
  C      4.458969   -0.530775    0.076681
  C      5.595863   -1.132215    0.429115
  H      4.330862    0.528221    0.278739
  H      5.698252   -2.199086    0.219090
  C      6.814112   -0.566688    1.119893
  C      7.075487   -1.389577    2.395459
  C      6.887174    0.951524    1.402861
  H      7.661439   -0.776152    0.444039
  H      7.884451    1.092721    1.848773
  C      5.880416    1.468324    2.437493
  C      6.868704    1.798518    0.125235
  H      7.213716   -2.448295    2.151229
  H      6.233767   -1.318999    3.092466
  H      7.978321   -1.037128    2.907374
  H      6.068884    2.528707    2.640481
  H      5.966711    0.931143    3.387130
  H      4.844835    1.377260    2.097230
  H      5.885155    1.814204   -0.352419
  H      7.588484    1.415946   -0.607611
  H      7.140969    2.834916    0.354928
  H      4.473088   -2.634629   -1.652523
  H      2.742253   -2.974716   -1.697329
  H      3.663423   -3.305122   -0.223439

----------------------------
CARTESIAN COORDINATES (A.U.)
----------------------------
  NO LB      ZA    FRAG     MASS         X           Y           Z
   0 C     6.0000    0    12.011   -9.466729    0.625470    0.656054
   1 C     6.0000    0    12.011  -12.150535   -0.097902    0.007128
   2 C     6.0000    0    12.011  -13.165682    1.440558   -2.229349
   3 H     1.0000    0     1.008  -13.386762    0.297164    1.638957
   4 H     1.0000    0     1.008  -12.282463   -2.121539   -0.409407
   5 C     6.0000    0    12.011   -9.063763    3.373098    0.961476
   6 C     6.0000    0    12.011  -10.160632    4.968570   -1.139691
   7 C     6.0000    0    12.011  -12.917429    4.261030   -1.697010
   8 H     1.0000    0     1.008   -9.039921    4.644962   -2.861666
   9 H     1.0000    0     1.008  -10.002619    6.977585   -0.669259
  10 H     1.0000    0     1.008  -13.623126    5.342465   -3.317125
  11 H     1.0000    0     1.008  -14.104444    4.735413   -0.056605
  12 O     8.0000    0    15.999  -15.717304    0.747145   -2.819451
  13 H     1.0000    0     1.008  -12.075216    0.961319   -3.930666
  14 C     6.0000    0    12.011   -7.634366   -1.151429    0.835155
  15 C     6.0000    0    12.011   -7.906471    4.394785    2.963543
  16 H     1.0000    0     1.008   -7.172622    3.228501    4.485484
  17 H     1.0000    0     1.008   -7.686542    6.430967    3.131402
  18 C     6.0000    0    12.011   -4.975601   -0.703209    1.262486
  19 H     1.0000    0     1.008   -8.230483   -3.100626    0.550574
  20 C     6.0000    0    12.011   -3.173722   -2.481274    1.584247
  21 H     1.0000    0     1.008   -4.393587    1.267440    1.304816
  22 C     6.0000    0    12.011   -3.611680   -5.294927    1.668165
  23 C     6.0000    0    12.011   -1.886394   -6.709650   -0.199998
  24 H     1.0000    0     1.008   -5.586306   -5.794183    1.321502
  25 H     1.0000    0     1.008   -3.156836   -5.949984    3.591591
  26 C     6.0000    0    12.011    0.904008   -5.972510    0.079590
  27 H     1.0000    0     1.008   -2.523057   -6.322730   -2.135297
  28 H     1.0000    0     1.008   -2.096527   -8.751096    0.091640
  29 C     6.0000    0    12.011    1.286861   -3.102909   -0.111837
  30 H     1.0000    0     1.008    2.009249   -6.979093   -1.350160
  31 H     1.0000    0     1.008    1.595948   -6.604369    1.936194
  32 C     6.0000    0    12.011   -0.436362   -1.847750    1.930143
  33 H     1.0000    0     1.008    0.149205   -2.742870    3.725253
  34 C     6.0000    0    12.011    0.454496    0.891314    2.018573
  35 H     1.0000    0     1.008  -16.747974    1.154190   -1.367350
  36 C     6.0000    0    12.011    3.340843    0.688200    1.582279
  37 H     1.0000    0     1.008   -0.024833    1.809882    3.809792
  38 H     1.0000    0     1.008   -0.429026    1.998928    0.508797
  39 C     6.0000    0    12.011    3.901918   -2.085577    0.758706
  40 H     1.0000    0     1.008    4.406886    1.175496    3.286881
  41 H     1.0000    0     1.008    3.945884    2.011282    0.105797
  42 H     1.0000    0     1.008    4.428835   -3.179539    2.450709
  43 C     6.0000    0    12.011    6.167260   -2.248000   -1.085531
  44 C     6.0000    0    12.011    0.628105   -2.134316   -2.764636
  45 H     1.0000    0     1.008   -1.390690   -2.337271   -3.164565
  46 H     1.0000    0     1.008    1.672554   -3.188898   -4.207661
  47 H     1.0000    0     1.008    1.101270   -0.133011   -2.986955
  48 H     1.0000    0     1.008    5.680493   -1.080480   -2.742731
  49 C     6.0000    0    12.011    6.710105   -4.928303   -2.007249
  50 C     6.0000    0    12.011    8.426230   -1.003020    0.144906
  51 C     6.0000    0    12.011   10.574648   -2.139576    0.810910
  52 H     1.0000    0     1.008    8.184143    0.998193    0.526740
  53 H     1.0000    0     1.008   10.768137   -4.155669    0.414019
  54 C     6.0000    0    12.011   12.876805   -1.070885    2.116290
  55 C     6.0000    0    12.011   13.370732   -2.625920    4.526762
  56 C     6.0000    0    12.011   13.014872    1.798120    2.651024
  57 H     1.0000    0     1.008   14.478022   -1.466714    0.839112
  58 H     1.0000    0     1.008   14.899454    2.064943    3.493675
  59 C     6.0000    0    12.011   11.112376    2.774730    4.606193
  60 C     6.0000    0    12.011   12.979969    3.398706    0.236660
  61 H     1.0000    0     1.008   13.631947   -4.626607    4.065233
  62 H     1.0000    0     1.008   11.780113   -2.492546    5.843913
  63 H     1.0000    0     1.008   15.076842   -1.959888    5.494140
  64 H     1.0000    0     1.008   11.468528    4.778564    4.989786
  65 H     1.0000    0     1.008   11.275449    1.759606    6.400749
  66 H     1.0000    0     1.008    9.155412    2.602645    3.963191
  67 H     1.0000    0     1.008   11.121332    3.428348   -0.665975
  68 H     1.0000    0     1.008   14.340157    2.675750   -1.148219
  69 H     1.0000    0     1.008   13.494476    5.357214    0.670717
  70 H     1.0000    0     1.008    8.452912   -4.978727   -3.122816
  71 H     1.0000    0     1.008    5.182108   -5.621398   -3.207487
  72 H     1.0000    0     1.008    6.922867   -6.245775   -0.422239

--------------------------------
INTERNAL COORDINATES (ANGSTROEM)
--------------------------------
 C      0   0   0     0.000000000000     0.00000000     0.00000000
 C      1   0   0     1.510445372786     0.00000000     0.00000000
 C      2   1   0     1.533629695574   111.73170013     0.00000000
 H      2   1   3     1.103331576908   109.36224985   241.47915909
 H      2   1   3     1.095538813521   110.69430536   122.91029783
 C      1   2   3     1.478396855860   114.18722993    50.50918337
 C      6   1   2     1.511961564056   114.41959698   312.02197303
 C      3   2   1     1.524551866873   110.29902023   304.98934217
 H      7   6   1     1.100626179444   108.36741360   290.03691304
 H      7   6   1     1.095079255512   110.21977075   172.84076782
 H      8   3   2     1.096340270815   109.70474562   179.20464044
 H      8   3   2     1.100506776141   108.65574835   296.65565997
 O      3   2   1     1.433651658472   111.23033756   180.29629640
 H      3   2   1     1.099016478199   109.01101537    65.11397959
 C      1   2   3     1.354011236534   120.88145814   232.66867851
 C      6   1   2     1.337828559286   123.37077620   129.78672865
 H     16   6   1     1.086433076410   121.40621464     0.68545199
 H     16   6   1     1.087402466176   120.93937100   181.35847873
 C     15   1   2     1.444619328699   126.46950917   175.31700619
 H     15   1   2     1.089091634402   116.14263617   357.96573997
 C     19  15   1     1.350367844959   126.37306622   175.94030038
 H     19  15   1     1.087583385601   115.87806323   355.25858446
 C     21  19  15     1.507504556343   125.68662409   357.26229441
 C     23  21  19     1.539904211477   111.72228177   127.61514929
 H     23  21  19     1.093308437217   112.37444528     3.45742231
 H     23  21  19     1.101852156807   107.71902650   246.18643508
 C     24  23  21     1.534421291756   112.64722404    51.07319366
 H     24  23  21     1.097380148307   109.04990710   288.96463896
 H     24  23  21     1.096905142832   109.16976688   172.98454372
 C     27  24  23     1.535328073054   111.84276172   305.99943429
 H     27  24  23     1.094636568473   108.89444351   182.42489319
 H     27  24  23     1.100511133964   109.20953842    65.97329128
 C     21  19  15     1.498061160034   122.83706198   177.82661925
 H     33  21  19     1.105784028539   106.26410511   124.15086091
 C     33  21  19     1.524904546398   121.02377011     1.93916155
 H     13   3   2     0.966609033279   107.53200001    62.77586092
 C     35  33  21     1.548474755696   103.55539657   196.38959328
 H     35  33  21     1.095024924150   112.14125938    74.42493635
 H     35  33  21     1.095645409617   110.74377218   314.78531638
 C     30  27  24     1.554676377594   116.12897251   166.20818475
 H     37  35  33     1.094715988037   111.65967558   249.12231149
 H     37  35  33     1.096894130987   110.47600276   130.63538175
 H     40  30  27     1.102070526730   106.50194948   320.56417861
 C     40  30  27     1.548181131487   118.89489747    80.92765700
 C     30  27  24     1.534565908088   111.14524673   294.29007251
 H     45  30  27     1.094343769197   111.46223827    66.57204773
 H     45  30  27     1.095453012103   110.66535558   306.46068285
 H     45  30  27     1.094582760090   111.68608895   186.59392442
 H     44  40  30     1.103224435264   106.81020878    62.33038073
 C     44  40  30     1.527138994639   113.48734949   303.34673163
 C     44  40  30     1.512271155656   108.44928491   176.67753387
 C     51  44  40     1.333591602480   126.24129487   115.67277685
 H     51  44  40     1.085685325766   114.31771524   297.05267290
 H     52  51  44     1.092157480924   118.01168557     1.16530018
 C     52  51  44     1.510339172416   129.76485018   182.23715769
 C     55  52  51     1.540302900667   108.39654687   123.50080908
 C     55  52  51     1.546084716932   119.30849534   354.60876653
 H     55  52  51     1.103909576211   105.54898901   236.69124672
 H     57  55  52     1.101515682218   104.04878075   183.20194758
 C     57  55  52     1.533331013358   115.05175399    67.51880921
 C     57  55  52     1.532993152577   112.91996923   297.80597985
 H     56  55  52     1.095280777504   110.68075160    57.76042124
 H     56  55  52     1.095121398990   111.23646994   298.28063756
 H     56  55  52     1.096077923226   110.77853044   177.68027013
 H     60  57  55     1.095964250144   109.76528592   174.71138415
 H     60  57  55     1.094450294620   111.60965760    55.63787260
 H     60  57  55     1.093845838668   112.56007053   294.42026784
 H     61  57  55     1.093511198839   112.50760975    72.38859749
 H     61  57  55     1.096133716982   110.88261073   311.73721200
 H     61  57  55     1.095905196423   110.17185530   192.37835367
 H     50  44  40     1.095333387849   110.67964305   186.63890230
 H     50  44  40     1.091661883963   111.01046897    67.25608183
 H     50  44  40     1.096464473275   111.44093697   306.94370829

---------------------------
INTERNAL COORDINATES (A.U.)
---------------------------
 C      0   0   0     0.000000000000     0.00000000     0.00000000
 C      1   0   0     2.854328094814     0.00000000     0.00000000
 C      2   1   0     2.898140115485   111.73170013     0.00000000
 H      2   1   3     2.084994515263   109.36224985   241.47915909
 H      2   1   3     2.070268326635   110.69430536   122.91029783
 C      1   2   3     2.793765174825   114.18722993    50.50918337
 C      6   1   2     2.857193281081   114.41959698   312.02197303
 C      3   2   1     2.880985505348   110.29902023   304.98934217
 H      7   6   1     2.079882054974   108.36741360   290.03691304
 H      7   6   1     2.069399887856   110.21977075   172.84076782
 H      8   3   2     2.071782861430   109.70474562   179.20464044
 H      8   3   2     2.079656415431   108.65574835   296.65565997
 O      3   2   1     2.709209005953   111.23033756   180.29629640
 H      3   2   1     2.076840160462   109.01101537    65.11397959
 C      1   2   3     2.558710419302   120.88145814   232.66867851
 C      6   1   2     2.528129591188   123.37077620   129.78672865
 H     16   6   1     2.053060977249   121.40621464     0.68545199
 H     16   6   1     2.054892858424   120.93937100   181.35847873
 C     15   1   2     2.729934899011   126.46950917   175.31700619
 H     15   1   2     2.058084923764   116.14263617   357.96573997
 C     19  15   1     2.551825407025   126.37306622   175.94030038
 H     19  15   1     2.055234746589   115.87806323   355.25858446
 C     21  19  15     2.848770757127   125.68662409   357.26229441
 C     23  21  19     2.909997232163   111.72228177   127.61514929
 H     23  21  19     2.066053526245   112.37444528     3.45742231
 H     23  21  19     2.082198816435   107.71902650   246.18643508
 C     24  23  21     2.899636015476   112.64722404    51.07319366
 H     24  23  21     2.073747945103   109.04990710   288.96463896
 H     24  23  21     2.072850314843   109.16976688   172.98454372
 C     27  24  23     2.901349583794   111.84276172   305.99943429
 H     27  24  23     2.068563330590   108.89444351   182.42489319
 H     27  24  23     2.079664650524   109.20953842    65.97329128
 C     21  19  15     2.830925324328   122.83706198   177.82661925
 H     33  21  19     2.089628977202   106.26410511   124.15086091
 C     33  21  19     2.881651973064   121.02377011     1.93916155
 H     13   3   2     1.826626351472   107.53200001    62.77586092
 C     35  33  21     2.926193213556   103.55539657   196.38959328
 H     35  33  21     2.069297216461   112.14125938    74.42493635
 H     35  33  21     2.070469764064   110.74377218   314.78531638
 C     30  27  24     2.937912580529   116.12897251   166.20818475
 H     37  35  33     2.068713411814   111.65967558   249.12231149
 H     37  35  33     2.072829505472   110.47600276   130.63538175
 H     40  30  27     2.082611475786   106.50194948   320.56417861
 C     40  30  27     2.925638344216   118.89489747    80.92765700
 C     30  27  24     2.899909300738   111.14524673   294.29007251
 H     45  30  27     2.068010020146   111.46223827    66.57204773
 H     45  30  27     2.070106185453   110.66535558   306.46068285
 H     45  30  27     2.068461647481   111.68608895   186.59392442
 H     44  40  30     2.084792046899   106.81020878    62.33038073
 C     44  40  30     2.885874468300   113.48734949   303.34673163
 C     44  40  30     2.857778324418   108.44928491   176.67753387
 C     51  44  40     2.520122903184   126.24129487   115.67277685
 H     51  44  40     2.051647933315   114.31771524   297.05267290
 H     52  51  44     2.063878534060   118.01168557     1.16530018
 C     52  51  44     2.854127405199   129.76485018   182.23715769
 C     55  52  51     2.910750645545   108.39654687   123.50080908
 C     55  52  51     2.921676694842   119.30849534   354.60876653
 H     55  52  51     2.086086775653   105.54898901   236.69124672
 H     57  55  52     2.081562971611   104.04878075   183.20194758
 C     57  55  52     2.897575687894   115.05175399    67.51880921
 C     57  55  52     2.896937223547   112.91996923   297.80597985
 H     56  55  52     2.069780709232   110.68075160    57.76042124
 H     56  55  52     2.069479527487   111.23646994   298.28063756
 H     56  55  52     2.071287096335   110.77853044   177.68027013
 H     60  57  55     2.071072285341   109.76528592   174.71138415
 H     60  57  55     2.068211324020   111.60965760    55.63787260
 H     60  57  55     2.067069067812   112.56007053   294.42026784
 H     61  57  55     2.066436690182   112.50760975    72.38859749
 H     61  57  55     2.071392531253   110.88261073   311.73721200
 H     61  57  55     2.070960689981   110.17185530   192.37835367
 H     50  44  40     2.069880128375   110.67964305   186.63890230
 H     50  44  40     2.062941991531   111.01046897    67.25608183
 H     50  44  40     2.072017570064   111.44093697   306.94370829

---------------------
BASIS SET INFORMATION
---------------------
There are 3 groups of distinct atoms

 Group   1 Type C   : 7s4p1d contracted to 3s2p1d pattern {511/31/1}
 Group   2 Type H   : 4s1p contracted to 2s1p pattern {31/1}
 Group   3 Type O   : 7s4p1d contracted to 3s2p1d pattern {511/31/1}

Atom   0C    basis set group =>   1
Atom   1C    basis set group =>   1
Atom   2C    basis set group =>   1
Atom   3H    basis set group =>   2
Atom   4H    basis set group =>   2
Atom   5C    basis set group =>   1
Atom   6C    basis set group =>   1
Atom   7C    basis set group =>   1
Atom   8H    basis set group =>   2
Atom   9H    basis set group =>   2
Atom  10H    basis set group =>   2
Atom  11H    basis set group =>   2
Atom  12O    basis set group =>   3
Atom  13H    basis set group =>   2
Atom  14C    basis set group =>   1
Atom  15C    basis set group =>   1
Atom  16H    basis set group =>   2
Atom  17H    basis set group =>   2
Atom  18C    basis set group =>   1
Atom  19H    basis set group =>   2
Atom  20C    basis set group =>   1
Atom  21H    basis set group =>   2
Atom  22C    basis set group =>   1
Atom  23C    basis set group =>   1
Atom  24H    basis set group =>   2
Atom  25H    basis set group =>   2
Atom  26C    basis set group =>   1
Atom  27H    basis set group =>   2
Atom  28H    basis set group =>   2
Atom  29C    basis set group =>   1
Atom  30H    basis set group =>   2
Atom  31H    basis set group =>   2
Atom  32C    basis set group =>   1
Atom  33H    basis set group =>   2
Atom  34C    basis set group =>   1
Atom  35H    basis set group =>   2
Atom  36C    basis set group =>   1
Atom  37H    basis set group =>   2
Atom  38H    basis set group =>   2
Atom  39C    basis set group =>   1
Atom  40H    basis set group =>   2
Atom  41H    basis set group =>   2
Atom  42H    basis set group =>   2
Atom  43C    basis set group =>   1
Atom  44C    basis set group =>   1
Atom  45H    basis set group =>   2
Atom  46H    basis set group =>   2
Atom  47H    basis set group =>   2
Atom  48H    basis set group =>   2
Atom  49C    basis set group =>   1
Atom  50C    basis set group =>   1
Atom  51C    basis set group =>   1
Atom  52H    basis set group =>   2
Atom  53H    basis set group =>   2
Atom  54C    basis set group =>   1
Atom  55C    basis set group =>   1
Atom  56C    basis set group =>   1
Atom  57H    basis set group =>   2
Atom  58H    basis set group =>   2
Atom  59C    basis set group =>   1
Atom  60C    basis set group =>   1
Atom  61H    basis set group =>   2
Atom  62H    basis set group =>   2
Atom  63H    basis set group =>   2
Atom  64H    basis set group =>   2
Atom  65H    basis set group =>   2
Atom  66H    basis set group =>   2
Atom  67H    basis set group =>   2
Atom  68H    basis set group =>   2
Atom  69H    basis set group =>   2
Atom  70H    basis set group =>   2
Atom  71H    basis set group =>   2
Atom  72H    basis set group =>   2

-------------------------
BASIS SET IN INPUT FORMAT
-------------------------

 # Basis set for element : H 
 NewGTO H 
 S 3 
   1      13.0107010000      0.0334854848
   2       1.9622572000      0.2347218709
   3       0.4445379600      0.8137702853
 S 1 
   1       0.1219496200      1.0000000000
 P 1 
   1       0.8000000000      1.0000000000
  end;

 # Basis set for element : C 
 NewGTO C 
 S 5 
   1    1238.4016938000      0.0055173650
   2     186.2900499200      0.0410888285
   3      42.2511763460      0.1822538213
   4      11.6765579320      0.4682845944
   5       3.5930506482      0.4457581734
 S 1 
   1       0.4024514736      1.0000000000
 S 1 
   1       0.1309018267      1.0000000000
 P 3 
   1       9.4680970621      0.0568883320
   2       2.0103545142      0.3129405934
   3       0.5477100471      0.7606501651
 P 1 
   1       0.1526861379      1.0000000000
 D 1 
   1       0.8000000000      1.0000000000
  end;

 # Basis set for element : O 
 NewGTO O 
 S 5 
   1    2266.1767785000     -0.0053893504
   2     340.8701019100     -0.0402347214
   3      77.3631351670     -0.1800818421
   4      21.4796449400     -0.4682885766
   5       6.6589433124     -0.4469261716
 S 1 
   1       0.8097597567      1.0000000000
 S 1 
   1       0.2553077223      1.0000000000
 P 3 
   1      17.7215043170      0.0626302488
   2       3.8635505440      0.3333113849
   3       1.0480920883      0.7414863830
 P 1 
   1       0.2764154441      1.0000000000
 D 1 
   1       1.2000000000      1.0000000000
  end;

---------------------------------
AUXILIARY/J BASIS SET INFORMATION
---------------------------------
There are 3 groups of distinct atoms

 Group   1 Type C   : 12s5p4d2f1g contracted to 6s4p3d1f1g pattern {711111/2111/211/2/1}
 Group   2 Type H   : 5s2p1d contracted to 3s1p1d pattern {311/2/1}
 Group   3 Type O   : 12s5p4d2f1g contracted to 6s4p3d1f1g pattern {711111/2111/211/2/1}

Atom   0C    basis set group =>   1
Atom   1C    basis set group =>   1
Atom   2C    basis set group =>   1
Atom   3H    basis set group =>   2
Atom   4H    basis set group =>   2
Atom   5C    basis set group =>   1
Atom   6C    basis set group =>   1
Atom   7C    basis set group =>   1
Atom   8H    basis set group =>   2
Atom   9H    basis set group =>   2
Atom  10H    basis set group =>   2
Atom  11H    basis set group =>   2
Atom  12O    basis set group =>   3
Atom  13H    basis set group =>   2
Atom  14C    basis set group =>   1
Atom  15C    basis set group =>   1
Atom  16H    basis set group =>   2
Atom  17H    basis set group =>   2
Atom  18C    basis set group =>   1
Atom  19H    basis set group =>   2
Atom  20C    basis set group =>   1
Atom  21H    basis set group =>   2
Atom  22C    basis set group =>   1
Atom  23C    basis set group =>   1
Atom  24H    basis set group =>   2
Atom  25H    basis set group =>   2
Atom  26C    basis set group =>   1
Atom  27H    basis set group =>   2
Atom  28H    basis set group =>   2
Atom  29C    basis set group =>   1
Atom  30H    basis set group =>   2
Atom  31H    basis set group =>   2
Atom  32C    basis set group =>   1
Atom  33H    basis set group =>   2
Atom  34C    basis set group =>   1
Atom  35H    basis set group =>   2
Atom  36C    basis set group =>   1
Atom  37H    basis set group =>   2
Atom  38H    basis set group =>   2
Atom  39C    basis set group =>   1
Atom  40H    basis set group =>   2
Atom  41H    basis set group =>   2
Atom  42H    basis set group =>   2
Atom  43C    basis set group =>   1
Atom  44C    basis set group =>   1
Atom  45H    basis set group =>   2
Atom  46H    basis set group =>   2
Atom  47H    basis set group =>   2
Atom  48H    basis set group =>   2
Atom  49C    basis set group =>   1
Atom  50C    basis set group =>   1
Atom  51C    basis set group =>   1
Atom  52H    basis set group =>   2
Atom  53H    basis set group =>   2
Atom  54C    basis set group =>   1
Atom  55C    basis set group =>   1
Atom  56C    basis set group =>   1
Atom  57H    basis set group =>   2
Atom  58H    basis set group =>   2
Atom  59C    basis set group =>   1
Atom  60C    basis set group =>   1
Atom  61H    basis set group =>   2
Atom  62H    basis set group =>   2
Atom  63H    basis set group =>   2
Atom  64H    basis set group =>   2
Atom  65H    basis set group =>   2
Atom  66H    basis set group =>   2
Atom  67H    basis set group =>   2
Atom  68H    basis set group =>   2
Atom  69H    basis set group =>   2
Atom  70H    basis set group =>   2
Atom  71H    basis set group =>   2
Atom  72H    basis set group =>   2

-------------------------------------
AUXILIARY/J BASIS SET IN INPUT FORMAT
-------------------------------------

 # Auxiliary/J basis set for element : H 
 NewAuxJGTO H 
 S 3 
   1      15.6752927000      0.1007184237
   2       3.6063578000      0.3404257499
   3       1.2080016000      0.6491996172
 S 1 
   1       0.4726794000      1.0000000000
 S 1 
   1       0.2018100000      1.0000000000
 P 2 
   1       2.0281365000      0.5596620919
   2       0.5358730000      0.5596620919
 D 1 
   1       2.2165124000      1.0000000000
  end;

 # Auxiliary/J basis set for element : C 
 NewAuxJGTO C 
 S 7 
   1    1861.0916331000      0.0134602335
   2     642.9939764000      0.0299160374
   3     235.1105725000      0.1008649584
   4      90.7028894000      0.2370970548
   5      36.7794552000      0.3924037254
   6      15.6046273000      0.3195862154
   7       6.8907294000      0.0530104441
 S 1 
   1       3.1478850000     -1.0000000000
 S 1 
   1       1.4777287000      1.0000000000
 S 1 
   1       0.7076466000      1.0000000000
 S 1 
   1       0.3430122000      1.0000000000
 S 1 
   1       0.1669453000      1.0000000000
 P 2 
   1      13.5472892000     -0.6769313712
   2       5.4669419000     -0.3779500978
 P 1 
   1       2.1751721000      1.0000000000
 P 1 
   1       0.8582194000      1.0000000000
 P 1 
   1       0.3376720000      1.0000000000
 D 2 
   1       5.9287253000     -0.3533329857
   2       1.9809209000     -0.7456525731
 D 1 
   1       0.8055417000     -1.0000000000
 D 1 
   1       0.3531244000     -1.0000000000
 F 2 
   1       1.6755626000      0.6311076882
   2       0.5997536000      0.4968166032
 G 1 
   1       1.0024600000     -1.0000000000
  end;

 # Auxiliary/J basis set for element : O 
 NewAuxJGTO O 
 S 7 
   1    2876.8216605000      0.0168151159
   2    1004.7443032000      0.0340137548
   3     369.7579954000      0.1194951309
   4     142.9442404000      0.2664627624
   5      57.8366425000      0.4202764046
   6      24.3864983000      0.2765077335
   7      10.6622662000      0.0057008815
 S 1 
   1       4.8070437000     -1.0000000000
 S 1 
   1       2.2210770000      1.0000000000
 S 1 
   1       1.0447795000      1.0000000000
 S 1 
   1       0.4968425000      1.0000000000
 S 1 
   1       0.2371384000      1.0000000000
 P 2 
   1      64.2613382000     -0.2731534179
   2      16.3006076000     -0.8168011598
 P 1 
   1       4.3550542000      1.0000000000
 P 1 
   1       1.2019554000      1.0000000000
 P 1 
   1       0.3354196000      1.0000000000
 D 2 
   1       9.2146611000     -0.4661230638
   2       2.8435251000     -0.6600908911
 D 1 
   1       0.9955759000     -1.0000000000
 D 1 
   1       0.3649441000     -1.0000000000
 F 2 
   1       2.6420115000      0.5931563945
   2       0.7345613000      0.5931563945
 G 1 
   1       1.3931000000     -1.0000000000
  end;



           ************************************************************
           *        Program running with 4 parallel MPI-processes     *
           *              working on a common directory               *
           ************************************************************
------------------------------------------------------------------------------
                             ORCA STARTUP CALCULATIONS
                           -- RI-GTO INTEGRALS CHOSEN --
------------------------------------------------------------------------------
------------------------------------------------------------------------------
                   ___                                                        
                  /   \      - P O W E R E D   B Y -                         
                 /     \                                                     
                 |  |  |   _    _      __       _____    __    __             
                 |  |  |  | |  | |    /  \     |  _  \  |  |  /  |          
                  \  \/   | |  | |   /    \    | | | |  |  | /  /          
                 / \  \   | |__| |  /  /\  \   | |_| |  |  |/  /          
                |  |  |   |  __  | /  /__\  \  |    /   |      \           
                |  |  |   | |  | | |   __   |  |    \   |  |\   \          
                \     /   | |  | | |  |  |  |  | |\  \  |  | \   \       
                 \___/    |_|  |_| |__|  |__|  |_| \__\ |__|  \__/        
                                                                              
                      - O R C A' S   B I G   F R I E N D -                    
                                      &                                       
                       - I N T E G R A L  F E E D E R -                       
                                                                              
 v1 FN, 2020, v2 2021, v3 2022-2024                                           
------------------------------------------------------------------------------


----------------------
SHARK INTEGRAL PACKAGE
----------------------

Number of atoms                             ...     73
Number of basis functions                   ...    626
Number of shells                            ...    306
Maximum angular momentum                    ...      2
Integral batch strategy                     ... SHARK/LIBINT Hybrid
RI-J (if used) integral strategy            ... SPLIT-RIJ (Revised 2003 algorithm where possible)
Printlevel                                  ...      1
Contraction scheme used                     ... SEGMENTED contraction
Prescreening option                         ... SCHWARTZ
   Thresh                                   ... 3.000e-11
   Tcut                                     ... 1.000e-12
   Tpresel                                  ... 1.000e-12 
Coulomb Range Separation                    ... NOT USED
Exchange Range Separation                   ... Long Range
   Mu parameter                             ... 3.000e-01
   Scaling (regular/separated)              ... 1.670e-01 8.330e-01
Multipole approximations                    ... NOT USED
Finite Nucleus Model                        ... NOT USED
CABS basis                                  ... NOT available
Auxiliary Coulomb fitting basis             ... AVAILABLE
   # of basis functions in Aux-J            ...   1905
   # of shells in Aux-J                     ...    655
   Maximum angular momentum in Aux-J        ...      4
Auxiliary J/K fitting basis                 ... NOT available
Auxiliary Correlation fitting basis         ... NOT available
Auxiliary 'external' fitting basis          ... NOT available

Checking pre-screening integrals            ... done (  0.0 sec) Dimension = 306
Check shell pair data                       ... done (  0.0 sec)
Shell pair information
Shell pair cut-off parameter TPreSel        ...   1.0e-12
Total number of shell pairs                 ...     46971
Shell pairs after pre-screening             ...     27684
Total number of primitive shell pairs       ...    162105
Primitive shell pairs kept                  ...     61094
          la=0 lb=0:   9711 shell pairs
          la=1 lb=0:  10624 shell pairs
          la=1 lb=1:   2924 shell pairs
          la=2 lb=0:   2758 shell pairs
          la=2 lb=1:   1472 shell pairs
          la=2 lb=2:    195 shell pairs

Calculating one electron integrals          ... done (  0.1 sec)
Calculating RI/J V-Matrix + Cholesky decomp.... done (  0.2 sec)
Calculating Nuclear repulsion               ... done (  0.0 sec) ENN=   2778.499358712257 Eh

Diagonalization of the overlap matrix:
Smallest eigenvalue                        ... 4.394e-04
Time for diagonalization                   ...    0.043 sec
Threshold for overlap eigenvalues          ... 1.000e-07
Number of eigenvalues below threshold      ... 0
Time for construction of square roots      ...    0.024 sec
Total time needed                          ...    0.070 sec

-------------------
DFT GRID GENERATION
-------------------

General Integration Accuracy     IntAcc      ... 4.388
Radial Grid Type                 RadialGrid  ... OptM3 with GC (2021)
Angular Grid (max. ang.)         AngularGrid ... 4 (Lebedev-302)
Angular grid pruning method      GridPruning ... 4 (adaptive)
Weight generation scheme         WeightScheme... mBecke (2022)
Basis function cutoff            BFCut       ... 1.0000e-11
Integration weight cutoff        WCut        ... 1.0000e-14
Partially contracted basis set               ... off
Rotationally invariant grid construction     ... off
Angular grids for H and He will be reduced by one unit

Total number of grid points                  ...   309805
Total number of batches                      ...     4876
Average number of points per batch           ...       63
Average number of grid points per atom       ...     4244

--------------------
COSX GRID GENERATION
--------------------

GRIDX 1
-------
General Integration Accuracy     IntAcc      ... 3.816
Radial Grid Type                 RadialGrid  ... OptM3 with GC (2021)
Angular Grid (max. ang.)         AngularGrid ... 1 (Lebedev-50)
Angular grid pruning method      GridPruning ... 4 (adaptive)
Weight generation scheme         WeightScheme... mBecke (2022)
Basis function cutoff            BFCut       ... 1.0000e-11
Integration weight cutoff        WCut        ... 1.0000e-14
Partially contracted basis set               ... on
Rotationally invariant grid construction     ... off
Angular grids for H and He will be reduced by one unit

Total number of grid points                  ...    39439
Total number of batches                      ...      353
Average number of points per batch           ...      111
Average number of grid points per atom       ...      540
UseSFitting                                  ... on

GRIDX 2
-------
General Integration Accuracy     IntAcc      ... 4.020
Radial Grid Type                 RadialGrid  ... OptM3 with GC (2021)
Angular Grid (max. ang.)         AngularGrid ... 2 (Lebedev-110)
Angular grid pruning method      GridPruning ... 4 (adaptive)
Weight generation scheme         WeightScheme... mBecke (2022)
Basis function cutoff            BFCut       ... 1.0000e-11
Integration weight cutoff        WCut        ... 1.0000e-14
Partially contracted basis set               ... on
Rotationally invariant grid construction     ... off
Angular grids for H and He will be reduced by one unit

Total number of grid points                  ...    81446
Total number of batches                      ...      676
Average number of points per batch           ...      120
Average number of grid points per atom       ...     1116
UseSFitting                                  ... on

GRIDX 3
-------
General Integration Accuracy     IntAcc      ... 4.338
Radial Grid Type                 RadialGrid  ... OptM3 with GC (2021)
Angular Grid (max. ang.)         AngularGrid ... 3 (Lebedev-194)
Angular grid pruning method      GridPruning ... 4 (adaptive)
Weight generation scheme         WeightScheme... mBecke (2022)
Basis function cutoff            BFCut       ... 1.0000e-11
Integration weight cutoff        WCut        ... 1.0000e-14
Partially contracted basis set               ... on
Rotationally invariant grid construction     ... off
Angular grids for H and He will be reduced by one unit

Total number of grid points                  ...   176265
Total number of batches                      ...     1417
Average number of points per batch           ...      124
Average number of grid points per atom       ...     2415
UseSFitting                                  ... on
Initializing property integral containers    ... done (  0.0 sec)

SHARK setup successfully completed in   4.5 seconds

Maximum memory used throughout the entire STARTUP-calculation: 95.6 MB


           ************************************************************
           *        Program running with 4 parallel MPI-processes     *
           *              working on a common directory               *
           ************************************************************
-------------------------------------------------------------------------------
                                 ORCA GUESS
                   Start orbitals & Density for SCF / CASSCF
-------------------------------------------------------------------------------

------------
SCF SETTINGS
------------
Hamiltonian:
 Density Functional     Method          .... DFT(GTOs)
 Exchange Functional    Exchange        .... WB97X-V
 Correlation Functional Correlation     .... WB97X-V
 Gradients option       PostSCFGGA      .... off
 Hybrid DFT is turned on
   Fraction HF Exchange ScalHFX         ....  0.167000
   Scaling of DF-GGA-X  ScalDFX         ....  0.000000
   Scaling of DF-GGA-C  ScalDFC         ....  1.000000
   Scaling of DF-LDA-C  ScalLDAC        ....  1.000000
   Perturbative correction              ....  0.000000
 Long-range corrected/Screened/Range-Separated Hybrid DFT is turned on
   Amount of maximum screened exact exchange              ....  0.833000
   Range separation parameter mu (erf(mu*r12)/r12)        ....  0.300000
 RI-approximation to the Coulomb term is turned on
   Number of AuxJ basis functions       .... 1905
   RIJ-COSX (HFX calculated with COS-X)).... on


General Settings:
 Integral files         IntName         .... inpS
 Hartree-Fock type      HFTyp           .... RHF
 Total Charge           Charge          ....    0
 Multiplicity           Mult            ....    1
 Number of Electrons    NEL             ....  220
 Basis Dimension        Dim             ....  626
 Nuclear Repulsion      ENuc            ....   2778.4993587123 Eh

Convergence Acceleration:
 AO-DIIS                CNVDIIS         .... on
   Start iteration      DIISMaxIt       ....    12
   Startup error        DIISStart       ....  0.200000
   # of expansion vecs  DIISMaxEq       ....     5
   Bias factor          DIISBfac        ....   1.050
   Max. coefficient     DIISMaxC        ....  10.000
 MO-DIIS                CNVKDIIS        .... off
 Trust-Rad. Augm. Hess. CNVTRAH         .... auto
   Auto Start mean grad. ratio tolernc. ....  1.125000
   Auto Start start iteration           ....    50
   Auto Start num. interpolation iter.  ....    10
   Max. Number of Micro iterations      ....    24
   Max. Number of Macro iterations      .... Maxiter - #DIIS iter
   Number of Davidson start vectors     ....     2
   Converg. threshold    (grad. norm)   ....   1.000e-04
   Grad. Scal. Fac. for Micro threshold ....   0.100
   Minimum threshold for Micro iter.    ....   1.000e-02
   NR start threshold (gradient norm)   ....   1.000e-04
   Initial trust radius                 ....   0.400
   Minimum AH scaling param. (alpha)    ....   1.000
   Maximum AH scaling param. (alpha)    .... 1000.000
   Quad. conv. algorithm                .... NR
   White noise on init. David. guess    .... on
   Maximum white noise                  ....   0.010
   Pseudo random numbers                .... off
   Inactive MOs                         .... canonical
   Orbital update algorithm             .... Taylor
   Preconditioner                       .... Diag
   Full preconditioner red. dimension   ....   250
 SOSCF                  CNVSOSCF        .... off
 Level Shifting         CNVShift        .... on
   Level shift para.    LevelShift      ....    0.2500
   Turn off err/grad.   ShiftErr        ....    0.0010
 Zerner damping         CNVZerner       .... off
 Static damping         CNVDamp         .... on
   Fraction old density DampFac         ....    0.7000
   Max. Damping (<1)    DampMax         ....    0.9800
   Min. Damping (>=0)   DampMin         ....    0.0000
   Turn off err/grad.   DampErr         ....    0.1000

SCF Procedure:
 Maximum # iterations   MaxIter         ....   125
 SCF integral mode      SCFMode         .... Direct
   Integral package                     .... SHARK and LIBINT hybrid scheme
 Reset frequency        DirectResetFreq ....    20
 Integral Threshold     Thresh          ....  3.000e-11 Eh
 Primitive CutOff       TCut            ....  1.000e-12 Eh

Convergence Tolerance:
 Convergence Check Mode ConvCheckMode   .... Total+1el-Energy
 Convergence forced     ConvForced      .... 0
 Energy Change          TolE            ....  1.000e-07 Eh
 1-El. energy change                    ....  1.000e-04 Eh
 DIIS Error             TolErr          ....  1.000e-07

------------------------------
INITIAL GUESS: MODEL POTENTIAL
------------------------------
Loading Hartree-Fock densities                     ... done
Calculating cut-offs                               ... done
Initializing the effective Hamiltonian             ... done
Setting up the integral package (SHARK)            ... done
Starting the Coulomb interaction                   ... done (   0.6 sec)
Making the grid                                    ... done (   0.5 sec)
Mapping shells                                     ... done
Starting the XC term evaluation                    ... done (   0.3 sec)
  promolecular density results
     # of electrons  =    219.979327268
     EX              =   -109.116800470
     EC              =     -8.883333299
     EX+EC           =   -118.000133769
Transforming the Hamiltonian                       ... done (   0.0 sec)
Diagonalizing the Hamiltonian                      ... done (   0.1 sec)
Back transforming the eigenvectors                 ... done (   0.0 sec)
Now organizing SCF variables                       ... done
                      ------------------
                      INITIAL GUESS DONE (   1.5 sec)
                      ------------------
             **** ENERGY FILE WAS UPDATED (inpS.en.tmp) ****
Finished Guess after   1.6 sec
Maximum memory used throughout the entire GUESS-calculation: 56.6 MB


           ************************************************************
           *        Program running with 4 parallel MPI-processes     *
           *              working on a common directory               *
           ************************************************************

-------------------------------------------------------------------------------------------
                                      ORCA LEAN-SCF
                              memory conserving SCF solver
-------------------------------------------------------------------------------------------

--------------------
CPCM SOLVATION MODEL
--------------------
CPCM parameters:
  Epsilon                                         ...       4.8030
  Refrac                                          ...       1.4459
  Rsolv                                           ...       1.3000
  Surface type                                    ... GAUSSIAN VDW
  Discretization scheme                           ... Constant charge density
    Threshold for H atoms                         ...       5.0000 (charges/Ang^2)
    Threshold for non-H atoms                     ...       5.0000 (charges/Ang^2)
  Epsilon function type                           ...         CPCM
Solvent:                                          ... CHLOROFORM
Radii:
  Scheme                                          ... Element-dependent radii
  Radius for C  used is    3.8550 Bohr (=   2.0400 Ang.)
  Radius for H  used is    2.4944 Bohr (=   1.3200 Ang.)
  Radius for O  used is    3.4469 Bohr (=   1.8240 Ang.)
Calculating surface                               ...        done! (  0.0s)
Cavity surface points                             ...         5371
Cavity Volume                                     ...    3602.7159
Cavity Surface-area                               ...    1788.4197
Calculating surface distance matrix               ...        done! (  0.2s)
Performing Cholesky decomposition & store         ...        done! (  1.0s)
Overall time for CPCM initialization              ...                 1.2s

----------------------------------------D-I-I-S--------------------------------------------
Iteration    Energy (Eh)           Delta-E    RMSDP     MaxDP     DIISErr   Damp  Time(sec)
-------------------------------------------------------------------------------------------
               ***  Starting incremental Fock matrix formation  ***
    1    -1168.2230626775663040     0.00e+00  7.44e-04  5.87e-02  5.73e-02  0.700  24.3

  HOMO= 109 E= -7.297 eV LUMO=  8.316 eV gap=  15.613 eV
    2    -1168.2659052617918860    -4.28e-02  6.28e-04  4.71e-02  3.92e-02  0.700  10.9

  HOMO= 109 E= -7.472 eV LUMO=  8.226 eV gap=  15.698 eV
                               ***Turning on AO-DIIS***
    3    -1168.2932655512781821    -2.74e-02  4.98e-04  3.77e-02  2.70e-02  0.700  11.0

  HOMO= 109 E= -7.816 eV LUMO=  8.022 eV gap=  15.838 eV
    4    -1168.3116013617359386    -1.83e-02  1.30e-03  9.52e-02  1.91e-02  0.000  10.9

  HOMO= 109 E= -7.860 eV LUMO=  8.023 eV gap=  15.883 eV
    5    -1168.3559665129009772    -4.44e-02  1.33e-04  5.99e-03  3.50e-03  0.000  11.7

  HOMO= 109 E= -7.867 eV LUMO=  8.066 eV gap=  15.934 eV
    6    -1168.3563276556260462    -3.61e-04  5.17e-05  2.51e-03  2.04e-03  0.000  10.0

  HOMO= 109 E= -7.868 eV LUMO=  8.086 eV gap=  15.953 eV
    7    -1168.3563917279316229    -6.41e-05  2.61e-05  1.22e-03  1.27e-03  0.000   9.2

  HOMO= 109 E= -7.881 eV LUMO=  8.086 eV gap=  15.967 eV
    8    -1168.3564116150919290    -1.99e-05  1.20e-05  6.25e-04  6.79e-04  0.000   8.7

  HOMO= 109 E= -7.882 eV LUMO=  8.092 eV gap=  15.974 eV
               *** Restarting incremental Fock matrix formation ***
                             ****Resetting DIIS****
    9    -1168.3564421054948070    -3.05e-05  6.98e-06  4.26e-04  3.59e-04  0.000  23.8

  HOMO= 109 E= -7.882 eV LUMO=  1.290 eV gap=   9.172 eV
   10    -1168.3564436118736012    -1.51e-06  3.37e-06  2.25e-04  1.57e-04  0.000  13.1

  HOMO= 109 E= -7.884 eV LUMO=  1.291 eV gap=   9.176 eV
   11    -1168.3564438850312399    -2.73e-07  1.37e-06  8.20e-05  1.12e-04  0.000  10.9

  HOMO= 109 E= -7.885 eV LUMO=  1.292 eV gap=   9.177 eV
   12    -1168.3564439569408933    -7.19e-08  3.19e-07  1.60e-05  1.84e-05  0.000   9.2
                 **** Energy Check signals convergence ****

  HOMO= 109 E= -7.885 eV LUMO=  1.292 eV gap=   9.177 eV

               *****************************************************
               *                     SUCCESS                       *
               *           SCF CONVERGED AFTER  12 CYCLES          *
               *****************************************************

Recomputing exchange energy using gridx3       ... done (   40.921 sec)
Old exchange energy                            :    -56.783063784 Eh
New exchange energy                            :    -56.783125569 Eh
Exchange energy change after final integration :     -0.000061785 Eh
Total energy after final integration           :  -1168.356505742 Eh
             **** ENERGY FILE WAS UPDATED (inpS.en.tmp) ****

----------------
TOTAL SCF ENERGY
----------------

Total Energy       :      -1168.35650574210990 Eh          -31792.59683 eV

Components:
Nuclear Repulsion  :       2778.49935871225716 Eh           75606.81133 eV
Electronic Energy  :      -3946.84496028281455 Eh         -107399.11143 eV
One Electron Energy:      -7102.26329485753740 Eh         -193262.40952 eV
Two Electron Energy:       3155.41833457472285 Eh           85863.29809 eV
CPCM Dielectric    :         -0.01084238638330 Eh              -0.29504 eV

Virial components:
Potential Energy   :      -2321.67471615194609 Eh          -63175.98083 eV
Kinetic Energy     :       1153.31821040983596 Eh           31383.38401 eV
Virial Ratio       :          2.01303915536626

DFT components:
N(Alpha)           :      110.000210928235 electrons
N(Beta)            :      110.000210928235 electrons
N(Total)           :      220.000421856470 electrons
E(X)               :     -111.771018153030 Eh       
E(C)               :       -8.951866600019 Eh       
E(XC)              :     -120.722884753049 Eh       

CPCM Solvation Model Properties:
Surface-charge          :         -0.04137779245767
Corrected charge        :         -0.00000000000000
Outlying charge corr.   :          0.00006002106217 Eh               0.00163 eV
Free-energy (cav+disp)  :  This term is not implemented in the current solvation scheme

---------------
SCF CONVERGENCE
---------------

  Last Energy change         ...    7.1910e-08  Tolerance :   1.0000e-07
  Last MAX-Density change    ...    1.5994e-05  Tolerance :   1.0000e-05
  Last RMS-Density change    ...    3.1910e-07  Tolerance :   1.0000e-06
  Last DIIS Error            ...    1.8389e-05  Tolerance :   1.0000e-07


----------------
ORBITAL ENERGIES
----------------

  NO   OCC          E(Eh)            E(eV) 
   0   2.0000     -19.213717      -522.8318 
   1   2.0000     -10.329779      -281.0876 
   2   2.0000     -10.293443      -280.0988 
   3   2.0000     -10.290201      -280.0106 
   4   2.0000     -10.286229      -279.9025 
   5   2.0000     -10.286125      -279.8997 
   6   2.0000     -10.285135      -279.8728 
   7   2.0000     -10.283639      -279.8321 
   8   2.0000     -10.282979      -279.8141 
   9   2.0000     -10.281995      -279.7873 
  10   2.0000     -10.281244      -279.7669 
  11   2.0000     -10.280817      -279.7553 
  12   2.0000     -10.279459      -279.7183 
  13   2.0000     -10.278613      -279.6953 
  14   2.0000     -10.278398      -279.6894 
  15   2.0000     -10.277115      -279.6545 
  16   2.0000     -10.276763      -279.6449 
  17   2.0000     -10.276493      -279.6376 
  18   2.0000     -10.273410      -279.5537 
  19   2.0000     -10.272036      -279.5163 
  20   2.0000     -10.271956      -279.5141 
  21   2.0000     -10.271606      -279.5046 
  22   2.0000     -10.271489      -279.5014 
  23   2.0000     -10.271004      -279.4882 
  24   2.0000     -10.270838      -279.4837 
  25   2.0000     -10.267920      -279.4043 
  26   2.0000     -10.267228      -279.3855 
  27   2.0000     -10.267088      -279.3817 
  28   2.0000     -10.267054      -279.3807 
  29   2.0000      -1.131665       -30.7942 
  30   2.0000      -0.998354       -27.1666 
  31   2.0000      -0.979222       -26.6460 
  32   2.0000      -0.956200       -26.0195 
  33   2.0000      -0.941997       -25.6330 
  34   2.0000      -0.916875       -24.9494 
  35   2.0000      -0.910746       -24.7826 
  36   2.0000      -0.889196       -24.1962 
  37   2.0000      -0.887195       -24.1418 
  38   2.0000      -0.871874       -23.7249 
  39   2.0000      -0.853471       -23.2241 
  40   2.0000      -0.836179       -22.7536 
  41   2.0000      -0.828144       -22.5349 
  42   2.0000      -0.809276       -22.0215 
  43   2.0000      -0.801310       -21.8048 
  44   2.0000      -0.795328       -21.6420 
  45   2.0000      -0.787164       -21.4198 
  46   2.0000      -0.759723       -20.6731 
  47   2.0000      -0.753578       -20.5059 
  48   2.0000      -0.729444       -19.8492 
  49   2.0000      -0.713267       -19.4090 
  50   2.0000      -0.712291       -19.3824 
  51   2.0000      -0.702949       -19.1282 
  52   2.0000      -0.690072       -18.7778 
  53   2.0000      -0.675361       -18.3775 
  54   2.0000      -0.648674       -17.6513 
  55   2.0000      -0.633555       -17.2399 
  56   2.0000      -0.630231       -17.1495 
  57   2.0000      -0.620767       -16.8919 
  58   2.0000      -0.605050       -16.4642 
  59   2.0000      -0.601006       -16.3542 
  60   2.0000      -0.591471       -16.0948 
  61   2.0000      -0.584001       -15.8915 
  62   2.0000      -0.569085       -15.4856 
  63   2.0000      -0.566447       -15.4138 
  64   2.0000      -0.563561       -15.3353 
  65   2.0000      -0.560834       -15.2611 
  66   2.0000      -0.553368       -15.0579 
  67   2.0000      -0.548169       -14.9164 
  68   2.0000      -0.546255       -14.8643 
  69   2.0000      -0.541368       -14.7314 
  70   2.0000      -0.535050       -14.5595 
  71   2.0000      -0.531509       -14.4631 
  72   2.0000      -0.524564       -14.2741 
  73   2.0000      -0.521355       -14.1868 
  74   2.0000      -0.518355       -14.1052 
  75   2.0000      -0.516166       -14.0456 
  76   2.0000      -0.502943       -13.6858 
  77   2.0000      -0.501800       -13.6547 
  78   2.0000      -0.497866       -13.5476 
  79   2.0000      -0.491720       -13.3804 
  80   2.0000      -0.490278       -13.3411 
  81   2.0000      -0.487138       -13.2557 
  82   2.0000      -0.485277       -13.2051 
  83   2.0000      -0.478839       -13.0299 
  84   2.0000      -0.472633       -12.8610 
  85   2.0000      -0.469319       -12.7708 
  86   2.0000      -0.466577       -12.6962 
  87   2.0000      -0.462446       -12.5838 
  88   2.0000      -0.458502       -12.4765 
  89   2.0000      -0.454214       -12.3598 
  90   2.0000      -0.450811       -12.2672 
  91   2.0000      -0.446209       -12.1420 
  92   2.0000      -0.441905       -12.0249 
  93   2.0000      -0.431140       -11.7319 
  94   2.0000      -0.426212       -11.5978 
  95   2.0000      -0.425456       -11.5773 
  96   2.0000      -0.422166       -11.4877 
  97   2.0000      -0.420668       -11.4469 
  98   2.0000      -0.415142       -11.2966 
  99   2.0000      -0.412626       -11.2281 
 100   2.0000      -0.408711       -11.1216 
 101   2.0000      -0.407756       -11.0956 
 102   2.0000      -0.402022       -10.9396 
 103   2.0000      -0.396650       -10.7934 
 104   2.0000      -0.394320       -10.7300 
 105   2.0000      -0.381569       -10.3830 
 106   2.0000      -0.372268       -10.1299 
 107   2.0000      -0.357106        -9.7173 
 108   2.0000      -0.334965        -9.1149 
 109   2.0000      -0.289770        -7.8850 
 110   0.0000       0.047481         1.2920 
 111   0.0000       0.100457         2.7336 
 112   0.0000       0.111358         3.0302 
 113   0.0000       0.132704         3.6111 
 114   0.0000       0.143414         3.9025 
 115   0.0000       0.145147         3.9496 
 116   0.0000       0.153975         4.1899 
 117   0.0000       0.155782         4.2390 
 118   0.0000       0.158427         4.3110 
 119   0.0000       0.161311         4.3895 
 120   0.0000       0.170514         4.6399 
*Only the first 10 virtual orbitals were printed.

                    ********************************
                    * MULLIKEN POPULATION ANALYSIS *
                    ********************************

-----------------------
MULLIKEN ATOMIC CHARGES
-----------------------
   0 C :   -0.127148
   1 C :    0.144128
   2 C :    0.081592
   3 H :    0.016679
   4 H :    0.013292
   5 C :   -0.184501
   6 C :    0.111328
   7 C :    0.006618
   8 H :    0.029711
   9 H :    0.012197
  10 H :    0.023651
  11 H :    0.011397
  12 O :   -0.355069
  13 H :    0.014167
  14 C :   -0.024710
  15 C :   -0.044608
  16 H :    0.036317
  17 H :    0.029214
  18 C :   -0.060436
  19 H :   -0.006986
  20 C :   -0.115871
  21 H :    0.000918
  22 C :    0.115048
  23 C :   -0.001209
  24 H :    0.012746
  25 H :    0.017459
  26 C :    0.106376
  27 H :    0.012605
  28 H :    0.014980
  29 C :   -0.406345
  30 H :    0.008519
  31 H :   -0.002404
  32 C :   -0.044771
  33 H :    0.011870
  34 C :    0.127143
  35 H :    0.181690
  36 C :    0.031490
  37 H :    0.006882
  38 H :    0.015347
  39 C :   -0.050465
  40 H :    0.023545
  41 H :    0.012332
  42 H :   -0.011440
  43 C :   -0.013652
  44 C :    0.092688
  45 H :    0.023584
  46 H :    0.018572
  47 H :    0.019256
  48 H :    0.003171
  49 C :    0.063178
  50 C :   -0.089044
  51 C :   -0.087039
  52 H :    0.029390
  53 H :    0.006643
  54 C :   -0.025516
  55 C :    0.013258
  56 C :   -0.150731
  57 H :    0.016109
  58 H :    0.008114
  59 C :    0.023972
  60 C :    0.038644
  61 H :    0.021258
  62 H :    0.023642
  63 H :    0.018934
  64 H :    0.016273
  65 H :    0.018019
  66 H :    0.010432
  67 H :    0.010312
  68 H :    0.013929
  69 H :    0.016915
  70 H :    0.020113
  71 H :    0.028609
  72 H :    0.017687
Sum of atomic charges:   -0.0000000

--------------------------------
MULLIKEN REDUCED ORBITAL CHARGES
--------------------------------
  0 C s       :     3.077799  s :     3.077799
      pz      :     1.004571  p :     3.006495
      px      :     0.999558
      py      :     1.002365
      dz2     :     0.003170  d :     0.042854
      dxz     :     0.006985
      dyz     :     0.006196
      dx2y2   :     0.014762
      dxy     :     0.011741

  1 C s       :     2.932477  s :     2.932477
      pz      :     0.980975  p :     2.888951
      px      :     0.940628
      py      :     0.967349
      dz2     :     0.006869  d :     0.034445
      dxz     :     0.009132
      dyz     :     0.004983
      dx2y2   :     0.009128
      dxy     :     0.004333

  2 C s       :     3.075250  s :     3.075250
      pz      :     1.042512  p :     2.771994
      px      :     0.753276
      py      :     0.976206
      dz2     :     0.011529  d :     0.071163
      dxz     :     0.015954
      dyz     :     0.009479
      dx2y2   :     0.019551
      dxy     :     0.014650

  3 H s       :     0.960130  s :     0.960130
      pz      :     0.010936  p :     0.023191
      px      :     0.007567
      py      :     0.004688

  4 H s       :     0.963918  s :     0.963918
      pz      :     0.004425  p :     0.022790
      px      :     0.003828
      py      :     0.014537

  5 C s       :     3.111863  s :     3.111863
      pz      :     1.002688  p :     3.027834
      px      :     0.974442
      py      :     1.050704
      dz2     :     0.011219  d :     0.044804
      dxz     :     0.006631
      dyz     :     0.012006
      dx2y2   :     0.008320
      dxy     :     0.006629

  6 C s       :     2.948961  s :     2.948961
      pz      :     0.975403  p :     2.904234
      px      :     0.966518
      py      :     0.962313
      dz2     :     0.006779  d :     0.035477
      dxz     :     0.009253
      dyz     :     0.005301
      dx2y2   :     0.009269
      dxy     :     0.004876

  7 C s       :     3.013127  s :     3.013127
      pz      :     0.990565  p :     2.945233
      px      :     0.986787
      py      :     0.967882
      dz2     :     0.005204  d :     0.035022
      dxz     :     0.008194
      dyz     :     0.006921
      dx2y2   :     0.009658
      dxy     :     0.005045

  8 H s       :     0.946998  s :     0.946998
      pz      :     0.011548  p :     0.023291
      px      :     0.007128
      py      :     0.004615

  9 H s       :     0.964981  s :     0.964981
      pz      :     0.004665  p :     0.022822
      px      :     0.003758
      py      :     0.014399

 10 H s       :     0.953657  s :     0.953657
      pz      :     0.010964  p :     0.022692
      px      :     0.005063
      py      :     0.006665

 11 H s       :     0.965911  s :     0.965911
      pz      :     0.011087  p :     0.022692
      px      :     0.007111
      py      :     0.004494

 12 O s       :     3.726303  s :     3.726303
      pz      :     1.528449  p :     4.616558
      px      :     1.246100
      py      :     1.842009
      dz2     :     0.002656  d :     0.012207
      dxz     :     0.004188
      dyz     :     0.001554
      dx2y2   :     0.001884
      dxy     :     0.001925

 13 H s       :     0.965611  s :     0.965611
      pz      :     0.011245  p :     0.020222
      px      :     0.004861
      py      :     0.004116

 14 C s       :     3.197033  s :     3.197033
      pz      :     0.989221  p :     2.791437
      px      :     0.885112
      py      :     0.917104
      dz2     :     0.002661  d :     0.036240
      dxz     :     0.007508
      dyz     :     0.003479
      dx2y2   :     0.012050
      dxy     :     0.010542

 15 C s       :     3.122807  s :     3.122807
      pz      :     0.979465  p :     2.895547
      px      :     1.001314
      py      :     0.914768
      dz2     :     0.007151  d :     0.026254
      dxz     :     0.004250
      dyz     :     0.007162
      dx2y2   :     0.004780
      dxy     :     0.002912

 16 H s       :     0.939136  s :     0.939136
      pz      :     0.010499  p :     0.024547
      px      :     0.006047
      py      :     0.008001

 17 H s       :     0.946158  s :     0.946158
      pz      :     0.004101  p :     0.024627
      px      :     0.004715
      py      :     0.015812

 18 C s       :     3.201241  s :     3.201241
      pz      :     1.028987  p :     2.823891
      px      :     0.874742
      py      :     0.920162
      dz2     :     0.002754  d :     0.035305
      dxz     :     0.006885
      dyz     :     0.003273
      dx2y2   :     0.012345
      dxy     :     0.010049

 19 H s       :     0.982660  s :     0.982660
      pz      :     0.004744  p :     0.024326
      px      :     0.004522
      py      :     0.015060

 20 C s       :     3.099805  s :     3.099805
      pz      :     0.955787  p :     2.972047
      px      :     0.994853
      py      :     1.021407
      dz2     :     0.003364  d :     0.044018
      dxz     :     0.007066
      dyz     :     0.007097
      dx2y2   :     0.014800
      dxy     :     0.011691

 21 H s       :     0.974560  s :     0.974560
      pz      :     0.004635  p :     0.024522
      px      :     0.004421
      py      :     0.015467

 22 C s       :     2.924370  s :     2.924370
      pz      :     1.000753  p :     2.924997
      px      :     0.975983
      py      :     0.948261
      dz2     :     0.009240  d :     0.035585
      dxz     :     0.004247
      dyz     :     0.006378
      dx2y2   :     0.009993
      dxy     :     0.005727

 23 C s       :     3.001349  s :     3.001349
      pz      :     1.009739  p :     2.963389
      px      :     0.969114
      py      :     0.984536
      dz2     :     0.009570  d :     0.036471
      dxz     :     0.007905
      dyz     :     0.003297
      dx2y2   :     0.010263
      dxy     :     0.005436

 24 H s       :     0.964005  s :     0.964005
      pz      :     0.004685  p :     0.023249
      px      :     0.014066
      py      :     0.004498

 25 H s       :     0.959229  s :     0.959229
      pz      :     0.013210  p :     0.023312
      px      :     0.004986
      py      :     0.005115

 26 C s       :     2.970477  s :     2.970477
      pz      :     0.967775  p :     2.887812
      px      :     0.973245
      py      :     0.946792
      dz2     :     0.006568  d :     0.035334
      dxz     :     0.006702
      dyz     :     0.006091
      dx2y2   :     0.008822
      dxy     :     0.007152

 27 H s       :     0.964518  s :     0.964518
      pz      :     0.013260  p :     0.022877
      px      :     0.004648
      py      :     0.004969

 28 H s       :     0.962375  s :     0.962375
[...]
 Total          141.526          174.605          190.601  iso=     168.911

 Orientation: 
  X           0.2915781   -0.5944807    0.7493830
  Y          -0.1710603   -0.8032025   -0.5706173
  Z           0.9411273    0.0381898   -0.3358883

 --------------
 Nucleus  39C :
 --------------

Diamagnetic contribution to the shielding tensor (ppm) : 
           264.774          4.815        -7.896
             5.558        257.284         2.241
            -6.420          2.260       263.912

Paramagnetic contribution to the shielding tensor (ppm): 
           -98.704         -2.707         7.994
             0.975       -127.261         2.359
            10.789         -1.061      -137.686

Total shielding tensor (ppm): 
           166.070          2.109         0.099
             6.534        130.023         4.600
             4.369          1.199       126.227


 Diagonalized sT*s matrix:
 
 sDSO           260.369          260.541          265.060  iso=     261.990
 sPSO          -135.710         -129.620          -98.321  iso=    -121.217
        ---------------  ---------------  ---------------
 Total          124.659          130.921          166.739  iso=     140.773

 Orientation: 
  X           0.0049229   -0.1270554   -0.9918834
  Y          -0.4837584    0.8678026   -0.1135623
  Z           0.8751877    0.4803910   -0.0571920

 --------------
 Nucleus  43C :
 --------------

Diamagnetic contribution to the shielding tensor (ppm) : 
           257.508         -0.780        -6.203
             0.367        244.498         6.355
            -6.110          0.890       250.942

Paramagnetic contribution to the shielding tensor (ppm): 
           -94.720         -1.831        -1.876
             2.149        -86.678        -4.310
            -1.259          3.806       -88.579

Total shielding tensor (ppm): 
           162.787         -2.611        -8.078
             2.516        157.820         2.045
            -7.368          4.696       162.363


 Diagonalized sT*s matrix:
 
 sDSO           244.414          247.808          260.725  iso=     250.983
 sPSO           -90.971          -89.034          -89.973  iso=     -89.993
        ---------------  ---------------  ---------------
 Total          153.444          158.774          170.752  iso=     160.990

 Orientation: 
  X          -0.5448271    0.4870703   -0.6825877
  Y           0.5071033    0.8396748    0.1944028
  Z          -0.6678395    0.2402266    0.7044725

 --------------
 Nucleus  44C :
 --------------

Diamagnetic contribution to the shielding tensor (ppm) : 
           251.013          1.051         1.758
             0.078        254.726        -5.062
             0.438         -1.273       272.198

Paramagnetic contribution to the shielding tensor (ppm): 
           -71.920         -5.327        -1.977
            -2.646        -74.043         1.621
            -0.335         -2.262       -79.090

Total shielding tensor (ppm): 
           179.094         -4.276        -0.219
            -2.567        180.684        -3.441
             0.102         -3.536       193.107


 Diagonalized sT*s matrix:
 
 sDSO           253.198          252.120          272.619  iso=     259.312
 sPSO           -77.128          -69.371          -78.553  iso=     -75.018
        ---------------  ---------------  ---------------
 Total          176.070          182.749          194.066  iso=     184.295

 Orientation: 
  X           0.7450916   -0.6645441    0.0567429
  Y           0.6528823    0.7093292   -0.2657006
  Z           0.1363203    0.2350177    0.9623842

 --------------
 Nucleus  49C :
 --------------

Diamagnetic contribution to the shielding tensor (ppm) : 
           243.314         -4.471        -2.523
           -11.608        254.366         6.197
            -8.585          4.897       250.844

Paramagnetic contribution to the shielding tensor (ppm): 
           -64.371          3.055        -3.403
             9.174        -71.277        -1.993
             1.450         -1.187       -72.167

Total shielding tensor (ppm): 
           178.942         -1.416        -5.926
            -2.435        183.088         4.204
            -7.135          3.710       178.677


 Diagonalized sT*s matrix:
 
 sDSO           242.636          243.177          262.711  iso=     249.508
 sPSO           -70.582          -63.082          -74.151  iso=     -69.272
        ---------------  ---------------  ---------------
 Total          172.054          180.094          188.560  iso=     180.236

 Orientation: 
  X           0.6567283   -0.5402355    0.5261688
  Y          -0.1495923   -0.7771770   -0.6112431
  Z           0.7391415    0.3227098   -0.5912092

 --------------
 Nucleus  50C :
 --------------

Diamagnetic contribution to the shielding tensor (ppm) : 
           275.322         -2.393         9.847
             5.514        264.067        -3.525
            13.586         -0.797       245.405

Paramagnetic contribution to the shielding tensor (ppm): 
          -197.740        -18.887       -59.813
           -17.895       -282.104       -43.101
           -62.253        -48.545      -113.831

Total shielding tensor (ppm): 
            77.582        -21.281       -49.966
           -12.381        -18.037       -46.625
           -48.667        -49.342       131.574


 Diagonalized sT*s matrix:
 
 sDSO           266.785          274.248          243.761  iso=     261.598
 sPSO          -303.735         -213.180          -76.760  iso=    -197.892
        ---------------  ---------------  ---------------
 Total          -36.950           61.068          167.000  iso=      63.706

 Orientation: 
  X           0.4197494    0.7893280   -0.4480756
  Y           0.8222869   -0.5397078   -0.1804431
  Z           0.3842587    0.2927058    0.8755961

 --------------
 Nucleus  51C :
 --------------

Diamagnetic contribution to the shielding tensor (ppm) : 
           270.256         -3.004        13.935
           -10.032        267.513        10.124
            16.120          3.754       240.046

Paramagnetic contribution to the shielding tensor (ppm): 
          -191.979        -22.113       -51.174
            -6.541       -276.268       -61.836
           -50.781        -58.931      -103.450

Total shielding tensor (ppm): 
            78.277        -25.117       -37.239
           -16.573         -8.756       -51.711
           -34.661        -55.177       136.597


 Diagonalized sT*s matrix:
 
 sDSO           268.485          277.508          231.822  iso=     259.272
 sPSO          -302.198         -201.334          -68.165  iso=    -190.566
        ---------------  ---------------  ---------------
 Total          -33.713           76.174          163.657  iso=      68.706

 Orientation: 
  X           0.3707989    0.8701139   -0.3246690
  Y           0.8555139   -0.4560576   -0.2451682
  Z           0.3613921    0.1868507    0.9135002

 --------------
 Nucleus  54C :
 --------------

Diamagnetic contribution to the shielding tensor (ppm) : 
           244.321          2.965         7.515
            -5.821        260.967        -1.194
            16.768          1.334       231.752

Paramagnetic contribution to the shielding tensor (ppm): 
           -91.069          5.068       -11.042
             5.158        -94.702         2.057
           -19.206          0.995       -71.831

Total shielding tensor (ppm): 
           153.252          8.033        -3.527
            -0.664        166.265         0.863
            -2.438          2.329       159.920


 Diagonalized sT*s matrix:
 
 sDSO           252.051          225.160          259.829  iso=     245.680
 sPSO          -100.994          -64.105          -92.504  iso=     -85.868
        ---------------  ---------------  ---------------
 Total          151.057          161.055          167.324  iso=     159.812

 Orientation: 
  X          -0.9053364   -0.3656896   -0.2159562
  Y           0.2418346   -0.0258967   -0.9699719
  Z          -0.3491160    0.9303765   -0.1118816

 --------------
 Nucleus  55C :
 --------------

Diamagnetic contribution to the shielding tensor (ppm) : 
           241.090         -3.425         2.476
           -14.225        240.114       -10.939
            17.775         -1.316       246.630

Paramagnetic contribution to the shielding tensor (ppm): 
           -71.627          5.615        10.261
            12.111        -65.982        -0.154
             0.067         -9.488       -66.011

Total shielding tensor (ppm): 
           169.463          2.190        12.737
            -2.114        174.132       -11.093
            17.842        -10.804       180.619


 Diagonalized sT*s matrix:
 
 sDSO           236.151          232.612          259.072  iso=     242.611
 sPSO           -79.929          -59.921          -63.770  iso=     -67.873
        ---------------  ---------------  ---------------
 Total          156.222          172.691          195.301  iso=     174.738

 Orientation: 
  X          -0.6993035    0.5360359    0.4729061
  Y           0.3691252    0.8373296   -0.4032688
  Z           0.6121448    0.1074457    0.7834119

 --------------
 Nucleus  56C :
 --------------

Diamagnetic contribution to the shielding tensor (ppm) : 
           240.652         -1.146        -3.053
             5.079        247.566        -0.403
            -4.604          1.601       239.641

Paramagnetic contribution to the shielding tensor (ppm): 
           -78.739          2.642         6.944
            -0.920        -71.725        -3.046
             7.743         -0.392       -80.622

Total shielding tensor (ppm): 
           161.912          1.496         3.891
             4.160        175.841        -3.448
             3.138          1.209       159.019


 Diagonalized sT*s matrix:
 
 sDSO           243.500          236.309          248.049  iso=     242.620
 sPSO           -87.162          -72.279          -71.646  iso=     -77.029
        ---------------  ---------------  ---------------
 Total          156.338          164.031          176.403  iso=     165.591

 Orientation: 
  X          -0.5756549   -0.7955507   -0.1889987
  Y           0.1377108    0.1335121   -0.9814328
  Z           0.8060131   -0.5909938    0.0326990

 --------------
 Nucleus  59C :
 --------------

Diamagnetic contribution to the shielding tensor (ppm) : 
           244.827         -3.738        -6.839
             7.770        257.042         6.218
             9.825          3.969       255.514

Paramagnetic contribution to the shielding tensor (ppm): 
           -62.096          3.473        -3.658
           -10.934        -77.932        -0.562
           -16.319         -2.881       -69.304

Total shielding tensor (ppm): 
           182.731         -0.265       -10.497
            -3.164        179.110         5.657
            -6.494          1.088       186.209


 Diagonalized sT*s matrix:
 
 sDSO           248.985          256.802          251.597  iso=     252.461
 sPSO           -73.419          -78.375          -57.540  iso=     -69.778
        ---------------  ---------------  ---------------
 Total          175.566          178.427          194.057  iso=     182.683

 Orientation: 
  X          -0.7121743    0.3606320   -0.6022893
  Y           0.2748433    0.9327079    0.2334891
  Z          -0.6459636   -0.0007497    0.7633679

 --------------
 Nucleus  60C :
 --------------

Diamagnetic contribution to the shielding tensor (ppm) : 
           243.765          0.633         0.130
            13.940        247.936        -6.043
           -14.358         -4.377       244.331

Paramagnetic contribution to the shielding tensor (ppm): 
           -81.124         -3.722        -7.058
           -13.091        -70.878        -4.834
             3.079         -5.312       -56.365

Total shielding tensor (ppm): 
           162.641         -3.089        -6.928
             0.849        177.058       -10.877
           -11.278         -9.688       187.966


 Diagonalized sT*s matrix:
 
 sDSO           241.707          240.863          253.463  iso=     245.344
 sPSO           -83.129          -67.562          -57.676  iso=     -69.456
        ---------------  ---------------  ---------------
 Total          158.578          173.301          195.787  iso=     175.889

 Orientation: 
  X          -0.8924008    0.3890935   -0.2285325
  Y          -0.2546366   -0.8523328   -0.4568249
  Z          -0.3725333   -0.3494781    0.8596999



--------------------------------
CHEMICAL SHIELDING SUMMARY (ppm)
--------------------------------


  Nucleus  Element    Isotropic     Anisotropy
  -------  -------  ------------   ------------
      0       C           59.623        148.173 
      1       C          151.139         30.036 
      2       C          128.832         55.169 
      5       C           51.518        179.203 
      6       C          165.006         22.932 
      7       C          161.625         22.633 
     14       C           74.682        128.221 
     15       C           83.074        121.138 
     18       C           79.588        134.200 
     20       C           52.429        174.910 
     22       C          169.168          8.616 
     23       C          174.507         12.607 
     26       C          158.693         23.801 
     29       C          153.943         17.748 
     32       C          143.347         28.169 
     34       C          174.794         23.498 
     36       C          168.911         32.536 
     39       C          140.773         38.949 
     43       C          160.990         14.643 
     44       C          184.295         14.657 
     49       C          180.236         12.486 
     50       C           63.706        154.941 
     51       C           68.706        142.427 
     54       C          159.812         11.268 
     55       C          174.738         30.845 
     56       C          165.591         16.219 
     59       C          182.683         17.060 
     60       C          175.889         29.848 


NMR shielding tensor and spin rotation calculation done in   1.0 sec 

Maximum memory used throughout the entire PROP-calculation: 52.0 MB

--------------------------------
SUGGESTED CITATIONS FOR THIS RUN
--------------------------------

Below you find a list of papers that are relevant to this ORCA run
We neither can nor want to force you to cite these papers, but we appreciate if you do
You receive ORCA, which is the product of decades of hard work by many enthusiastic individuals, for free
The only thing we kindly ask in return is that you cite our papers,
We deeply appreciate it, if you show your appreciation for ORCA by not just citing the generic ORCA reference.

Please note that relegating all ORCA citations to the supporting information does *not* help us.
SI sections are not indexed - citations you put there will not count into any citation statistics
But we need these citations in order to attract the funding resources that allow us to do what we are doing

Therefore, if you are a happy ORCA user, please consider citing a few of the papers listed below in the main body of your paper

In addition to the list printed below, the program has created the file inpS.bibtex that contains the list in bibtex format
You can import this file easily into all common literature databanks and citation aid programs


List of essential papers. We consider these as the minimum necessary citations

  1. Neese,F.
     Software update: the ORCA program system, version 5.0
     WIRES Comput. Molec. Sci., 2022 12(1)e1606
     doi.org/10.1002/wcms.1606

List of papers to cite with high priority. The work reported in these papers was absolutely
necessary for this run to complete.
Our perspective: the developers of density functionals and basis sets usually get cited in chemistry papers
Good! But without the algorithms to do something with them, the functionals or basis sets would not do anything.
Hence, in our opinion, the algorithm design and method developments papers are equally worthy of getting cited

  1. Neese,F.
     An improvement of the resolution of the identity approximation for the formation of the Coulomb matrix
     J. Comp. Chem., 2003 24(14)1740-1747
     doi.org/10.1002/jcc.10318
  2. Neese,F.; Wennmohs,F.; Hansen,A.; Becker,U.
     Efficient, approximate and parallel Hartree-Fock and hybrid DFT calculations. A 'chain-of-spheres' algorithm for the Hartree-Fock exchange
     Chem. Phys., 2009 356(1-3)98-109
     doi.org/10.1016/j.chemphys.2008.10.036
  3. Stoychev,G.L.; Auer,A.A.; Izsak,R.; Neese,F.
     Self-Consistent Field Calculation of Nuclear Magnetic Resonance Chemical Shielding Constants Using Gauge-Including Atomic Orbitals and Approximate Two-Electron Integrals
     J. Chem. Theory Comput., 2018 14(2)619-637
     doi.org/10.1021/acs.jctc.7b01006
  4. Garcia-Rates,M.; Neese,F.
     Effect of the Solute Cavity on the Solvation Energy and its Derivatives within the Framework of the Gaussian Charge Scheme
     J. Comput. Chem., 2020 41 922-939
     doi.org/10.1002/jcc.26139
  5. Helmich-Paris,B.; de Souza,B.; Neese,F.; Izsák,R.
     An improved chain of spheres for exchange algorithm
     J. Chem. Phys., 2021 155 104109
     doi.org/doi: 10.1063/5.0058766.
  6. Neese,F.
     The SHARK Integral Generation and Digestion System
     J. Comp. Chem., 2022  1-16
     doi.org/10.1002/jcc.26942
  7. Caldeweyher,E.; Bannwarth,C.; Grimme,S.
     Extension of the D3 dispersion coefficient model
     J. Chem. Phys., 2017 147 034112-XXXX
     doi.org/10.1063/1.4993215
  8. Caldeweyher,E.; Ehlert,S.; Hansen,A.; Neugebauer,H.; Spicher,S.; Bannwarth,C.; Grimme,S.
     A generally applicable atomic-charge dependent London dispersion correction
     J. Chem. Phys., 2019 150 154122-XXXX
     doi.org/10.1063/1.5090222
  9. Caldeweyher,E.; Mewes,J.; Ehlert,S.; Grimme,S.
     Extension and evaluation of the D4 London-dispersion model for periodic systems
     Phys. Chem. Chem. Phys., 2020 22(16)8499-8512
     doi.org/10.1039/D0CP00502A

List of suggested additional citations. These are papers that are important in the 'surrounding' of 
of this run, or papers that preceded the highly important papers. If you like your results we are grateful for a citation.

  1. Izsak,R.; Neese,F.
     An overlap fitted chain of spheres exchange method
     J. Chem. Phys., 2011 135 144105
     doi.org/10.1063/1.3646921
  2. Izsak,R.; Hansen,A.; Neese,F.
     The resolution of identity and chain of spheres approximations for the LPNO-CCSD singles Fock term
     Molec. Phys., 2012 110 2413-2417
     doi.org/10.1080/00268976.2012.687466
  3. Neese,F.
     The ORCA program system
     WIRES Comput. Molec. Sci., 2012 2(1)73-78
     doi.org/10.1002/wcms.81
  4. Izsak,R.; Neese,F.; Klopper,W.
     Robust fitting techniques in the chain of spheres approximation to the Fock exchange: The role of the complementary space
     J. Chem. Phys., 2013 139 
     doi.org/10.1063/1.4819264
  5. Neese,F.
     Software update: the ORCA program system, version 4.0
     WIRES Comput. Molec. Sci., 2018 8(1)1-6
     doi.org/10.1002/wcms.1327
  6. Neese,F.; Wennmohs,F.; Becker,U.; Riplinger,C.
     The ORCA quantum chemistry program package
     J. Chem. Phys., 2020 152 Art. No. L224108
     doi.org/10.1063/5.0004608

Timings for individual modules:

Sum of individual times          ...      304.757 sec (=   5.079 min)
Startup calculation              ...        4.721 sec (=   0.079 min)   1.5 %
SCF iterations                   ...      198.609 sec (=   3.310 min)  65.2 %
Property integrals               ...       60.455 sec (=   1.008 min)  19.8 %
SCF Response                     ...       39.650 sec (=   0.661 min)  13.0 %
Property calculations            ...        1.321 sec (=   0.022 min)   0.4 %
                             ****ORCA TERMINATED NORMALLY****
TOTAL RUN TIME: 0 days 0 hours 5 minutes 5 seconds 41 msec
