
                                 *****************
                                 * O   R   C   A *
                                 *****************

                                            #,                                       
                                            ###                                      
                                            ####                                     
                                            #####                                    
                                            ######                                   
                                           ########,                                 
                                     ,,################,,,,,                         
                               ,,#################################,,                 
                          ,,##########################################,,             
                       ,#########################################, ''#####,          
                    ,#############################################,,   '####,        
                  ,##################################################,,,,####,       
                ,###########''''           ''''###############################       
              ,#####''   ,,,,##########,,,,          '''####'''          '####       
            ,##' ,,,,###########################,,,                        '##       
           ' ,,###''''                  '''############,,,                           
         ,,##''                                '''############,,,,        ,,,,,,###''
      ,#''                                            '''#######################'''  
     '                                                          ''''####''''         
             ,#######,   #######,   ,#######,      ##                                
            ,#'     '#,  ##    ##  ,#'     '#,    #''#        ######   ,####,        
            ##       ##  ##   ,#'  ##            #'  '#       #        #'  '#        
            ##       ##  #######   ##           ,######,      #####,   #    #        
            '#,     ,#'  ##    ##  '#,     ,#' ,#      #,         ##   #,  ,#        
             '#######'   ##     ##  '#######'  #'      '#     #####' # '####'        



                  #######################################################
                  #                        -***-                        #
                  #          Department of theory and spectroscopy      #
                  #    Directorship and core code : Frank Neese         #
                  #        Max Planck Institute fuer Kohlenforschung    #
                  #                Kaiser Wilhelm Platz 1               #
                  #                 D-45470 Muelheim/Ruhr               #
                  #                      Germany                        #
                  #                                                     #
                  #                  All rights reserved                #
                  #                        -***-                        #
                  #######################################################


                         Program Version 5.0.2 -  RELEASE  -


 With contributions from (in alphabetic order):
   Daniel Aravena         : Magnetic Suceptibility
   Michael Atanasov       : Ab Initio Ligand Field Theory (pilot matlab implementation)
   Alexander A. Auer      : GIAO ZORA, VPT2 properties, NMR spectrum
   Ute Becker             : Parallelization
   Giovanni Bistoni       : ED, misc. LED, open-shell LED, HFLD
   Martin Brehm           : Molecular dynamics
   Dmytro Bykov           : SCF Hessian
   Vijay G. Chilkuri      : MRCI spin determinant printing, contributions to CSF-ICE
   Dipayan Datta          : RHF DLPNO-CCSD density
   Achintya Kumar Dutta   : EOM-CC, STEOM-CC
   Dmitry Ganyushin       : Spin-Orbit,Spin-Spin,Magnetic field MRCI
   Miquel Garcia          : C-PCM and meta-GGA Hessian, CC/C-PCM, Gaussian charge scheme
   Yang Guo               : DLPNO-NEVPT2, F12-NEVPT2, CIM, IAO-localization
   Andreas Hansen         : Spin unrestricted coupled pair/coupled cluster methods
   Benjamin Helmich-Paris : MC-RPA, TRAH-SCF, COSX integrals
   Lee Huntington         : MR-EOM, pCC
   Robert Izsak           : Overlap fitted RIJCOSX, COSX-SCS-MP3, EOM
   Marcus Kettner         : VPT2
   Christian Kollmar      : KDIIS, OOCD, Brueckner-CCSD(T), CCSD density, CASPT2, CASPT2-K
   Simone Kossmann        : Meta GGA functionals, TD-DFT gradient, OOMP2, MP2 Hessian
   Martin Krupicka        : Initial AUTO-CI
   Lucas Lang             : DCDCAS
   Marvin Lechner         : AUTO-CI (C++ implementation), FIC-MRCC
   Dagmar Lenk            : GEPOL surface, SMD
   Dimitrios Liakos       : Extrapolation schemes; Compound Job, initial MDCI parallelization
   Dimitrios Manganas     : Further ROCIS development; embedding schemes
   Dimitrios Pantazis     : SARC Basis sets
   Anastasios Papadopoulos: AUTO-CI, single reference methods and gradients
   Taras Petrenko         : DFT Hessian,TD-DFT gradient, ASA, ECA, R-Raman, ABS, FL, XAS/XES, NRVS
   Peter Pinski           : DLPNO-MP2, DLPNO-MP2 Gradient
   Christoph Reimann      : Effective Core Potentials
   Marius Retegan         : Local ZFS, SOC
   Christoph Riplinger    : Optimizer, TS searches, QM/MM, DLPNO-CCSD(T), (RO)-DLPNO pert. Triples
   Tobias Risthaus        : Range-separated hybrids, TD-DFT gradient, RPA, STAB
   Michael Roemelt        : Original ROCIS implementation
   Masaaki Saitow         : Open-shell DLPNO-CCSD energy and density
   Barbara Sandhoefer     : DKH picture change effects
   Avijit Sen             : IP-ROCIS
   Kantharuban Sivalingam : CASSCF convergence, NEVPT2, FIC-MRCI
   Bernardo de Souza      : ESD, SOC TD-DFT
   Georgi Stoychev        : AutoAux, RI-MP2 NMR, DLPNO-MP2 response
   Willem Van den Heuvel  : Paramagnetic NMR
   Boris Wezisla          : Elementary symmetry handling
   Frank Wennmohs         : Technical directorship


 We gratefully acknowledge several colleagues who have allowed us to
 interface, adapt or use parts of their codes:
   Stefan Grimme, W. Hujo, H. Kruse, P. Pracht,  : VdW corrections, initial TS optimization,
                  C. Bannwarth, S. Ehlert          DFT functionals, gCP, sTDA/sTD-DF
   Ed Valeev, F. Pavosevic, A. Kumar             : LibInt (2-el integral package), F12 methods
   Garnet Chan, S. Sharma, J. Yang, R. Olivares  : DMRG
   Ulf Ekstrom                                   : XCFun DFT Library
   Mihaly Kallay                                 : mrcc  (arbitrary order and MRCC methods)
   Jiri Pittner, Ondrej Demel                    : Mk-CCSD
   Frank Weinhold                                : gennbo (NPA and NBO analysis)
   Christopher J. Cramer and Donald G. Truhlar   : smd solvation model
   Lars Goerigk                                  : TD-DFT with DH, B97 family of functionals
   V. Asgeirsson, H. Jonsson                     : NEB implementation
   FAccTs GmbH                                   : IRC, NEB, NEB-TS, DLPNO-Multilevel, CI-OPT
                                                   MM, QMMM, 2- and 3-layer-ONIOM, Crystal-QMMM,
                                                   LR-CPCM, SF, NACMEs, symmetry and pop. for TD-DFT,
                                                   nearIR, NL-DFT gradient (VV10), updates on ESD,
                                                   ML-optimized integration grids
   S Lehtola, MJT Oliveira, MAL Marques          : LibXC Library
   Liviu Ungur et al                             : ANISO software


 Your calculation uses the libint2 library for the computation of 2-el integrals
 For citations please refer to: http://libint.valeyev.net

 Your ORCA version has been built with support for libXC version: 5.1.0
 For citations please refer to: https://tddft.org/programs/libxc/

 This ORCA versions uses:
   CBLAS   interface :  Fast vector & matrix operations
   LAPACKE interface :  Fast linear algebra routines
   SCALAPACK package :  Parallel linear algebra routines
   Shared memory     :  Shared parallel matrices
   BLAS/LAPACK       :  OpenBLAS 0.3.15  USE64BITINT DYNAMIC_ARCH NO_AFFINITY Zen SINGLE_THREADED
        Core in use  :  Zen
   Copyright (c) 2011-2014, The OpenBLAS Project


Your calculation utilizes the atom-pairwise dispersion correction
based on tight binding partial charges (D4)
Cite in your paper:
E.Caldeweyher, C.Bannwarth, S.Grimme, J.Chem.Phys., (2017), 147, 034112.
E.Caldeweyher, S.Ehlert, A.Hansen, H.Neugebauer, S.Grimme, J.Chem.Phys., (2018), in progress.
   

================================================================================

----- Orbital basis set information -----
Your calculation utilizes the basis: pcSseg-1
   F. Jensen, J. Chem. Theory Comput. 11, 132 (2015).

----- AuxJ basis set information -----
Your calculation utilizes the auxiliary basis: def2/J
   F. Weigend, Phys. Chem. Chem. Phys. 8, 1057 (2006).

================================================================================
                                        WARNINGS
                       Please study these warnings very carefully!
================================================================================



WARNING: Found flag for RIJCOSX approximation but no HF exchange needed!
  ===> : RIJCOSX  will be disabled and Split-RI-J is turned on

INFO   : the flag for use of the SHARK integral package has been found!

================================================================================
                                       INPUT FILE
================================================================================
NAME = inpS
|  1> ! revTPSS
|  2> ! D4
|  3> ! pcSseg-1
|  4> ! def2/J RIJCOSX
|  5> ! DEFGRID2
|  6> ! scfconv7
|  7> ! smallprint printgap noloewdin
|  8> ! NOSOSCF
|  9> %MaxCore 4000
| 10> %output
| 11>        print[P_BondOrder_M] 1
| 12>        print[P_Mayer] 1
| 13>        print[P_basis] 2
| 14> end
| 15> %pal
| 16>     nprocs 4
| 17> end
| 18> ! CPCM(chloroform)
| 19> *xyz 0 1
| 20> C   -4.9560199800   0.2531921300  -0.5282765900
| 21> C   -6.4098534400  -0.1361937700  -0.6543092600
| 22> C   -7.2962544100   0.8460520100   0.1224831500
| 23> H   -6.5716134200  -1.1569165000  -0.2894755600
| 24> H   -6.7152719300  -0.1012180900  -1.7105742800
| 25> C   -4.6750516200   1.6523903000  -0.9203821700
| 26> C   -5.5840943200   2.6756786800  -0.2760487800
| 27> C   -7.0625492800   2.2736682000  -0.3744756200
| 28> H   -5.4223635500   3.6615043900  -0.7249327200
| 29> H   -5.3121873100   2.7584050800   0.7872850300
| 30> H   -7.3906058500   2.3326777200  -1.4211978200
| 31> H   -7.6808489300   2.9689202700   0.2051372400
| 32> O   -7.0627830800   0.7304932400   1.5360027100
| 33> H   -8.3505819500   0.5776631900  -0.0185244100
| 34> C   -4.0383798100  -0.6087815100  -0.0292337200
| 35> C   -3.7266355400   1.9885228400  -1.8014638200
| 36> H   -3.0951838400   1.2362133400  -2.2666734600
| 37> H   -3.5678009300   3.0266495600  -2.0839201900
| 38> C   -2.6479211800  -0.3144676900   0.2304980100
| 39> H   -4.3996028200  -1.6050112200   0.2233766300
| 40> C   -1.7031001800  -1.1900377900   0.6345105500
| 41> H   -2.3500703000   0.7222098100   0.0900775100
| 42> C   -1.9100501700  -2.6659710600   0.8630011600
| 43> C   -0.9144854800  -3.5136669000   0.0470027000
| 44> H   -2.9324239800  -2.9824941200   0.6390094700
| 45> H   -1.7367274300  -2.8691190600   1.9318175600
| 46> C    0.5405140500  -3.0611742900   0.2327123800
| 47> H   -1.1866210000  -3.4615892700  -1.0147855300
| 48> H   -1.0124071700  -4.5655889100   0.3421246600
| 49> C    0.7140402000  -1.5625516200  -0.0512249900
| 50> H    1.1857267300  -3.6664296700  -0.4127051200
| 51> H    0.8514398300  -3.2552334700   1.2703112700
| 52> C   -0.2795249300  -0.7931321200   0.8774801500
| 53> H   -0.0282220900  -1.1392809100   1.8969838200
| 54> C    0.1632557000   0.6632721100   0.7734723400
| 55> H   -6.1079456600   0.6441628600   1.6687518200
| 56> C    1.7041269900   0.5672833700   0.6561962000
| 57> H   -0.1623275500   1.2546648100   1.6357044100
| 58> H   -0.2592318300   1.1361244600  -0.1202407500
| 59> C    2.0546741000  -0.9323224600   0.4179708700
| 60> H    2.2084612800   0.9426194200   1.5521851800
| 61> H    2.0727137900   1.1737555800  -0.1794681800
| 62> H    2.2927414400  -1.3969792600   1.3887702200
| 63> C    3.3028027300  -1.0832813000  -0.4768547300
| 64> C    0.4452806500  -1.2457956600  -1.5280832700
| 65> H    0.6675489900  -0.2001700300  -1.7648433500
| 66> H   -0.6018147100  -1.4239757000  -1.7920806400
| 67> H    1.0674869400  -1.8722403800  -2.1765486000
| 68> H    3.0980281900  -0.5853294700  -1.4361209400
| 69> C    3.6907637200  -2.5436675500  -0.7498237500
| 70> C    4.4615304400  -0.3776498800   0.1768228000
| 71> C    5.0792336600   0.6960448900  -0.3143893400
| 72> H    4.7875536000  -0.8096668300   1.1262389400
| 73> H    4.7227431200   1.0974761000  -1.2647317700
| 74> C    6.2096627700   1.4550714800   0.3372419900
| 75> C    6.9853752900   0.6097638800   1.3517302500
| 76> C    5.6858693100   2.7748099400   0.9711150900
| 77> H    6.9068174700   1.7523320000  -0.4643282700
| 78> H    5.0050374600   2.4821817000   1.7867033200
| 79> C    4.8933477100   3.6180972400  -0.0325648800
| 80> C    6.8238230200   3.6131855300   1.5612765700
| 81> H    6.3930396100   0.4342325200   2.2577498800
| 82> H    7.9133141600   1.1039561200   1.6505370500
| 83> H    7.2457858300  -0.3641073900   0.9246857400
| 84> H    3.9926665800   3.1030621600  -0.3792979300
| 85> H    5.5094361200   3.8558025600  -0.9097045400
| 86> H    4.5835234800   4.5643879400   0.4241013200
| 87> H    7.3326803700   3.1063878000   2.3859260400
| 88> H    6.4374035400   4.5641122000   1.9443275200
| 89> H    7.5703131200   3.8417466700   0.7892953400
| 90> H    2.9482161000  -3.0545224000  -1.3679678700
| 91> H    3.7943733200  -3.1012329900   0.1892572200
| 92> H    4.6510155500  -2.5869819800  -1.2752299300
| 93> *
| 94> %eprnmr
| 95>  Nuclei = all H { shift }
| 96>  origin giao
| 97>  giao_2el giao_2el_same_as_scf
| 98>  giao_1el giao_1el_analytic
| 99> end
|100> 
|101>                          ****END OF INPUT****
================================================================================

                       ****************************
                       * Single Point Calculation *
                       ****************************

---------------------------------
CARTESIAN COORDINATES (ANGSTROEM)
---------------------------------
  C     -4.956020    0.253192   -0.528277
  C     -6.409853   -0.136194   -0.654309
  C     -7.296254    0.846052    0.122483
  H     -6.571613   -1.156916   -0.289476
  H     -6.715272   -0.101218   -1.710574
  C     -4.675052    1.652390   -0.920382
  C     -5.584094    2.675679   -0.276049
  C     -7.062549    2.273668   -0.374476
  H     -5.422364    3.661504   -0.724933
  H     -5.312187    2.758405    0.787285
  H     -7.390606    2.332678   -1.421198
  H     -7.680849    2.968920    0.205137
  O     -7.062783    0.730493    1.536003
  H     -8.350582    0.577663   -0.018524
  C     -4.038380   -0.608782   -0.029234
  C     -3.726636    1.988523   -1.801464
  H     -3.095184    1.236213   -2.266673
  H     -3.567801    3.026650   -2.083920
  C     -2.647921   -0.314468    0.230498
  H     -4.399603   -1.605011    0.223377
  C     -1.703100   -1.190038    0.634511
  H     -2.350070    0.722210    0.090078
  C     -1.910050   -2.665971    0.863001
  C     -0.914485   -3.513667    0.047003
  H     -2.932424   -2.982494    0.639009
  H     -1.736727   -2.869119    1.931818
  C      0.540514   -3.061174    0.232712
  H     -1.186621   -3.461589   -1.014786
  H     -1.012407   -4.565589    0.342125
  C      0.714040   -1.562552   -0.051225
  H      1.185727   -3.666430   -0.412705
  H      0.851440   -3.255233    1.270311
  C     -0.279525   -0.793132    0.877480
  H     -0.028222   -1.139281    1.896984
  C      0.163256    0.663272    0.773472
  H     -6.107946    0.644163    1.668752
  C      1.704127    0.567283    0.656196
  H     -0.162328    1.254665    1.635704
  H     -0.259232    1.136124   -0.120241
  C      2.054674   -0.932322    0.417971
  H      2.208461    0.942619    1.552185
  H      2.072714    1.173756   -0.179468
  H      2.292741   -1.396979    1.388770
  C      3.302803   -1.083281   -0.476855
  C      0.445281   -1.245796   -1.528083
  H      0.667549   -0.200170   -1.764843
  H     -0.601815   -1.423976   -1.792081
  H      1.067487   -1.872240   -2.176549
  H      3.098028   -0.585329   -1.436121
  C      3.690764   -2.543668   -0.749824
  C      4.461530   -0.377650    0.176823
  C      5.079234    0.696045   -0.314389
  H      4.787554   -0.809667    1.126239
  H      4.722743    1.097476   -1.264732
  C      6.209663    1.455071    0.337242
  C      6.985375    0.609764    1.351730
  C      5.685869    2.774810    0.971115
  H      6.906817    1.752332   -0.464328
  H      5.005037    2.482182    1.786703
  C      4.893348    3.618097   -0.032565
  C      6.823823    3.613186    1.561277
  H      6.393040    0.434233    2.257750
  H      7.913314    1.103956    1.650537
  H      7.245786   -0.364107    0.924686
  H      3.992667    3.103062   -0.379298
  H      5.509436    3.855803   -0.909705
  H      4.583523    4.564388    0.424101
  H      7.332680    3.106388    2.385926
  H      6.437404    4.564112    1.944328
  H      7.570313    3.841747    0.789295
  H      2.948216   -3.054522   -1.367968
  H      3.794373   -3.101233    0.189257
  H      4.651016   -2.586982   -1.275230

----------------------------
CARTESIAN COORDINATES (A.U.)
----------------------------
  NO LB      ZA    FRAG     MASS         X           Y           Z
   0 C     6.0000    0    12.011   -9.365520    0.478464   -0.998298
   1 C     6.0000    0    12.011  -12.112868   -0.257369   -1.236465
   2 C     6.0000    0    12.011  -13.787923    1.598807    0.231460
   3 H     1.0000    0     1.008  -12.418550   -2.186255   -0.547030
   4 H     1.0000    0     1.008  -12.690025   -0.191274   -3.232517
   5 C     6.0000    0    12.011   -8.834567    3.122565   -1.739270
   6 C     6.0000    0    12.011  -10.552409    5.056300   -0.521657
   7 C     6.0000    0    12.011  -13.346284    4.296610   -0.707656
   8 H     1.0000    0     1.008  -10.246782    6.919241   -1.369924
   9 H     1.0000    0     1.008  -10.038579    5.212630    1.487753
  10 H     1.0000    0     1.008  -13.966221    4.408122   -2.685675
  11 H     1.0000    0     1.008  -14.514701    5.610446    0.387653
  12 O     8.0000    0    15.999  -13.346726    1.380432    2.902624
  13 H     1.0000    0     1.008  -15.780313    1.091625   -0.035006
  14 C     6.0000    0    12.011   -7.631432   -1.150430   -0.055244
  15 C     6.0000    0    12.011   -7.042321    3.757764   -3.404273
  16 H     1.0000    0     1.008   -5.849050    2.336105   -4.283392
  17 H     1.0000    0     1.008   -6.742167    5.719539   -3.938038
  18 C     6.0000    0    12.011   -5.003846   -0.594258    0.435578
  19 H     1.0000    0     1.008   -8.314044   -3.033032    0.422121
  20 C     6.0000    0    12.011   -3.218393   -2.248846    1.199051
  21 H     1.0000    0     1.008   -4.440989    1.364779    0.170222
  22 C     6.0000    0    12.011   -3.609472   -5.037955    1.630836
  23 C     6.0000    0    12.011   -1.728127   -6.639868    0.088822
  24 H     1.0000    0     1.008   -5.541478   -5.636097    1.207553
  25 H     1.0000    0     1.008   -3.281939   -5.421849    3.650606
  26 C     6.0000    0    12.011    1.021424   -5.784781    0.439763
  27 H     1.0000    0     1.008   -2.242389   -6.541456   -1.917667
  28 H     1.0000    0     1.008   -1.913172   -8.627713    0.646522
  29 C     6.0000    0    12.011    1.349340   -2.952795   -0.096801
  30 H     1.0000    0     1.008    2.240699   -6.928548   -0.779900
  31 H     1.0000    0     1.008    1.608988   -6.151500    2.400540
  32 C     6.0000    0    12.011   -0.528226   -1.498802    1.658197
  33 H     1.0000    0     1.008   -0.053332   -2.152929    3.584780
  34 C     6.0000    0    12.011    0.308509    1.253403    1.461651
  35 H     1.0000    0     1.008  -11.542345    1.217291    3.153484
  36 C     6.0000    0    12.011    3.220333    1.072010    1.240031
  37 H     1.0000    0     1.008   -0.306755    2.370973    3.091033
  38 H     1.0000    0     1.008   -0.489877    2.146964   -0.227222
  39 C     6.0000    0    12.011    3.882771   -1.761834    0.789850
  40 H     1.0000    0     1.008    4.173387    1.781293    2.933205
  41 H     1.0000    0     1.008    3.916861    2.218077   -0.339146
  42 H     1.0000    0     1.008    4.332653   -2.639908    2.624395
  43 C     6.0000    0    12.011    6.241393   -2.047105   -0.901125
  44 C     6.0000    0    12.011    0.841458   -2.354213   -2.887659
  45 H     1.0000    0     1.008    1.261485   -0.378267   -3.335071
  46 H     1.0000    0     1.008   -1.137265   -2.690924   -3.386542
  47 H     1.0000    0     1.008    2.017258   -3.538022   -4.113081
  48 H     1.0000    0     1.008    5.854425   -1.106112   -2.713875
  49 C     6.0000    0    12.011    6.974533   -4.806835   -1.416962
  50 C     6.0000    0    12.011    8.431071   -0.713655    0.334147
  51 C     6.0000    0    12.011    9.598361    1.315334   -0.594110
  52 H     1.0000    0     1.008    9.047165   -1.530049    2.128283
  53 H     1.0000    0     1.008    8.924691    2.073929   -2.389997
  54 C     6.0000    0    12.011   11.734562    2.749687    0.637295
  55 C     6.0000    0    12.011   13.200446    1.152287    2.554400
  56 C     6.0000    0    12.011   10.744736    5.243631    1.835142
  57 H     1.0000    0     1.008   13.051993    3.311428   -0.877453
  58 H     1.0000    0     1.008    9.458150    4.690644    3.376380
  59 C     6.0000    0    12.011    9.247087    6.837213   -0.061539
  60 C     6.0000    0    12.011   12.895157    6.827931    2.950385
  61 H     1.0000    0     1.008   12.081094    0.820581    4.266529
  62 H     1.0000    0     1.008   14.953997    2.086175    3.119063
  63 H     1.0000    0     1.008   13.692551   -0.688063    1.747403
  64 H     1.0000    0     1.008    7.545046    5.863938   -0.716769
  65 H     1.0000    0     1.008   10.411325    7.286411   -1.719092
  66 H     1.0000    0     1.008    8.661604    8.625443    0.801435
  67 H     1.0000    0     1.008   13.856758    5.870222    4.508747
  68 H     1.0000    0     1.008   12.164930    8.624922    3.674247
  69 H     1.0000    0     1.008   14.305819    7.259849    1.491552
  70 H     1.0000    0     1.008    5.571321   -5.772211   -2.585085
  71 H     1.0000    0     1.008    7.170326   -5.860481    0.357644
  72 H     1.0000    0     1.008    8.789146   -4.888687   -2.409835

--------------------------------
INTERNAL COORDINATES (ANGSTROEM)
--------------------------------
 C      0   0   0     0.000000000000     0.00000000     0.00000000
 C      1   0   0     1.510343451815     0.00000000     0.00000000
 C      2   1   0     1.534248969424   110.41528592     0.00000000
 H      2   1   3     1.095967522933   110.75713157   237.87105706
 H      2   1   3     1.100090698398   109.82618632   118.72251589
 C      1   2   3     1.480015379690   113.85137709   305.89010151
 C      6   1   2     1.512826247966   114.36574930    50.02005661
 C      3   2   1     1.529599324274   110.16719064    56.86719991
 H      7   6   1     1.095219596269   110.21533938   188.68119253
 H      7   6   1     1.100661560532   108.29229776    71.98514298
 H      8   3   2     1.098512904132   108.30558609    64.49123484
 H      8   3   2     1.096184731469   109.51115965   181.48735824
 O      3   2   1     1.437323984966   110.64633907   292.85937737
 H      3   2   1     1.097051617874   109.48383867   177.31198914
 C      1   2   3     1.354291631721   121.25749967   122.57830078
 C      6   1   2     1.337453931624   123.14441621   232.01358854
 H     16   6   1     1.086793836186   121.33464393   358.94616090
 H     16   6   1     1.087527986337   120.96894574   178.36085887
 C     15   1   2     1.444803238491   126.06360726   184.95921275
 H     15   1   2     1.089388675803   116.28394395     3.06481221
 C     19  15   1     1.350013279391   126.52825413   185.21072639
 H     19  15   1     1.087719312389   115.75153474     5.76346236
 C     21  19  15     1.507784890066   125.74333815     1.59973609
 C     23  21  19     1.541295161820   111.68388219   125.17561576
 H     23  21  19     1.093438307393   112.37398942     1.46255182
 H     23  21  19     1.101670721683   107.81424340   243.78611258
 C     24  23  21     1.535011817430   112.71086055    50.69612374
 H     24  23  21     1.097344096516   109.02506349   288.55143375
 H     24  23  21     1.096916379570   109.10664783   172.63635435
 C     27  24  23     1.535122686255   111.87238405   306.55009130
 H     27  24  23     1.095078639531   108.92012245   183.03333246
 H     27  24  23     1.100429580909   109.26344973    66.51187387
 C     21  19  15     1.497709861694   122.81256575   179.88148874
 H     33  21  19     1.105603832914   106.41971901   126.97775797
 C     33  21  19     1.525773768291   121.18059651     4.38140389
 H     13   3   2     0.967879000366   107.59582012    41.87202197
 C     35  33  21     1.548306127213   103.57943243   196.91182318
 H     35  33  21     1.095077130083   112.05764639    74.92842928
 H     35  33  21     1.095813919032   110.83013214   315.31570360
 C     30  27  24     1.553908878598   115.95137592   166.34030212
 H     37  35  33     1.094543959273   112.04253629   249.39215253
 H     37  35  33     1.096357481225   110.97849999   130.83574379
 H     40  30  27     1.102285524772   106.33748939   321.26779002
 C     40  30  27     1.543154724198   118.88425451    82.10060901
 C     30  27  24     1.534169616801   111.08836353   294.25491815
 H     45  30  27     1.094893377713   111.70182030   185.97158755
 H     45  30  27     1.094463992535   111.48071748    65.92187191
 H     45  30  27     1.095482057700   110.62596547   305.84124752
 H     44  40  30     1.100036498886   108.10849720    62.01970705
 C     44  40  30     1.535497904535   113.60822589   301.13820468
 C     44  40  30     1.505941539383   108.95318635   179.19790825
 C     51  44  40     1.332541591699   125.04446566   245.31646312
 H     51  44  40     1.092849830872   114.92349509    65.13328071
 H     52  51  44     1.091505041550   117.76797963   359.86390012
 C     52  51  44     1.509508107729   126.38201573   177.70458514
 C     55  52  51     1.531489889611   112.81323502    22.80025649
 C     55  52  51     1.554948326616   110.51687580   257.00503687
 H     55  52  51     1.103133434449   107.16306855   141.60685858
 H     57  55  52     1.101974344408   106.52573627    65.21543767
 C     57  55  52     1.531860776633   111.98783395   307.16951878
 C     57  55  52     1.531699333579   111.79947059   183.72172536
 H     56  55  52     1.096605848101   111.22616669   288.22392130
 H     56  55  52     1.092969359250   111.19604460   168.11357157
 H     56  55  52     1.094808619529   110.67537018    48.23411394
 H     60  57  55     1.093943069602   111.99047910    62.90208461
 H     60  57  55     1.097926560038   110.62933169   302.23279019
 H     60  57  55     1.095445644760   110.40955315   183.05706258
 H     61  57  55     1.093538517910   112.49487197   296.64898956
 H     61  57  55     1.095586407609   110.34996600   176.44675558
 H     61  57  55     1.097926538339   110.37478895    57.45299811
 H     50  44  40     1.092909785310   111.92821359    67.49245063
 H     50  44  40     1.097035659088   110.79785807   306.74536706
 H     50  44  40     1.095450305056   110.14204006   187.41265573

---------------------------
INTERNAL COORDINATES (A.U.)
---------------------------
 C      0   0   0     0.000000000000     0.00000000     0.00000000
 C      1   0   0     2.854135492092     0.00000000     0.00000000
 C      2   1   0     2.899310373462   110.41528592     0.00000000
 H      2   1   3     2.071078470015   110.75713157   237.87105706
 H      2   1   3     2.078870142446   109.82618632   118.72251589
 C      1   2   3     2.796823741606   113.85137709   305.89010151
 C      6   1   2     2.858827296864   114.36574930    50.02005661
 C      3   2   1     2.890523817508   110.16719064    56.86719991
 H      7   6   1     2.069665093452   110.21533938   188.68119253
 H      7   6   1     2.079948915540   108.29229776    71.98514298
 H      8   3   2     2.075888543387   108.30558609    64.49123484
 H      8   3   2     2.071488934663   109.51115965   181.48735824
 O      3   2   1     2.716148697302   110.64633907   292.85937737
 H      3   2   1     2.073127112558   109.48383867   177.31198914
 C      1   2   3     2.559240289415   121.25749967   122.57830078
 C      6   1   2     2.527421647505   123.14441621   232.01358854
 H     16   6   1     2.053742714425   121.33464393   358.94616090
 H     16   6   1     2.055130057151   120.96894574   178.36085887
 C     15   1   2     2.730282438150   126.06360726   184.95921275
 H     15   1   2     2.058646250662   116.28394395     3.06481221
 C     19  15   1     2.551155375206   126.52825413   185.21072639
 H     19  15   1     2.055491610992   115.75153474     5.76346236
 C     21  19  15     2.849300511090   125.74333815     1.59973609
 C     23  21  19     2.912625747378   111.68388219   125.17561576
 H     23  21  19     2.066298945311   112.37398942     1.46255182
 H     23  21  19     2.081855953741   107.81424340   243.78611258
 C     24  23  21     2.900751947276   112.71086055    50.69612374
 H     24  23  21     2.073679817091   109.02506349   288.55143375
 H     24  23  21     2.072871549200   109.10664783   172.63635435
 C     27  24  23     2.900961458991   111.87238405   306.55009130
 H     27  24  23     2.069398723821   108.92012245   183.03333246
 H     27  24  23     2.079510537584   109.26344973    66.51187387
 C     21  19  15     2.830261466674   122.81256575   179.88148874
 H     33  21  19     2.089288456821   106.41971901   126.97775797
 C     33  21  19     2.883294564392   121.18059651     4.38140389
 H     13   3   2     1.829026241465   107.59582012    41.87202197
 C     35  33  21     2.925874551905   103.57943243   196.91182318
 H     35  33  21     2.069395871377   112.05764639    74.92842928
 H     35  33  21     2.070788200709   110.83013214   315.31570360
 C     30  27  24     2.936462217618   115.95137592   166.34030212
 H     37  35  33     2.068388324564   112.04253629   249.39215253
 H     37  35  33     2.071815384390   110.97849999   130.83574379
 H     40  30  27     2.083017763204   106.33748939   321.26779002
 C     40  30  27     2.916139811001   118.88425451    82.10060901
 C     30  27  24     2.899160418737   111.08836353   294.25491815
 H     45  30  27     2.069048629722   111.70182030   185.97158755
 H     45  30  27     2.068237209328   111.48071748    65.92187191
 H     45  30  27     2.070161073678   110.62596547   305.84124752
 H     44  40  30     2.078767720211   108.10849720    62.01970705
 C     44  40  30     2.901670518781   113.60822589   301.13820468
 C     44  40  30     2.845817083130   108.95318635   179.19790825
 C     51  44  40     2.518138670370   125.04446566   245.31646312
 H     51  44  40     2.065186885850   114.92349509    65.13328071
 H     52  51  44     2.062645602325   117.76797963   359.86390012
 C     52  51  44     2.852556920542   126.38201573   177.70458514
 C     55  52  51     2.894096468234   112.81323502    22.80025649
 C     55  52  51     2.938426489703   110.51687580   257.00503687
 H     55  52  51     2.084620080281   107.16306855   141.60685858
 H     57  55  52     2.082429717539   106.52573627    65.21543767
 C     57  55  52     2.894797343133   111.98783395   307.16951878
 C     57  55  52     2.894492259974   111.79947059   183.72172536
 H     56  55  52     2.072284729768   111.22616669   288.22392130
 H     56  55  52     2.065412761750   111.19604460   168.11357157
 H     56  55  52     2.068888459967   110.67537018    48.23411394
 H     60  57  55     2.067252807650   111.99047910    62.90208461
 H     60  57  55     2.074780513631   110.62933169   302.23279019
 H     60  57  55     2.070092263194   110.40955315   183.05706258
 H     61  57  55     2.066488315745   112.49487197   296.64898956
 H     61  57  55     2.070358266427   110.34996600   176.44675558
 H     61  57  55     2.074780472624   110.37478895    57.45299811
 H     50  44  40     2.065300183319   111.92821359    67.49245063
 H     50  44  40     2.073096954822   110.79785807   306.74536706
 H     50  44  40     2.070101069876   110.14204006   187.41265573

---------------------
BASIS SET INFORMATION
---------------------
There are 3 groups of distinct atoms

 Group   1 Type C   : 8s5p1d contracted to 3s3p1d pattern {521/311/1}
 Group   2 Type H   : 4s2p contracted to 2s1p pattern {31/2}
 Group   3 Type O   : 8s5p1d contracted to 3s3p1d pattern {521/311/1}

Atom   0C    basis set group =>   1
Atom   1C    basis set group =>   1
Atom   2C    basis set group =>   1
Atom   3H    basis set group =>   2
Atom   4H    basis set group =>   2
Atom   5C    basis set group =>   1
Atom   6C    basis set group =>   1
Atom   7C    basis set group =>   1
Atom   8H    basis set group =>   2
Atom   9H    basis set group =>   2
Atom  10H    basis set group =>   2
Atom  11H    basis set group =>   2
Atom  12O    basis set group =>   3
Atom  13H    basis set group =>   2
Atom  14C    basis set group =>   1
Atom  15C    basis set group =>   1
Atom  16H    basis set group =>   2
Atom  17H    basis set group =>   2
Atom  18C    basis set group =>   1
Atom  19H    basis set group =>   2
Atom  20C    basis set group =>   1
Atom  21H    basis set group =>   2
Atom  22C    basis set group =>   1
Atom  23C    basis set group =>   1
Atom  24H    basis set group =>   2
Atom  25H    basis set group =>   2
Atom  26C    basis set group =>   1
Atom  27H    basis set group =>   2
Atom  28H    basis set group =>   2
Atom  29C    basis set group =>   1
Atom  30H    basis set group =>   2
Atom  31H    basis set group =>   2
Atom  32C    basis set group =>   1
Atom  33H    basis set group =>   2
Atom  34C    basis set group =>   1
Atom  35H    basis set group =>   2
Atom  36C    basis set group =>   1
Atom  37H    basis set group =>   2
Atom  38H    basis set group =>   2
Atom  39C    basis set group =>   1
Atom  40H    basis set group =>   2
Atom  41H    basis set group =>   2
Atom  42H    basis set group =>   2
Atom  43C    basis set group =>   1
Atom  44C    basis set group =>   1
Atom  45H    basis set group =>   2
Atom  46H    basis set group =>   2
Atom  47H    basis set group =>   2
Atom  48H    basis set group =>   2
Atom  49C    basis set group =>   1
Atom  50C    basis set group =>   1
Atom  51C    basis set group =>   1
Atom  52H    basis set group =>   2
Atom  53H    basis set group =>   2
Atom  54C    basis set group =>   1
Atom  55C    basis set group =>   1
Atom  56C    basis set group =>   1
Atom  57H    basis set group =>   2
Atom  58H    basis set group =>   2
Atom  59C    basis set group =>   1
Atom  60C    basis set group =>   1
Atom  61H    basis set group =>   2
Atom  62H    basis set group =>   2
Atom  63H    basis set group =>   2
Atom  64H    basis set group =>   2
Atom  65H    basis set group =>   2
Atom  66H    basis set group =>   2
Atom  67H    basis set group =>   2
Atom  68H    basis set group =>   2
Atom  69H    basis set group =>   2
Atom  70H    basis set group =>   2
Atom  71H    basis set group =>   2
Atom  72H    basis set group =>   2

-------------------------
BASIS SET IN INPUT FORMAT
-------------------------

 # Basis set for element : H 
 NewGTO H 
 S 3 
   1      12.2518000000      0.0372173893
   2       1.8687100000      0.2538082070
   3       0.4182080000      0.7973867639
 S 1 
   1       0.1061000000      1.0000000000
 P 2 
   1       9.0000000000      0.0402678705
   2       1.0000000000      0.9880231245
  end;

 # Basis set for element : C 
 NewGTO C 
 S 5 
   1    1243.2000000000      0.0056300977
   2     187.1450000000      0.0419506039
   3      42.5126000000      0.1846643605
   4      11.7393000000      0.4665574214
   5       3.5054800000      0.4482347783
 S 2 
   1       5.3908900000     -0.1481148174
   2       0.4933410000      1.0519817143
 S 1 
   1       0.1497410000      1.0000000000
 P 3 
   1      59.6736000000      0.0113906672
   2       9.1805600000      0.1672414929
   3       1.9365800000      0.9041087436
 P 1 
   1       0.5262960000      1.0000000000
 P 1 
   1       0.1363190000      1.0000000000
 D 1 
   1       0.8000000000      1.0000000000
  end;

 # Basis set for element : O 
 NewGTO O 
 S 5 
   1    2288.6400000000      0.0054511382
   2     344.4160000000      0.0407189228
   3      78.2538000000      0.1813694209
   4      21.7195000000      0.4655368202
   5       6.5590700000      0.4512113212
 S 2 
   1      10.4656000000     -0.1502112012
   2       0.9643510000      1.0528679834
 S 1 
   1       0.2851270000      1.0000000000
 P 3 
   1     110.8840000000      0.0113058003
   2      17.0590000000      0.1699226452
   3       3.6899900000      0.9008060328
 P 1 
   1       0.9929960000      1.0000000000
 P 1 
   1       0.2449240000      1.0000000000
 D 1 
   1       1.0000000000      1.0000000000
  end;

---------------------------------
AUXILIARY/J BASIS SET INFORMATION
---------------------------------
There are 3 groups of distinct atoms

 Group   1 Type C   : 12s5p4d2f1g contracted to 6s4p3d1f1g pattern {711111/2111/211/2/1}
 Group   2 Type H   : 5s2p1d contracted to 3s1p1d pattern {311/2/1}
 Group   3 Type O   : 12s5p4d2f1g contracted to 6s4p3d1f1g pattern {711111/2111/211/2/1}

Atom   0C    basis set group =>   1
Atom   1C    basis set group =>   1
Atom   2C    basis set group =>   1
Atom   3H    basis set group =>   2
Atom   4H    basis set group =>   2
Atom   5C    basis set group =>   1
Atom   6C    basis set group =>   1
Atom   7C    basis set group =>   1
Atom   8H    basis set group =>   2
Atom   9H    basis set group =>   2
Atom  10H    basis set group =>   2
Atom  11H    basis set group =>   2
Atom  12O    basis set group =>   3
Atom  13H    basis set group =>   2
Atom  14C    basis set group =>   1
Atom  15C    basis set group =>   1
Atom  16H    basis set group =>   2
Atom  17H    basis set group =>   2
Atom  18C    basis set group =>   1
Atom  19H    basis set group =>   2
Atom  20C    basis set group =>   1
Atom  21H    basis set group =>   2
Atom  22C    basis set group =>   1
Atom  23C    basis set group =>   1
Atom  24H    basis set group =>   2
Atom  25H    basis set group =>   2
Atom  26C    basis set group =>   1
Atom  27H    basis set group =>   2
Atom  28H    basis set group =>   2
Atom  29C    basis set group =>   1
Atom  30H    basis set group =>   2
Atom  31H    basis set group =>   2
Atom  32C    basis set group =>   1
Atom  33H    basis set group =>   2
Atom  34C    basis set group =>   1
Atom  35H    basis set group =>   2
Atom  36C    basis set group =>   1
Atom  37H    basis set group =>   2
Atom  38H    basis set group =>   2
Atom  39C    basis set group =>   1
Atom  40H    basis set group =>   2
Atom  41H    basis set group =>   2
Atom  42H    basis set group =>   2
Atom  43C    basis set group =>   1
Atom  44C    basis set group =>   1
Atom  45H    basis set group =>   2
Atom  46H    basis set group =>   2
Atom  47H    basis set group =>   2
Atom  48H    basis set group =>   2
Atom  49C    basis set group =>   1
Atom  50C    basis set group =>   1
Atom  51C    basis set group =>   1
Atom  52H    basis set group =>   2
Atom  53H    basis set group =>   2
Atom  54C    basis set group =>   1
Atom  55C    basis set group =>   1
Atom  56C    basis set group =>   1
Atom  57H    basis set group =>   2
Atom  58H    basis set group =>   2
Atom  59C    basis set group =>   1
Atom  60C    basis set group =>   1
Atom  61H    basis set group =>   2
Atom  62H    basis set group =>   2
Atom  63H    basis set group =>   2
Atom  64H    basis set group =>   2
Atom  65H    basis set group =>   2
Atom  66H    basis set group =>   2
Atom  67H    basis set group =>   2
Atom  68H    basis set group =>   2
Atom  69H    basis set group =>   2
Atom  70H    basis set group =>   2
Atom  71H    basis set group =>   2
Atom  72H    basis set group =>   2

-------------------------------------
AUXILIARY/J BASIS SET IN INPUT FORMAT
-------------------------------------

 # Auxiliary/J basis set for element : H 
 NewAuxJGTO H 
 S 3 
   1      15.6752927000      0.1007184237
   2       3.6063578000      0.3404257499
   3       1.2080016000      0.6491996172
 S 1 
   1       0.4726794000      1.0000000000
 S 1 
   1       0.2018100000      1.0000000000
 P 2 
   1       2.0281365000      0.5596620919
   2       0.5358730000      0.5596620919
 D 1 
   1       2.2165124000      1.0000000000
  end;

 # Auxiliary/J basis set for element : C 
 NewAuxJGTO C 
 S 7 
   1    1861.0916331000      0.0134602335
   2     642.9939764000      0.0299160374
   3     235.1105725000      0.1008649584
   4      90.7028894000      0.2370970548
   5      36.7794552000      0.3924037254
   6      15.6046273000      0.3195862154
   7       6.8907294000      0.0530104441
 S 1 
   1       3.1478850000     -1.0000000000
 S 1 
   1       1.4777287000      1.0000000000
 S 1 
   1       0.7076466000      1.0000000000
 S 1 
   1       0.3430122000      1.0000000000
 S 1 
   1       0.1669453000      1.0000000000
 P 2 
   1      13.5472892000     -0.6769313712
   2       5.4669419000     -0.3779500978
 P 1 
   1       2.1751721000      1.0000000000
 P 1 
   1       0.8582194000      1.0000000000
 P 1 
   1       0.3376720000      1.0000000000
 D 2 
   1       5.9287253000     -0.3533329857
   2       1.9809209000     -0.7456525731
 D 1 
   1       0.8055417000     -1.0000000000
 D 1 
   1       0.3531244000     -1.0000000000
 F 2 
   1       1.6755626000      0.6311076882
   2       0.5997536000      0.4968166032
 G 1 
   1       1.0024600000     -1.0000000000
  end;

 # Auxiliary/J basis set for element : O 
 NewAuxJGTO O 
 S 7 
   1    2876.8216605000      0.0168151159
   2    1004.7443032000      0.0340137548
   3     369.7579954000      0.1194951309
   4     142.9442404000      0.2664627624
   5      57.8366425000      0.4202764046
   6      24.3864983000      0.2765077335
   7      10.6622662000      0.0057008815
 S 1 
   1       4.8070437000     -1.0000000000
 S 1 
   1       2.2210770000      1.0000000000
 S 1 
   1       1.0447795000      1.0000000000
 S 1 
   1       0.4968425000      1.0000000000
 S 1 
   1       0.2371384000      1.0000000000
 P 2 
   1      64.2613382000     -0.2731534179
   2      16.3006076000     -0.8168011598
 P 1 
   1       4.3550542000      1.0000000000
 P 1 
   1       1.2019554000      1.0000000000
 P 1 
   1       0.3354196000      1.0000000000
 D 2 
   1       9.2146611000     -0.4661230638
   2       2.8435251000     -0.6600908911
 D 1 
   1       0.9955759000     -1.0000000000
 D 1 
   1       0.3649441000     -1.0000000000
 F 2 
   1       2.6420115000      0.5931563945
   2       0.7345613000      0.5931563945
 G 1 
   1       1.3931000000     -1.0000000000
  end;



           ************************************************************
           *        Program running with 4 parallel MPI-processes     *
           *              working on a common directory               *
           ************************************************************
------------------------------------------------------------------------------
                           ORCA GTO INTEGRAL CALCULATION
                           -- RI-GTO INTEGRALS CHOSEN --
------------------------------------------------------------------------------
------------------------------------------------------------------------------
                   ___                                                        
                  /   \      - P O W E R E D   B Y -                         
                 /     \                                                     
                 |  |  |   _    _      __       _____    __    __             
                 |  |  |  | |  | |    /  \     |  _  \  |  |  /  |          
                  \  \/   | |  | |   /    \    | | | |  |  | /  /          
                 / \  \   | |__| |  /  /\  \   | |_| |  |  |/  /          
                |  |  |   |  __  | /  /__\  \  |    /   |      \           
                |  |  |   | |  | | |   __   |  |    \   |  |\   \          
                \     /   | |  | | |  |  |  |  | |\  \  |  | \   \       
                 \___/    |_|  |_| |__|  |__|  |_| \__\ |__|  \__/        
                                                                              
                      - O R C A' S   B I G   F R I E N D -                    
                                      &                                       
                       - I N T E G R A L  F E E D E R -                       
                                                                              
 v1 FN, 2020, v2 2021                                                         
------------------------------------------------------------------------------


Reading SHARK input file inpS.SHARKINP.tmp ... ok
----------------------
SHARK INTEGRAL PACKAGE
----------------------

Number of atoms                             ...     73
Number of basis functions                   ...    713
Number of shells                            ...    335
Maximum angular momentum                    ...      2
Integral batch strategy                     ... SHARK/LIBINT Hybrid
RI-J (if used) integral strategy            ... SPLIT-RIJ (Revised 2003 algorithm where possible)
Printlevel                                  ...      1
Contraction scheme used                     ... SEGMENTED contraction
Coulomb Range Separation                    ... NOT USED
Exchange Range Separation                   ... NOT USED
Finite Nucleus Model                        ... NOT USED
Auxiliary Coulomb fitting basis             ... AVAILABLE
   # of basis functions in Aux-J            ...   1905
   # of shells in Aux-J                     ...    655
   Maximum angular momentum in Aux-J        ...      4
Auxiliary J/K fitting basis                 ... NOT available
Auxiliary Correlation fitting basis         ... NOT available
Auxiliary 'external' fitting basis          ... NOT available
Integral threshold                          ...     3.000000e-11
Primitive cut-off                           ...     1.000000e-12
Primitive pair pre-selection threshold      ...     1.000000e-12

Calculating pre-screening integrals         ... done (  0.0 sec) Dimension = 335
Organizing shell pair data                  ... done (  0.1 sec)
Shell pair information
Total number of shell pairs                 ...     56280
Shell pairs after pre-screening             ...     31986
Total number of primitive shell pairs       ...    225367
Primitive shell pairs kept                  ...     75091
          la=0 lb=0:   9793 shell pairs
          la=1 lb=0:  13165 shell pairs
          la=1 lb=1:   4282 shell pairs
          la=2 lb=0:   2781 shell pairs
          la=2 lb=1:   1769 shell pairs
          la=2 lb=2:    196 shell pairs

Calculating one electron integrals          ... done (  0.1 sec)
Calculating RI/J V-Matrix + Cholesky decomp.... done (  0.1 sec)
Calculating Nuclear repulsion               ... done (  0.0 sec) ENN=   2800.103966251749 Eh

SHARK setup successfully completed in   0.6 seconds

Maximum memory used throughout the entire GTOINT-calculation: 61.4 MB


           ************************************************************
           *        Program running with 4 parallel MPI-processes     *
           *              working on a common directory               *
           ************************************************************
-------------------------------------------------------------------------------
                                 ORCA SCF
-------------------------------------------------------------------------------

------------
SCF SETTINGS
------------
Hamiltonian:
 Density Functional     Method          .... DFT(GTOs)
 Exchange Functional    Exchange        .... revTPSS
 Correlation Functional Correlation     .... revTPSS
 LDA part of GGA corr.  LDAOpt          .... PW91-LDA
 Gradients option       PostSCFGGA      .... off
   Density functional embedding theory  .... OFF
 RI-approximation to the Coulomb term is turned on
   Number of AuxJ basis functions       .... 1905


General Settings:
 Integral files         IntName         .... inpS
 Hartree-Fock type      HFTyp           .... RHF
 Total Charge           Charge          ....    0
 Multiplicity           Mult            ....    1
 Number of Electrons    NEL             ....  220
 Basis Dimension        Dim             ....  713
 Nuclear Repulsion      ENuc            ....   2800.1039662517 Eh

Convergence Acceleration:
 DIIS                   CNVDIIS         .... on
   Start iteration      DIISMaxIt       ....    12
   Startup error        DIISStart       ....  0.200000
   # of expansion vecs  DIISMaxEq       ....     5
   Bias factor          DIISBfac        ....   1.050
   Max. coefficient     DIISMaxC        ....  10.000
 Trust-Rad. Augm. Hess. CNVTRAH         .... auto
   Auto Start mean grad. ratio tolernc. ....  1.125000
   Auto Start start iteration           ....    20
   Auto Start num. interpolation iter.  ....    10
   Max. Number of Micro iterations      ....    16
   Max. Number of Macro iterations      .... Maxiter - #DIIS iter
   Number of Davidson start vectors     ....     2
   Converg. threshold I  (grad. norm)   ....   1.000e-04
   Converg. threshold II (energy diff.) ....   1.000e-07
   Grad. Scal. Fac. for Micro threshold ....   0.100
   Minimum threshold for Micro iter.    ....   0.010
   NR start threshold (gradient norm)   ....   0.001
   Initial trust radius                 ....   0.400
   Minimum AH scaling param. (alpha)    ....   1.000
   Maximum AH scaling param. (alpha)    .... 1000.000
   Orbital update algorithm             .... Taylor
   White noise on init. David. guess    .... on
   Maximum white noise                  ....   0.010
   Quad. conv. algorithm                .... NR
 SOSCF                  CNVSOSCF        .... off
 Level Shifting         CNVShift        .... on
   Level shift para.    LevelShift      ....    0.2500
   Turn off err/grad.   ShiftErr        ....    0.0010
 Zerner damping         CNVZerner       .... off
 Static damping         CNVDamp         .... on
   Fraction old density DampFac         ....    0.7000
   Max. Damping (<1)    DampMax         ....    0.9800
   Min. Damping (>=0)   DampMin         ....    0.0000
   Turn off err/grad.   DampErr         ....    0.1000
 Fernandez-Rico         CNVRico         .... off

SCF Procedure:
 Maximum # iterations   MaxIter         ....   125
 SCF integral mode      SCFMode         .... Direct
   Integral package                     .... SHARK and LIBINT hybrid scheme
 Reset frequency        DirectResetFreq ....    20
 Integral Threshold     Thresh          ....  3.000e-11 Eh
 Primitive CutOff       TCut            ....  1.000e-12 Eh

Convergence Tolerance:
 Convergence Check Mode ConvCheckMode   .... Total+1el-Energy
 Convergence forced     ConvForced      .... 0
 Energy Change          TolE            ....  1.000e-07 Eh
 1-El. energy change                    ....  1.000e-04 Eh
 DIIS Error             TolErr          ....  1.000e-07


Diagonalization of the overlap matrix:
Smallest eigenvalue                        ... 5.132e-04
Time for diagonalization                   ...    0.064 sec
Threshold for overlap eigenvalues          ... 1.000e-08
Number of eigenvalues below threshold      ... 0
Time for construction of square roots      ...    0.056 sec
Total time needed                          ...    0.122 sec

Time for model grid setup =    0.952 sec

------------------------------
INITIAL GUESS: MODEL POTENTIAL
------------------------------
Loading Hartree-Fock densities                     ... done
Calculating cut-offs                               ... done
Initializing the effective Hamiltonian             ... done
Setting up the integral package (SHARK)            ... done
Starting the Coulomb interaction                   ... done (   0.7 sec)
Reading the grid                                   ... done
Mapping shells                                     ... done
Starting the XC term evaluation                    ... done (   0.3 sec)
  promolecular density results
     # of electrons  =    219.974529061
     EX              =   -164.428173591
     EC              =     -7.326667823
     EX+EC           =   -171.754841414
Transforming the Hamiltonian                       ... done (   0.0 sec)
Diagonalizing the Hamiltonian                      ... done (   0.1 sec)
Back transforming the eigenvectors                 ... done (   0.0 sec)
Now organizing SCF variables                       ... done
                      ------------------
                      INITIAL GUESS DONE (   2.1 sec)
                      ------------------
-------------------
DFT GRID GENERATION
-------------------

General Integration Accuracy     IntAcc      ... 4.388
Radial Grid Type                 RadialGrid  ... OptM3 with GC (2021)
Angular Grid (max. ang.)         AngularGrid ... 4 (Lebedev-302)
Angular grid pruning method      GridPruning ... 4 (adaptive)
Weight generation scheme         WeightScheme... Becke
Basis function cutoff            BFCut       ... 1.0000e-11
Integration weight cutoff        WCut        ... 1.0000e-14
Angular grids for H and He will be reduced by one unit
Partially contracted basis set               ... off
Rotationally invariant grid construction     ... off

Total number of grid points                  ...   309868
Total number of batches                      ...     4879
Average number of points per batch           ...       63
Average number of grid points per atom       ...     4245
Time for grid setup =    3.340 sec


--------------------
CPCM SOLVATION MODEL
--------------------
CPCM parameters:
  Epsilon                                         ...       4.9000
  Refrac                                          ...       1.4500
  Rsolv                                           ...       1.3000
  Surface type                                    ... GAUSSIAN VDW
  Epsilon function type                           ...         CPCM
Radii:
 Radius for C  used is    3.8550 Bohr (=   2.0400 Ang.)
 Radius for H  used is    2.4944 Bohr (=   1.3200 Ang.)
 Radius for O  used is    3.4469 Bohr (=   1.8240 Ang.)
Calculating surface                               ...        done! (  0.0s)
GEPOL surface points                              ...         3642
GEPOL Volume                                      ...    3604.8503
GEPOL Surface-area                                ...    1792.9484
Calculating surface distance matrix               ...        done! (  0.1s)
Performing Cholesky decomposition & store         ...        done! (  0.5s)
Overall time for CPCM initialization              ...                 0.6s
--------------
SCF ITERATIONS
--------------
ITER       Energy         Delta-E        Max-DP      RMS-DP      [F,P]     Damp
               ***  Starting incremental Fock matrix formation  ***

  HOMO= 109 E= -1.915 eV LUMO=  7.772 eV gap=   9.687 eV
  0  -1167.5240165754   0.000000000000 0.05550423  0.00082743  0.2628672 0.7000

  HOMO= 109 E= -3.437 eV LUMO=  6.672 eV gap=  10.109 eV
  1  -1167.8972952253  -0.373278649848 0.02895023  0.00061151  0.1013704 0.7000
                               ***Turning on DIIS***

  HOMO= 109 E= -4.412 eV LUMO=  5.789 eV gap=  10.201 eV
  2  -1168.0437119926  -0.146416767260 0.04772439  0.00100942  0.0321799 0.0000

  HOMO= 109 E= -5.032 eV LUMO=  5.207 eV gap=  10.239 eV
  3  -1168.2411479576  -0.197435965008 0.02317208  0.00047109  0.0534547 0.0000

  HOMO= 109 E= -5.056 eV LUMO=  5.182 eV gap=  10.239 eV
  4  -1168.3081204336  -0.066972476063 0.00747071  0.00015177  0.0104756 0.0000

  HOMO= 109 E= -5.012 eV LUMO=  5.234 eV gap=  10.246 eV
  5  -1168.3111959085  -0.003075474873 0.00348476  0.00005711  0.0105197 0.0000

  HOMO= 109 E= -4.993 eV LUMO=  5.251 eV gap=  10.243 eV
  6  -1168.3114734524  -0.000277543874 0.00125700  0.00001921  0.0029658 0.0000

  HOMO= 109 E= -4.994 eV LUMO= -1.554 eV gap=   3.440 eV
  7  -1168.3114929512  -0.000019498808 0.00070410  0.00001166  0.0005238 0.0000

  HOMO= 109 E= -4.992 eV LUMO= -1.552 eV gap=   3.440 eV
  8  -1168.3114960383  -0.000003087142 0.00025742  0.00000286  0.0003692 0.0000

  HOMO= 109 E= -4.990 eV LUMO= -1.550 eV gap=   3.440 eV
  9  -1168.3114966427  -0.000000604423 0.00015649  0.00000152  0.0002456 0.0000

  HOMO= 109 E= -4.991 eV LUMO= -1.550 eV gap=   3.440 eV
 10  -1168.3114969135  -0.000000270757 0.00006918  0.00000070  0.0000944 0.0000

  HOMO= 109 E= -4.991 eV LUMO= -1.551 eV gap=   3.440 eV
 11  -1168.3114969349  -0.000000021391 0.00003012  0.00000029  0.0000285 0.0000

  HOMO= 109 E= -4.991 eV LUMO= -1.551 eV gap=   3.440 eV
 12  -1168.3114969279   0.000000007016 0.00001473  0.00000013  0.0000160 0.0000

  HOMO= 109 E= -4.991 eV LUMO= -1.551 eV gap=   3.440 eV
 13  -1168.3114969611  -0.000000033200 0.00000647  0.00000006  0.0000074 0.0000
                 **** Energy Check signals convergence ****

               *****************************************************
               *                     SUCCESS                       *
               *           SCF CONVERGED AFTER  14 CYCLES          *
               *****************************************************


----------------
TOTAL SCF ENERGY
----------------

Total Energy       :        -1168.31149697 Eh          -31791.37207 eV

Components:
Nuclear Repulsion  :         2800.10396625 Eh           76194.70259 eV
Electronic Energy  :        -3968.41546322 Eh         -107986.07466 eV
One Electron Energy:        -7146.34623853 Eh         -194461.96741 eV
Two Electron Energy:         3177.93077531 Eh           86475.89275 eV
CPCM Dielectric    :           -0.00898380 Eh              -0.24446 eV

Virial components:
Potential Energy   :        -2330.41371031 Eh          -63413.78095 eV
Kinetic Energy     :         1162.10221334 Eh           31622.40888 eV
Virial Ratio       :            2.00534315


DFT components:
N(Alpha)           :      109.999995110764 electrons
N(Beta)            :      109.999995110764 electrons
N(Total)           :      219.999990221527 electrons
E(X)               :     -169.582655878297 Eh       
E(C)               :       -7.443477985364 Eh       
E(XC)              :     -177.026133863661 Eh       
DFET-embed. en.    :        0.000000000000 Eh       
CPCM Solvation Model Properties:
Surface-charge          :           -0.04523683
Charge-correction       :           -0.00006916 Eh              -0.00188 eV
Free-energy (cav+disp)  :  This term is not implemented in the current solvation scheme

---------------
SCF CONVERGENCE
---------------

  Last Energy change         ...   -6.9922e-09  Tolerance :   1.0000e-07
  Last MAX-Density change    ...    2.6919e-06  Tolerance :   1.0000e-05
  Last RMS-Density change    ...    2.8666e-08  Tolerance :   1.0000e-06
  Last DIIS Error            ...    3.3363e-06  Tolerance :   1.0000e-07

             **** THE GBW FILE WAS UPDATED (inpS.gbw) ****
             **** DENSITY inpS.scfp WAS UPDATED ****
             **** ENERGY FILE WAS UPDATED (inpS.en.tmp) ****
             **** THE GBW FILE WAS UPDATED (inpS.gbw) ****
             **** DENSITY inpS.scfp WAS UPDATED ****
----------------
ORBITAL ENERGIES
----------------

  NO   OCC          E(Eh)            E(eV) 
   0   2.0000     -18.903699      -514.3958 
   1   2.0000     -10.057240      -273.6714 
   2   2.0000     -10.016486      -272.5624 
   3   2.0000     -10.014748      -272.5152 
   4   2.0000     -10.012217      -272.4463 
   5   2.0000     -10.012093      -272.4429 
   6   2.0000     -10.012030      -272.4412 
   7   2.0000     -10.010559      -272.4012 
   8   2.0000     -10.010014      -272.3863 
   9   2.0000     -10.009879      -272.3826 
  10   2.0000     -10.009743      -272.3790 
  11   2.0000     -10.009150      -272.3628 
  12   2.0000     -10.007687      -272.3230 
  13   2.0000     -10.006368      -272.2871 
  14   2.0000     -10.006298      -272.2852 
  15   2.0000     -10.005715      -272.2694 
  16   2.0000     -10.005112      -272.2529 
  17   2.0000     -10.001001      -272.1411 
  18   2.0000     -10.000802      -272.1357 
  19   2.0000      -9.999570      -272.1021 
  20   2.0000      -9.999496      -272.1001 
  21   2.0000      -9.998518      -272.0735 
  22   2.0000      -9.997325      -272.0410 
  23   2.0000      -9.997081      -272.0344 
  24   2.0000      -9.996371      -272.0151 
  25   2.0000      -9.996304      -272.0133 
  26   2.0000      -9.995857      -272.0011 
  27   2.0000      -9.995394      -271.9885 
  28   2.0000      -9.995354      -271.9874 
  29   2.0000      -0.954374       -25.9698 
  30   2.0000      -0.807771       -21.9806 
  31   2.0000      -0.789520       -21.4839 
  32   2.0000      -0.770591       -20.9688 
  33   2.0000      -0.756996       -20.5989 
  34   2.0000      -0.734630       -19.9903 
  35   2.0000      -0.727915       -19.8076 
  36   2.0000      -0.709030       -19.2937 
  37   2.0000      -0.708813       -19.2878 
  38   2.0000      -0.694314       -18.8932 
  39   2.0000      -0.676146       -18.3989 
  40   2.0000      -0.658294       -17.9131 
  41   2.0000      -0.654598       -17.8125 
  42   2.0000      -0.635984       -17.3060 
  43   2.0000      -0.628029       -17.0895 
  44   2.0000      -0.625364       -17.0170 
  45   2.0000      -0.619258       -16.8509 
  46   2.0000      -0.591424       -16.0935 
  47   2.0000      -0.588365       -16.0102 
  48   2.0000      -0.556217       -15.1354 
  49   2.0000      -0.547639       -14.9020 
  50   2.0000      -0.540973       -14.7206 
  51   2.0000      -0.533993       -14.5307 
  52   2.0000      -0.526378       -14.3235 
  53   2.0000      -0.517886       -14.0924 
  54   2.0000      -0.491209       -13.3665 
  55   2.0000      -0.482838       -13.1387 
  56   2.0000      -0.472480       -12.8568 
  57   2.0000      -0.463432       -12.6106 
  58   2.0000      -0.451279       -12.2799 
  59   2.0000      -0.442372       -12.0375 
  60   2.0000      -0.435360       -11.8467 
  61   2.0000      -0.427274       -11.6267 
  62   2.0000      -0.418304       -11.3826 
  63   2.0000      -0.416878       -11.3438 
  64   2.0000      -0.409003       -11.1295 
  65   2.0000      -0.405724       -11.0403 
  66   2.0000      -0.405169       -11.0252 
  67   2.0000      -0.401908       -10.9365 
  68   2.0000      -0.397701       -10.8220 
  69   2.0000      -0.392539       -10.6815 
  70   2.0000      -0.389356       -10.5949 
  71   2.0000      -0.386719       -10.5232 
  72   2.0000      -0.378109       -10.2889 
  73   2.0000      -0.371980       -10.1221 
  74   2.0000      -0.369310       -10.0494 
  75   2.0000      -0.364703        -9.9241 
  76   2.0000      -0.362160        -9.8549 
  77   2.0000      -0.357347        -9.7239 
  78   2.0000      -0.355169        -9.6646 
  79   2.0000      -0.350329        -9.5329 
  80   2.0000      -0.346778        -9.4363 
  81   2.0000      -0.344810        -9.3828 
  82   2.0000      -0.341778        -9.3003 
  83   2.0000      -0.337230        -9.1765 
  84   2.0000      -0.332023        -9.0348 
  85   2.0000      -0.325886        -8.8678 
  86   2.0000      -0.323367        -8.7993 
  87   2.0000      -0.321197        -8.7402 
  88   2.0000      -0.315923        -8.5967 
  89   2.0000      -0.311191        -8.4679 
  90   2.0000      -0.308048        -8.3824 
  91   2.0000      -0.307430        -8.3656 
  92   2.0000      -0.301331        -8.1996 
  93   2.0000      -0.295969        -8.0537 
  94   2.0000      -0.290425        -7.9029 
  95   2.0000      -0.287153        -7.8138 
  96   2.0000      -0.286201        -7.7879 
  97   2.0000      -0.283479        -7.7139 
  98   2.0000      -0.282362        -7.6835 
  99   2.0000      -0.281379        -7.6567 
 100   2.0000      -0.275556        -7.4983 
 101   2.0000      -0.274384        -7.4664 
 102   2.0000      -0.271481        -7.3874 
 103   2.0000      -0.269302        -7.3281 
 104   2.0000      -0.260027        -7.0757 
 105   2.0000      -0.249267        -6.7829 
 106   2.0000      -0.229993        -6.2584 
 107   2.0000      -0.228718        -6.2237 
 108   2.0000      -0.212485        -5.7820 
 109   2.0000      -0.183409        -4.9908 
 110   0.0000      -0.056982        -1.5505 
 111   0.0000      -0.014352        -0.3905 
 112   0.0000      -0.006201        -0.1687 
 113   0.0000       0.030188         0.8215 
 114   0.0000       0.037844         1.0298 
 115   0.0000       0.039073         1.0632 
 116   0.0000       0.046362         1.2616 
 117   0.0000       0.048239         1.3127 
 118   0.0000       0.053336         1.4513 
 119   0.0000       0.059796         1.6271 
 120   0.0000       0.059998         1.6326 
 121   0.0000       0.064093         1.7441 
 122   0.0000       0.069884         1.9016 
 123   0.0000       0.072659         1.9771 
 124   0.0000       0.077549         2.1102 
 125   0.0000       0.080897         2.2013 
 126   0.0000       0.083227         2.2647 
 127   0.0000       0.086147         2.3442 
 128   0.0000       0.089283         2.4295 
 129   0.0000       0.093044         2.5319 
 130   0.0000       0.098412         2.6779 
 131   0.0000       0.102648         2.7932 
 132   0.0000       0.104779         2.8512 
 133   0.0000       0.104862         2.8535 
 134   0.0000       0.108122         2.9422 
 135   0.0000       0.108990         2.9658 
 136   0.0000       0.112487         3.0609 
 137   0.0000       0.115420         3.1407 
 138   0.0000       0.121455         3.3050 
 139   0.0000       0.123985         3.3738 
 140   0.0000       0.127507         3.4696 
 141   0.0000       0.128194         3.4883 
 142   0.0000       0.130313         3.5460 
 143   0.0000       0.131692         3.5835 
 144   0.0000       0.137495         3.7414 
 145   0.0000       0.140254         3.8165 
 146   0.0000       0.143016         3.8917 
 147   0.0000       0.144975         3.9450 
 148   0.0000       0.148440         4.0393 
 149   0.0000       0.151390         4.1195 
 150   0.0000       0.152065         4.1379 
 151   0.0000       0.155355         4.2274 
 152   0.0000       0.160511         4.3677 
 153   0.0000       0.162722         4.4279 
 154   0.0000       0.165659         4.5078 
 155   0.0000       0.168610         4.5881 
 156   0.0000       0.174597         4.7510 
 157   0.0000       0.177000         4.8164 
 158   0.0000       0.180392         4.9087 
 159   0.0000       0.188253         5.1226 
 160   0.0000       0.191022         5.1980 
 161   0.0000       0.192863         5.2481 
 162   0.0000       0.197843         5.3836 
 163   0.0000       0.200608         5.4588 
 164   0.0000       0.202803         5.5186 
 165   0.0000       0.204166         5.5556 
 166   0.0000       0.208346         5.6694 
 167   0.0000       0.210372         5.7245 
 168   0.0000       0.212980         5.7955 
 169   0.0000       0.217135         5.9085 
 170   0.0000       0.221834         6.0364 
 171   0.0000       0.226721         6.1694 
 172   0.0000       0.227808         6.1990 
 173   0.0000       0.230662         6.2766 
 174   0.0000       0.236065         6.4236 
 175   0.0000       0.243179         6.6172 
 176   0.0000       0.247165         6.7257 
 177   0.0000       0.254422         6.9232 
 178   0.0000       0.263110         7.1596 
 179   0.0000       0.269693         7.3387 
 180   0.0000       0.274213         7.4617 
 181   0.0000       0.278831         7.5874 
 182   0.0000       0.284491         7.7414 
 183   0.0000       0.294353         8.0098 
 184   0.0000       0.296307         8.0629 
 185   0.0000       0.325192         8.8489 
 186   0.0000       0.334211         9.0943 
 187   0.0000       0.337208         9.1759 
 188   0.0000       0.340877         9.2757 
 189   0.0000       0.349149         9.5008 
 190   0.0000       0.354765         9.6536 
 191   0.0000       0.361393         9.8340 
 192   0.0000       0.368911        10.0386 
 193   0.0000       0.369902        10.0655 
 194   0.0000       0.380152        10.3445 
 195   0.0000       0.384323        10.4580 
 196   0.0000       0.384703        10.4683 
 197   0.0000       0.390174        10.6172 
 198   0.0000       0.395617        10.7653 
 199   0.0000       0.402091        10.9414 
 200   0.0000       0.406129        11.0513 
 201   0.0000       0.408569        11.1177 
 202   0.0000       0.414134        11.2692 
 203   0.0000       0.421088        11.4584 
 204   0.0000       0.423281        11.5181 
 205   0.0000       0.428235        11.6529 
 206   0.0000       0.436328        11.8731 
 207   0.0000       0.443538        12.0693 
 208   0.0000       0.451009        12.2726 
 209   0.0000       0.452293        12.3075 
 210   0.0000       0.460891        12.5415 
 211   0.0000       0.465239        12.6598 
 212   0.0000       0.469376        12.7724 
 213   0.0000       0.472155        12.8480 
 214   0.0000       0.475363        12.9353 
 215   0.0000       0.481927        13.1139 
 216   0.0000       0.484136        13.1740 
 217   0.0000       0.492104        13.3908 
 218   0.0000       0.498503        13.5650 
 219   0.0000       0.499952        13.6044 
 220   0.0000       0.501994        13.6600 
 221   0.0000       0.508162        13.8278 
 222   0.0000       0.510650        13.8955 
 223   0.0000       0.517035        14.0692 
 224   0.0000       0.522403        14.2153 
 225   0.0000       0.525698        14.3050 
 226   0.0000       0.531869        14.4729 
 227   0.0000       0.537820        14.6348 
 228   0.0000       0.541035        14.7223 
 229   0.0000       0.542179        14.7535 
 230   0.0000       0.549518        14.9531 
 231   0.0000       0.554449        15.0873 
 232   0.0000       0.554827        15.0976 
 233   0.0000       0.561923        15.2907 
 234   0.0000       0.564434        15.3590 
 235   0.0000       0.570657        15.5284 
 236   0.0000       0.572174        15.5697 
 237   0.0000       0.573923        15.6172 
 238   0.0000       0.574436        15.6312 
 239   0.0000       0.580563        15.7979 
 240   0.0000       0.582164        15.8415 
 241   0.0000       0.585149        15.9227 
 242   0.0000       0.587124        15.9765 
 243   0.0000       0.592189        16.1143 
 244   0.0000       0.596160        16.2223 
 245   0.0000       0.596810        16.2400 
 246   0.0000       0.597935        16.2706 
 247   0.0000       0.601414        16.3653 
 248   0.0000       0.604479        16.4487 
 249   0.0000       0.606043        16.4913 
 250   0.0000       0.608065        16.5463 
 251   0.0000       0.610035        16.5999 
 252   0.0000       0.610787        16.6204 
 253   0.0000       0.613137        16.6843 
 254   0.0000       0.616869        16.7859 
 255   0.0000       0.622219        16.9314 
 256   0.0000       0.625056        17.0086 
 257   0.0000       0.625258        17.0141 
 258   0.0000       0.630003        17.1433 
 259   0.0000       0.632079        17.1997 
 260   0.0000       0.634320        17.2607 
 261   0.0000       0.636323        17.3152 
 262   0.0000       0.639261        17.3952 
 263   0.0000       0.641548        17.4574 
 264   0.0000       0.645914        17.5762 
 265   0.0000       0.650649        17.7051 
 266   0.0000       0.651510        17.7285 
 267   0.0000       0.653096        17.7716 
 268   0.0000       0.655791        17.8450 
 269   0.0000       0.657257        17.8849 
 270   0.0000       0.658812        17.9272 
 271   0.0000       0.665290        18.1035 
 272   0.0000       0.671475        18.2718 
 273   0.0000       0.673570        18.3288 
 274   0.0000       0.675875        18.3915 
 275   0.0000       0.680102        18.5065 
 276   0.0000       0.681856        18.5542 
 277   0.0000       0.685563        18.6551 
 278   0.0000       0.685885        18.6639 
 279   0.0000       0.691720        18.8227 
 280   0.0000       0.696279        18.9467 
 281   0.0000       0.698709        19.0128 
 282   0.0000       0.700127        19.0514 
 283   0.0000       0.707896        19.2628 
 284   0.0000       0.710436        19.3319 
 285   0.0000       0.714985        19.4557 
 286   0.0000       0.722076        19.6487 
 287   0.0000       0.726064        19.7572 
 288   0.0000       0.732495        19.9322 
 289   0.0000       0.733984        19.9727 
 290   0.0000       0.737848        20.0779 
 291   0.0000       0.740263        20.1436 
 292   0.0000       0.749278        20.3889 
 293   0.0000       0.750787        20.4299 
 294   0.0000       0.761095        20.7104 
 295   0.0000       0.771121        20.9833 
 296   0.0000       0.775738        21.1089 
 297   0.0000       0.780781        21.2461 
 298   0.0000       0.783923        21.3316 
 299   0.0000       0.789983        21.4965 
 300   0.0000       0.801241        21.8029 
 301   0.0000       0.804520        21.8921 
 302   0.0000       0.811610        22.0850 
 303   0.0000       0.823075        22.3970 
 304   0.0000       0.841023        22.8854 
 305   0.0000       0.855144        23.2697 
 306   0.0000       0.870272        23.6813 
 307   0.0000       0.877326        23.8733 
 308   0.0000       0.893171        24.3044 
 309   0.0000       0.922368        25.0989 
 310   0.0000       0.932233        25.3673 
 311   0.0000       0.935471        25.4555 
 312   0.0000       0.948226        25.8025 
 313   0.0000       0.961519        26.1643 
 314   0.0000       0.977471        26.5983 
 315   0.0000       0.987459        26.8701 
 316   0.0000       1.002585        27.2817 
 317   0.0000       1.026203        27.9244 
 318   0.0000       1.028162        27.9777 
 319   0.0000       1.040398        28.3107 
 320   0.0000       1.046583        28.4790 
 321   0.0000       1.062097        28.9011 
 322   0.0000       1.077219        29.3126 
 323   0.0000       1.092044        29.7160 
 324   0.0000       1.102344        29.9963 
 325   0.0000       1.111603        30.2483 
 326   0.0000       1.136622        30.9291 
 327   0.0000       1.148653        31.2564 
 328   0.0000       1.162450        31.6319 
 329   0.0000       1.180149        32.1135 
 330   0.0000       1.194208        32.4961 
 331   0.0000       1.226067        33.3630 
 332   0.0000       1.235056        33.6076 
 333   0.0000       1.246002        33.9054 
 334   0.0000       1.254341        34.1324 
 335   0.0000       1.264858        34.4185 
 336   0.0000       1.271767        34.6065 
 337   0.0000       1.294019        35.2120 
 338   0.0000       1.297933        35.3186 
 339   0.0000       1.311972        35.7006 
 340   0.0000       1.329049        36.1653 
 341   0.0000       1.336785        36.3758 
 342   0.0000       1.339041        36.4372 
 343   0.0000       1.351690        36.7813 
 344   0.0000       1.369407        37.2635 
 345   0.0000       1.375235        37.4221 
 346   0.0000       1.389495        37.8101 
 347   0.0000       1.392611        37.8949 
 348   0.0000       1.401308        38.1315 
 349   0.0000       1.408330        38.3226 
 350   0.0000       1.416454        38.5437 
 351   0.0000       1.430230        38.9185 
 352   0.0000       1.436345        39.0849 
 353   0.0000       1.447468        39.3876 
 354   0.0000       1.460333        39.7377 
 355   0.0000       1.466312        39.9004 
 356   0.0000       1.474171        40.1142 
 357   0.0000       1.481688        40.3188 
 358   0.0000       1.497651        40.7532 
 359   0.0000       1.507663        41.0256 
 360   0.0000       1.511150        41.1205 
 361   0.0000       1.522219        41.4217 
 362   0.0000       1.530762        41.6542 
 363   0.0000       1.538106        41.8540 
 364   0.0000       1.552038        42.2331 
 365   0.0000       1.567273        42.6477 
 366   0.0000       1.569908        42.7194 
 367   0.0000       1.588429        43.2233 
 368   0.0000       1.596311        43.4378 
 369   0.0000       1.602976        43.6192 
 370   0.0000       1.610758        43.8310 
 371   0.0000       1.616165        43.9781 
 372   0.0000       1.624965        44.2175 
 373   0.0000       1.630999        44.3817 
 374   0.0000       1.647010        44.8174 
 375   0.0000       1.658139        45.1202 
 376   0.0000       1.661316        45.2067 
 377   0.0000       1.666345        45.3435 
 378   0.0000       1.681531        45.7568 
 379   0.0000       1.684128        45.8275 
 380   0.0000       1.689344        45.9694 
 381   0.0000       1.691969        46.0408 
 382   0.0000       1.700221        46.2654 
 383   0.0000       1.703549        46.3559 
 384   0.0000       1.706797        46.4443 
 385   0.0000       1.713655        46.6309 
 386   0.0000       1.716171        46.6994 
 387   0.0000       1.726155        46.9711 
 388   0.0000       1.732831        47.1527 
 389   0.0000       1.740258        47.3548 
 390   0.0000       1.746191        47.5163 
 391   0.0000       1.750453        47.6323 
 392   0.0000       1.751988        47.6740 
 393   0.0000       1.761484        47.9324 
 394   0.0000       1.764776        48.0220 
 395   0.0000       1.770097        48.1668 
 396   0.0000       1.782413        48.5019 
 397   0.0000       1.783913        48.5427 
 398   0.0000       1.789413        48.6924 
 399   0.0000       1.793992        48.8170 
 400   0.0000       1.797354        48.9085 
 401   0.0000       1.807232        49.1773 
 402   0.0000       1.811027        49.2806 
 403   0.0000       1.819740        49.5176 
 404   0.0000       1.822386        49.5896 
 405   0.0000       1.825908        49.6855 
 406   0.0000       1.833998        49.9056 
 407   0.0000       1.843644        50.1681 
 408   0.0000       1.847656        50.2773 
 409   0.0000       1.853300        50.4309 
 410   0.0000       1.859628        50.6031 
 411   0.0000       1.870495        50.8988 
 412   0.0000       1.874180        50.9990 
 413   0.0000       1.882504        51.2255 
 414   0.0000       1.890840        51.4524 
 415   0.0000       1.892812        51.5060 
 416   0.0000       1.896695        51.6117 
 417   0.0000       1.908409        51.9304 
 418   0.0000       1.916536        52.1516 
 419   0.0000       1.920455        52.2582 
 420   0.0000       1.929233        52.4971 
 421   0.0000       1.935737        52.6741 
 422   0.0000       1.945802        52.9480 
 423   0.0000       1.948325        53.0166 
 424   0.0000       1.953300        53.1520 
 425   0.0000       1.964843        53.4661 
 426   0.0000       1.969764        53.6000 
 427   0.0000       1.970380        53.6168 
 428   0.0000       1.972949        53.6867 
 429   0.0000       1.978271        53.8315 
 430   0.0000       1.984089        53.9898 
 431   0.0000       1.987827        54.0915 
 432   0.0000       1.990103        54.1535 
 433   0.0000       1.994399        54.2703 
 434   0.0000       1.998463        54.3809 
 435   0.0000       2.001241        54.4565 
 436   0.0000       2.004152        54.5357 
 437   0.0000       2.009634        54.6849 
 438   0.0000       2.012716        54.7688 
 439   0.0000       2.021170        54.9988 
 440   0.0000       2.028141        55.1885 
 441   0.0000       2.031019        55.2668 
 442   0.0000       2.038059        55.4584 
 443   0.0000       2.038582        55.4726 
[...]

 --------------
 Nucleus  47H :
 --------------

Diamagnetic contribution to the shielding tensor (ppm) : 
            33.139         -3.858        -4.906
            -6.249         36.938         8.894
            -6.049          9.357        45.710

Paramagnetic contribution to the shielding tensor (ppm): 
            -1.880          2.157         2.841
             4.366         -8.893        -5.847
             3.206         -5.602       -11.141

Total shielding tensor (ppm): 
            31.259         -1.701        -2.065
            -1.883         28.045         3.047
            -2.843          3.755        34.568


 Diagonalized sT*s matrix:
 
 sDSO            31.118           31.383           53.286  iso=      38.596
 sPSO            -4.645           -1.429          -15.841  iso=      -7.305
        ---------------  ---------------  ---------------
 Total           26.473           29.954           37.445  iso=      31.291

 --------------
 Nucleus  48H :
 --------------

Diamagnetic contribution to the shielding tensor (ppm) : 
            37.279         -1.145        -2.489
            -9.396         38.529         0.545
            -2.838         -0.169        43.429

Paramagnetic contribution to the shielding tensor (ppm): 
            -5.891          2.521         2.446
            11.107         -9.764        -1.504
             2.180         -1.477       -13.617

Total shielding tensor (ppm): 
            31.387          1.376        -0.043
             1.711         28.765        -0.959
            -0.658         -1.647        29.811


 Diagonalized sT*s matrix:
 
 sDSO            42.898           40.710           35.628  iso=      39.745
 sPSO           -15.356          -10.706           -3.210  iso=      -9.757
        ---------------  ---------------  ---------------
 Total           27.542           30.004           32.418  iso=      29.988

 --------------
 Nucleus  52H :
 --------------

Diamagnetic contribution to the shielding tensor (ppm) : 
            40.143         -0.442         3.530
             0.202         35.945       -14.268
             8.784         -8.355        43.935

Paramagnetic contribution to the shielding tensor (ppm): 
            -9.666          4.347        -2.754
             3.384         -8.294        14.987
            -6.723         10.519       -22.264

Total shielding tensor (ppm): 
            30.477          3.904         0.775
             3.585         27.651         0.719
             2.061          2.164        21.671


 Diagonalized sT*s matrix:
 
 sDSO            46.476           35.252           38.295  iso=      40.008
 sPSO           -25.175          -10.154           -4.895  iso=     -13.408
        ---------------  ---------------  ---------------
 Total           21.301           25.098           33.400  iso=      26.600

 --------------
 Nucleus  53H :
 --------------

Diamagnetic contribution to the shielding tensor (ppm) : 
            36.712         -1.145         2.082
            -4.371         41.458        -7.071
             5.070         -4.624        41.844

Paramagnetic contribution to the shielding tensor (ppm): 
           -10.065          4.783        -2.672
             8.046        -13.657         8.209
            -5.069          6.148       -18.919

Total shielding tensor (ppm): 
            26.647          3.639        -0.590
             3.675         27.801         1.138
             0.001          1.524        22.924


 Diagonalized sT*s matrix:
 
 sDSO            48.346           35.236           36.432  iso=      40.005
 sPSO           -26.300          -10.920           -5.422  iso=     -14.214
        ---------------  ---------------  ---------------
 Total           22.046           24.316           31.011  iso=      25.791

 --------------
 Nucleus  57H :
 --------------

Diamagnetic contribution to the shielding tensor (ppm) : 
            40.414          3.756        -3.223
             0.210         21.668       -12.692
            -4.742         -5.675        37.869

Paramagnetic contribution to the shielding tensor (ppm): 
            -8.982         -2.027         0.517
             0.482          6.294        11.903
             2.406          4.377        -6.336

Total shielding tensor (ppm): 
            31.432          1.729        -2.707
             0.692         27.962        -0.789
            -2.336         -1.297        31.532


 Diagonalized sT*s matrix:
 
 sDSO            20.275           34.075           45.602  iso=      33.317
 sPSO             7.282           -5.102          -11.204  iso=      -3.008
        ---------------  ---------------  ---------------
 Total           27.556           28.972           34.397  iso=      30.309

 --------------
 Nucleus  58H :
 --------------

Diamagnetic contribution to the shielding tensor (ppm) : 
            34.808          0.103        -8.142
            13.451         37.728         3.754
            -1.021          3.559        39.352

Paramagnetic contribution to the shielding tensor (ppm): 
            -2.888          1.770         6.117
           -11.490         -8.043        -3.950
            -0.805         -4.103        -8.373

Total shielding tensor (ppm): 
            31.920          1.872        -2.025
             1.962         29.685        -0.196
            -1.826         -0.544        30.978


 Diagonalized sT*s matrix:
 
 sDSO            27.605           41.714           42.569  iso=      37.296
 sPSO             0.761          -11.633           -8.433  iso=      -6.435
        ---------------  ---------------  ---------------
 Total           28.366           30.082           34.136  iso=      30.861

 --------------
 Nucleus  61H :
 --------------

Diamagnetic contribution to the shielding tensor (ppm) : 
            34.709          1.977        -2.308
            -2.677         19.415       -13.001
             3.926         -8.338        41.245

Paramagnetic contribution to the shielding tensor (ppm): 
            -5.132         -0.690         2.203
             4.197          9.900        10.187
            -4.402          5.474        -7.633

Total shielding tensor (ppm): 
            29.576          1.287        -0.104
             1.520         29.315        -2.813
            -0.476         -2.864        33.612


 Diagonalized sT*s matrix:
 
 sDSO            19.258           31.394           44.717  iso=      31.790
 sPSO             8.057           -1.373           -9.549  iso=      -0.955
        ---------------  ---------------  ---------------
 Total           27.315           30.020           35.168  iso=      30.834

 --------------
 Nucleus  62H :
 --------------

Diamagnetic contribution to the shielding tensor (ppm) : 
            44.199          8.074         8.277
            -1.481          4.599        -6.730
             2.577         -4.210        27.088

Paramagnetic contribution to the shielding tensor (ppm): 
            -9.490         -7.196        -3.906
             2.190         25.365         6.670
             1.931          4.833        -0.496

Total shielding tensor (ppm): 
            34.709          0.878         4.371
             0.710         29.964        -0.060
             4.508          0.623        26.591


 Diagonalized sT*s matrix:
 
 sDSO            25.643            5.249           44.994  iso=      25.295
 sPSO            -1.009           24.612           -8.225  iso=       5.126
        ---------------  ---------------  ---------------
 Total           24.634           29.861           36.769  iso=      30.421

 --------------
 Nucleus  63H :
 --------------

Diamagnetic contribution to the shielding tensor (ppm) : 
            35.921         -5.460         2.572
           -15.539         24.691       -12.303
            -1.475         -4.741        21.361

Paramagnetic contribution to the shielding tensor (ppm): 
            -4.747          1.639        -1.614
            12.320          9.948        14.036
             1.870          6.136         5.340

Total shielding tensor (ppm): 
            31.174         -3.821         0.958
            -3.219         34.639         1.734
             0.395          1.396        26.700


 Diagonalized sT*s matrix:
 
 sDSO            25.336           21.414           35.223  iso=      27.324
 sPSO             0.627            8.212            1.701  iso=       3.513
        ---------------  ---------------  ---------------
 Total           25.964           29.626           36.924  iso=      30.838

 --------------
 Nucleus  64H :
 --------------

Diamagnetic contribution to the shielding tensor (ppm) : 
            37.242         -3.047         3.227
            13.381         49.894         2.861
            10.733         -2.321        31.584

Paramagnetic contribution to the shielding tensor (ppm): 
            -3.241          5.699         0.870
           -11.453        -19.034        -3.514
            -6.282          3.245        -5.667

Total shielding tensor (ppm): 
            34.001          2.652         4.098
             1.928         30.861        -0.654
             4.451          0.924        25.917


 Diagonalized sT*s matrix:
 
 sDSO            27.180           45.863           45.677  iso=      39.574
 sPSO            -3.198          -15.718           -9.026  iso=      -9.314
        ---------------  ---------------  ---------------
 Total           23.983           30.145           36.651  iso=      30.260

 --------------
 Nucleus  65H :
 --------------

Diamagnetic contribution to the shielding tensor (ppm) : 
            26.501         -1.703        -6.697
            13.207         38.026        -2.210
            -6.291         -7.829        37.438

Paramagnetic contribution to the shielding tensor (ppm): 
             2.415          2.403         5.648
           -11.837         -7.515        -1.591
             4.907          4.514        -3.657

Total shielding tensor (ppm): 
            28.916          0.700        -1.049
             1.370         30.511        -3.801
            -1.385         -3.315        33.781


 Diagonalized sT*s matrix:
 
 sDSO            30.983           25.957           45.025  iso=      33.988
 sPSO            -2.851            2.722           -8.628  iso=      -2.919
        ---------------  ---------------  ---------------
 Total           28.132           28.679           36.397  iso=      31.069

 --------------
 Nucleus  66H :
 --------------

Diamagnetic contribution to the shielding tensor (ppm) : 
            23.580         -8.707        -4.486
            10.019         49.228         7.923
            -2.102         -0.515        32.821

Paramagnetic contribution to the shielding tensor (ppm): 
             6.285          4.863         4.832
           -13.219        -13.643        -6.258
             2.652          1.533        -5.532

Total shielding tensor (ppm): 
            29.865         -3.844         0.345
            -3.200         35.585         1.664
             0.549          1.019        27.289


 Diagonalized sT*s matrix:
 
 sDSO            33.262           27.191           45.176  iso=      35.210
 sPSO            -6.671            1.592           -7.810  iso=      -4.296
        ---------------  ---------------  ---------------
 Total           26.590           28.783           37.366  iso=      30.913

 --------------
 Nucleus  67H :
 --------------

Diamagnetic contribution to the shielding tensor (ppm) : 
            30.102          7.210         6.333
             8.399          9.729        -2.439
            12.000          0.560        38.110

Paramagnetic contribution to the shielding tensor (ppm): 
            -0.477         -7.678        -0.383
            -7.483         20.242         2.905
            -6.515         -0.823        -6.628

Total shielding tensor (ppm): 
            29.625         -0.468         5.950
             0.915         29.972         0.466
             5.484         -0.263        31.482


 Diagonalized sT*s matrix:
 
 sDSO            24.048            9.897           43.997  iso=      25.981
 sPSO             0.712           20.069           -7.644  iso=       4.379
        ---------------  ---------------  ---------------
 Total           24.760           29.967           36.353  iso=      30.360

 --------------
 Nucleus  68H :
 --------------

Diamagnetic contribution to the shielding tensor (ppm) : 
            19.769          3.040        -4.128
            18.430         31.152        13.770
             9.135         10.476        24.606

Paramagnetic contribution to the shielding tensor (ppm): 
             8.563         -2.444         5.163
           -18.709          4.078        -9.213
            -8.204         -5.655         4.476

Total shielding tensor (ppm): 
            28.332          0.596         1.035
            -0.280         35.230         4.557
             0.931          4.821        29.082


 Diagonalized sT*s matrix:
 
 sDSO            18.361           16.169           40.996  iso=      25.176
 sPSO             7.884           12.428           -3.195  iso=       5.706
        ---------------  ---------------  ---------------
 Total           26.246           28.597           37.801  iso=      30.881

 --------------
 Nucleus  69H :
 --------------

Diamagnetic contribution to the shielding tensor (ppm) : 
            33.520         12.717        -5.374
            16.878         14.798         0.808
            -5.508         -4.454        24.703

Paramagnetic contribution to the shielding tensor (ppm): 
             0.656         -8.852         3.057
           -12.918         15.645        -1.953
             3.780          3.821         4.156

Total shielding tensor (ppm): 
            34.177          3.865        -2.317
             3.960         30.443        -1.145
            -1.728         -0.634        28.860


 Diagonalized sT*s matrix:
 
 sDSO            10.563           19.212           43.247  iso=      24.341
 sPSO            17.215            9.273           -6.031  iso=       6.819
        ---------------  ---------------  ---------------
 Total           27.778           28.485           37.217  iso=      31.160

 --------------
 Nucleus  70H :
 --------------

Diamagnetic contribution to the shielding tensor (ppm) : 
            31.306          1.113         4.367
            -9.206         39.487         9.680
            -1.847          8.725        35.869

Paramagnetic contribution to the shielding tensor (ppm): 
             0.816         -0.656        -3.895
            10.877         -8.266        -4.690
             2.700         -4.314        -8.516

Total shielding tensor (ppm): 
            32.123          0.457         0.472
             1.670         31.221         4.990
             0.853          4.411        27.353


 Diagonalized sT*s matrix:
 
 sDSO            28.472           35.996           42.193  iso=      35.554
 sPSO            -4.269           -4.432           -7.265  iso=      -5.322
        ---------------  ---------------  ---------------
 Total           24.204           31.564           34.928  iso=      30.232

 --------------
 Nucleus  71H :
 --------------

Diamagnetic contribution to the shielding tensor (ppm) : 
            28.068         -7.183         0.967
           -14.445         38.547        -3.347
            -2.056         -6.988        35.789

Paramagnetic contribution to the shielding tensor (ppm): 
             2.393          4.878        -0.035
            12.527         -5.485        -0.412
             2.568          4.404        -6.565

Total shielding tensor (ppm): 
            30.461         -2.305         0.933
            -1.917         33.061        -3.759
             0.512         -2.584        29.224


 Diagonalized sT*s matrix:
 
 sDSO            29.748           25.961           46.695  iso=      34.135
 sPSO            -2.379            3.657          -10.935  iso=      -3.219
        ---------------  ---------------  ---------------
 Total           27.369           29.617           35.760  iso=      30.915

 --------------
 Nucleus  72H :
 --------------

Diamagnetic contribution to the shielding tensor (ppm) : 
            35.974         -8.979        -7.572
           -17.563         25.616         1.980
           -13.768          3.561        30.305

Paramagnetic contribution to the shielding tensor (ppm): 
            -1.720          6.776         3.105
            15.145          4.474         0.645
             9.640         -0.826        -1.886

Total shielding tensor (ppm): 
            34.253         -2.203        -4.467
            -2.418         30.090         2.625
            -4.129          2.735        28.420


 Diagonalized sT*s matrix:
 
 sDSO            25.497           16.088           50.310  iso=      30.632
 sPSO             0.164           13.075          -12.370  iso=       0.289
        ---------------  ---------------  ---------------
 Total           25.660           29.163           37.940  iso=      30.921



--------------------------------
CHEMICAL SHIELDING SUMMARY (ppm)
--------------------------------


  Nucleus  Element    Isotropic     Anisotropy
  -------  -------  ------------   ------------
      3       H           29.368          6.503 
      4       H           29.054          7.410 
      8       H           29.572          7.917 
      9       H           29.339          5.414 
     10       H           30.109          8.326 
     11       H           29.859         10.217 
     13       H           27.734          7.802 
     16       H           26.794          4.743 
     17       H           26.510          4.850 
     19       H           25.406         10.359 
     21       H           25.595         14.689 
     24       H           28.910         10.080 
     25       H           30.042          9.609 
     27       H           30.229          7.085 
     28       H           30.114         11.871 
     30       H           29.755          8.056 
     31       H           30.423          7.061 
     33       H           29.758          4.333 
     35       H           30.160         14.821 
     37       H           30.408         10.413 
     38       H           30.249          9.646 
     40       H           30.109          9.851 
     41       H           30.505          9.914 
     42       H           30.580          5.044 
     45       H           31.242          7.235 
     46       H           31.021          7.985 
     47       H           31.291          9.231 
     48       H           29.988          3.645 
     52       H           26.600         10.200 
     53       H           25.791          7.830 
     57       H           30.309          6.133 
     58       H           30.861          4.912 
     61       H           30.834          6.500 
     62       H           30.421          9.522 
     63       H           30.838          9.129 
     64       H           30.260          9.587 
     65       H           31.069          7.991 
     66       H           30.913          9.679 
     67       H           30.360          8.990 
     68       H           30.881         10.380 
     69       H           31.160          9.085 
     70       H           30.232          7.044 
     71       H           30.915          7.267 
     72       H           30.921         10.528 



Maximum memory used throughout the entire EPRNMR-calculation: 141.2 MB

Timings for individual modules:

Sum of individual times         ...      141.189 sec (=   2.353 min)
GTO integral calculation        ...        0.825 sec (=   0.014 min)   0.6 %
SCF iterations                  ...       94.982 sec (=   1.583 min)  67.3 %
EPR/NMR calculation             ...       45.383 sec (=   0.756 min)  32.1 %
                             ****ORCA TERMINATED NORMALLY****
TOTAL RUN TIME: 0 days 0 hours 2 minutes 21 seconds 716 msec
