
                                 *****************
                                 * O   R   C   A *
                                 *****************

                                            #,                                       
                                            ###                                      
                                            ####                                     
                                            #####                                    
                                            ######                                   
                                           ########,                                 
                                     ,,################,,,,,                         
                               ,,#################################,,                 
                          ,,##########################################,,             
                       ,#########################################, ''#####,          
                    ,#############################################,,   '####,        
                  ,##################################################,,,,####,       
                ,###########''''           ''''###############################       
              ,#####''   ,,,,##########,,,,          '''####'''          '####       
            ,##' ,,,,###########################,,,                        '##       
           ' ,,###''''                  '''############,,,                           
         ,,##''                                '''############,,,,        ,,,,,,###''
      ,#''                                            '''#######################'''  
     '                                                          ''''####''''         
             ,#######,   #######,   ,#######,      ##                                
            ,#'     '#,  ##    ##  ,#'     '#,    #''#        ,####,   ,####,        
            ##       ##  ##   ,#'  ##            #'  '#       #'       #'  '#        
            ##       ##  #######   ##           ,######,      #####,   #    #        
            '#,     ,#'  ##    ##  '#,     ,#' ,#      #,     #,   #   #,  ,#        
             '#######'   ##     ##  '#######'  #'      '#     '####' # '####'        



                #########################################################
                #                        -***-                          #
                #          Department of theory and spectroscopy        #
                #                                                       #
                #                      Frank Neese                      #
                #                                                       #
                #     Directorship, Architecture, Infrastructure        #
                #                    SHARK, DRIVERS                     #
                #        Core code/Algorithms in most modules           #
                #                                                       #
                #        Max Planck Institute fuer Kohlenforschung      #
                #                Kaiser Wilhelm Platz 1                 #
                #                 D-45470 Muelheim/Ruhr                 #
                #                      Germany                          #
                #                                                       #
                #                  All rights reserved                  #
                #                        -***-                          #
                #########################################################


                         Program Version 6.0.0  -   RELEASE  -


 With contributions from (in alphabetic order):
   Daniel Aravena         : Magnetic Suceptibility
   Michael Atanasov       : Ab Initio Ligand Field Theory (pilot matlab implementation)
   Alexander A. Auer      : GIAO ZORA, VPT2 properties, NMR spectrum
   Ute Becker             : All parallelization in ORCA, NUMFREQ, NUMCALC
   Giovanni Bistoni       : ED, misc. LED, open-shell LED, HFLD
   Martin Brehm           : Molecular dynamics
   Dmytro Bykov           : pre 5.0 version of the SCF Hessian
   Marcos Casanova-Páez   : Triplet and SCS-CIS(D). UHF-(DLPNO)-IP/EA/STEOM-CCSD. UHF-CVS-IP/STEOM-CCSD
   Vijay G. Chilkuri      : MRCI spin determinant printing, contributions to CSF-ICE
   Pauline Colinet        : FMM embedding
   Dipayan Datta          : RHF DLPNO-CCSD density
   Achintya Kumar Dutta   : EOM-CC, STEOM-CC
   Nicolas Foglia         : Exact transition moments, OPA infrastructure, MCD improvements
   Dmitry Ganyushin       : Spin-Orbit,Spin-Spin,Magnetic field MRCI
   Miquel Garcia          : C-PCM and meta-GGA Hessian, CCSD/C-PCM, Gaussian charge scheme
   Tiago L. C. Gouveia    : GS-ROHF, GS-ROCIS
   Yang Guo               : DLPNO-NEVPT2, F12-NEVPT2, CIM, IAO-localization
   Andreas Hansen         : Spin unrestricted coupled pair/coupled cluster methods
   Ingolf Harden          : AUTO-CI MPn and infrastructure 
   Benjamin Helmich-Paris : MC-RPA, TRAH-(SCF,CASSCF), AVAS, COSX integrals, SCF dyn. polar.
   Lee Huntington         : MR-EOM, pCC
   Robert Izsak           : Overlap fitted RIJCOSX, COSX-SCS-MP3, EOM
   Riya Kayal             : Wick's Theorem for AUTO-CI, AUTO-CI UHF-CCSDT
   Emily Kempfer          : AUTO-CI, RHF CISDT and CCSDT
   Christian Kollmar      : KDIIS, OOCD, Brueckner-CCSD(T), CCSD density, CASPT2, CASPT2-K, improved NEVPT2
   Axel Koslowski         : Symmetry handling
   Simone Kossmann        : Meta GGA functionals, TD-DFT gradient, OOMP2, (MP2 Hessian; deprecated post 5.0)
   Lucas Lang             : DCDCAS
   Marvin Lechner         : AUTO-CI (C++ implementation), FIC-MRCC
   Spencer Leger          : CASSCF response
   Dagmar Lenk            : GEPOL surface, SMD, ORCA-2-JSON
   Dimitrios Liakos       : Extrapolation schemes; Compound Job, initial MDCI parallelization
   Dimitrios Manganas     : Further ROCIS development; embedding schemes. LFT, Crystal Embedding
   Dimitrios Pantazis     : SARC Basis sets
   Anastasios Papadopoulos: AUTO-CI, single reference methods and gradients
   Taras Petrenko         : pre 6.0 DFT Hessian and TD-DFT gradient, (ASA, deprecated), ECA, 1-Electron XAS/XES, NRVS
   Peter Pinski           : DLPNO-MP2, DLPNO-MP2 Gradient
   Christoph Reimann      : Effective Core Potentials
   Marius Retegan         : Local ZFS, SOC
   Christoph Riplinger    : Optimizer, TS searches, QM/MM, DLPNO-CCSD(T), (RO)-DLPNO pert. Triples
   Michael Roemelt        : Original ROCIS implementation
   Masaaki Saitow         : Open-shell DLPNO-CCSD energy and density
   Barbara Sandhoefer     : DKH picture change effects
   Kantharuban Sivalingam : CASSCF convergence/infrastructure, NEVPT2 and variants, FIC-MRCI
   Bernardo de Souza      : ESD, SOC TD-DFT
   Georgi Stoychev        : AutoAux, RI-MP2 NMR, DLPNO-MP2 response, X2C
   Van Anh Tran           : RI-MP2 g-tensors
   Willem Van den Heuvel  : Paramagnetic NMR
   Zikuan Wang            : NOTCH, Electric field optimization 
   Frank Wennmohs         : Technical directorship and infrastructure
   Hang Xu                : AUTO-CI-Response properties 


 We gratefully acknowledge several colleagues who have allowed us to
 interface, adapt or use parts of their codes:
   Stefan Grimme, W. Hujo, H. Kruse, P. Pracht,  : VdW corrections, initial TS optimization,
                  C. Bannwarth, S. Ehlert,         DFT functionals, gCP, sTDA/sTD-DF
                  L. Wittmann, M. Mueller
   Ed Valeev, F. Pavosevic, A. Kumar             : LibInt (2-el integral package), F12 methods
   Garnet Chan, S. Sharma, J. Yang, R. Olivares  : DMRG
   Ulf Ekstrom                                   : XCFun DFT Library
   Mihaly Kallay                                 : mrcc  (arbitrary order and MRCC methods)
   Frank Weinhold                                : gennbo (NPA and NBO analysis)
   Simon Mueller                                 : openCOSMO-RS
   Christopher J. Cramer and Donald G. Truhlar   : smd solvation model
   Lars Goerigk                                  : TD-DFT with DH, B97 family of functionals
   V. Asgeirsson, H. Jonsson                     : NEB implementation
   FAccTs GmbH                                   : IRC, NEB, NEB-TS, DLPNO-Multilevel, CI-OPT
                                                   MM, QMMM, 2- and 3-layer-ONIOM, Crystal-QMMM,
                                                   LR-CPCM, SF, NACMEs, symmetry and pop. for TD-DFT,
                                                   nearIR, NL-DFT gradient (VV10), updates on ESD,
                                                   ML-optimized integration grids, MBIS, APM,
                                                   GOAT, DOCKER, SOLVATOR, interface openCOSMO-RS
   S Lehtola, MJT Oliveira, MAL Marques          : LibXC Library
   Liviu Ungur et al                             : ANISO software


 Your calculation uses the libint2 library for the computation of 2-el integrals
 For citations please refer to: http://libint.valeyev.net

 Your ORCA version has been built with support for libXC version: 6.2.2
 For citations please refer to: https://libxc.gitlab.io

 This ORCA versions uses:
   CBLAS   interface :  Fast vector & matrix operations
   LAPACKE interface :  Fast linear algebra routines
   SCALAPACK package :  Parallel linear algebra routines
   Shared memory     :  Shared parallel matrices
   BLAS/LAPACK       :  OpenBLAS 0.3.27  USE64BITINT DYNAMIC_ARCH NO_AFFINITY Zen SINGLE_THREADED
        Core in use  :  Zen
   Copyright (c) 2011-2014, The OpenBLAS Project


NOTE: MaxCore=8000 MB was set to SCF,MP2,MDCI,CIPSI,MRCI and CIS
      => If you want to overwrite this, your respective input block should be placed after the MaxCore statement
Your calculation utilizes the atom-pairwise dispersion correction
based on EEQ partial charges (D4)


================================================================================

----- Orbital basis set information -----
Your calculation utilizes the basis: pcJ-0
   F. Jensen, Theor. Chem. Acc. 126, 371 (2010).

----- AuxJ basis set information -----
Your calculation utilizes the auxiliary basis: def2/J
   F. Weigend, Phys. Chem. Chem. Phys. 8, 1057 (2006).

================================================================================
                                        WARNINGS
                       Please study these warnings very carefully!
================================================================================

WARNING: Old DensityContainer found on disk!
         Will remove this file - 
         If you want to keep old densities, please start your calculation with a different basename. 


================================================================================
                                       INPUT FILE
================================================================================
NAME = inpJ
|  1> ! pbe0
|  2> ! D4
|  3> ! pcJ-0
|  4> ! def2/J RIJCOSX
|  5> ! DEFGRID2
|  6> ! scfconv7
|  7> ! smallprint printgap noloewdin
|  8> ! NOSOSCF
|  9> %MaxCore 8000
| 10> %output
| 11>        print[P_BondOrder_M] 1
| 12>        print[P_Mayer] 1
| 13>        print[P_basis] 2
| 14> end
| 15> %pal
| 16>     nprocs 4
| 17> end
| 18> ! CPCM(chloroform)
| 19> *xyz 0 1
| 20> C   -5.0239014700   0.2170792100  -0.5107102000
| 21> C   -6.4720986600  -0.1715194100  -0.6942168700
| 22> C   -7.3835764800   0.7479105300   0.1285559000
| 23> H   -6.6321841700  -1.2160566800  -0.4039493800
| 24> H   -6.7555824000  -0.0661908000  -1.7519863300
| 25> C   -4.7435942500   1.6431040600  -0.7884673000
| 26> C   -5.6770448300   2.6112811900  -0.0957540600
| 27> C   -7.1491040400   2.2083986000  -0.2611445200
| 28> H   -5.5117671800   3.6281193300  -0.4675546300
| 29> H   -5.4323013800   2.6184128800   0.9773554000
| 30> H   -7.4508125600   2.3384707400  -1.3094144200
| 31> H   -7.7877083600   2.8573744300   0.3492210200
| 32> O   -7.1829851200   0.5351118100   1.5358222000
| 33> H   -8.4322494900   0.4837137400  -0.0554837200
| 34> C   -4.1090696700  -0.6768720200  -0.0654275100
| 35> C   -3.7726780200   2.0499401500  -1.6136348300
| 36> H   -3.1229542900   1.3385523800  -2.1164691000
| 37> H   -3.6135484300   3.1073676300  -1.8115445100
| 38> C   -2.7267080600  -0.3973440300   0.2491941400
| 39> H   -4.4675742000  -1.6923250000   0.0990262300
| 40> C   -1.7815678600  -1.3021095900   0.5816489200
| 41> H   -2.4378518000   0.6509632400   0.2216778800
| 42> C   -1.9750074700  -2.7960003100   0.6379579500
| 43> C   -0.9577757200  -3.5291012500  -0.2583400800
| 44> H   -2.9901382400  -3.0950721900   0.3635712200
| 45> H   -1.8109449700  -3.1199929300   1.6779138300
| 46> C    0.4888888400  -3.0933997900   0.0099941300
| 47> H   -1.2123289700  -3.3464745700  -1.3100278000
| 48> H   -1.0514004000  -4.6102230300  -0.0982100900
| 49> C    0.6548250200  -1.5707851200  -0.0876073400
| 50> H    1.1513659200  -3.6118654400  -0.6910505300
| 51> H    0.7803521700  -3.4115036800   1.0223730100
| 52> C   -0.3680844100  -0.9230552400   0.9005014100
| 53> H   -0.1351558300  -1.3830888200   1.8783980400
| 54> C    0.0608449300   0.5396009500   0.9765517300
| 55> H   -6.2303297700   0.4578741600   1.6874833500
| 56> C    1.6048665700   0.4706479800   0.8839313700
| 57> H   -0.2899996000   1.0236717400   1.8939894100
| 58> H   -0.3471603400   1.1098867000   0.1346214400
| 59> C    1.9768472500  -0.9884022500   0.4835367000
| 60> H    2.0832023000   0.7430104800   1.8300818400
| 61> H    1.9847827100   1.1731926700   0.1328684700
| 62> H    2.1982715400  -1.5574419200   1.4016842800
| 63> C    3.2485314200  -1.0269473800  -0.3879271700
| 64> C    0.4177959900  -1.0806201700  -1.5231899500
| 65> H    0.6432771500  -0.0145180700  -1.6278413200
| 66> H   -0.6226532200  -1.2258072100  -1.8297310900
| 67> H    1.0559168300  -1.6255796400  -2.2276112100
| 68> H    3.0610570600  -0.4426532800  -1.3007929800
| 69> C    3.6709617400  -2.4484525000  -0.7891190800
| 70> C    4.3804543100  -0.3712985400   0.3595192100
| 71> C    5.0745416200   0.6806571900  -0.0739711300
| 72> H    4.6289867800  -0.8332136200   1.3177278900
| 73> H    4.7948326300   1.1175522400  -1.0372515200
| 74> C    6.2214439800   1.3690759900   0.6186613000
| 75> C    6.5786530300   0.7488254200   1.9684437600
| 76> C    5.9530584400   2.8984390400   0.6892959700
| 77> H    7.0988594800   1.2574896000  -0.0417476100
| 78> H    5.6748184200   3.2025443600  -0.3316738600
| 79> C    7.2066157700   3.6871052400   1.0750508900
| 80> C    4.7852020100   3.2488764000   1.6136533300
| 81> H    5.7341453600   0.7874228300   2.6651324000
| 82> H    7.4230723000   1.2688582900   2.4298866400
| 83> H    6.8620632300  -0.3020167600   1.8483953300
| 84> H    8.0545490300   3.4284679900   0.4302799200
| 85> H    7.4984229300   3.4936645100   2.1135508700
| 86> H    7.0256448100   4.7637374900   0.9817964300
| 87> H    3.8893351400   2.6709558200   1.3617488600
| 88> H    4.5388599800   4.3134830000   1.5343281000
| 89> H    5.0365078600   3.0458452000   2.6611412200
| 90> H    2.9521428100  -2.9102471800  -1.4707589900
| 91> H    3.7627812500  -3.0901231600   0.0959078100
| 92> H    4.6435914000  -2.4252573200  -1.2920625300
| 93> *
| 94> %eprnmr
| 95>  Nuclei = all C { ssfc }
| 96>  SpinSpinRThresh 8.0
| 97> end
| 98> 
| 99>                          ****END OF INPUT****
================================================================================

                       ****************************
                       * Single Point Calculation *
                       ****************************

---------------------------------
CARTESIAN COORDINATES (ANGSTROEM)
---------------------------------
  C     -5.023901    0.217079   -0.510710
  C     -6.472099   -0.171519   -0.694217
  C     -7.383576    0.747911    0.128556
  H     -6.632184   -1.216057   -0.403949
  H     -6.755582   -0.066191   -1.751986
  C     -4.743594    1.643104   -0.788467
  C     -5.677045    2.611281   -0.095754
  C     -7.149104    2.208399   -0.261145
  H     -5.511767    3.628119   -0.467555
  H     -5.432301    2.618413    0.977355
  H     -7.450813    2.338471   -1.309414
  H     -7.787708    2.857374    0.349221
  O     -7.182985    0.535112    1.535822
  H     -8.432249    0.483714   -0.055484
  C     -4.109070   -0.676872   -0.065428
  C     -3.772678    2.049940   -1.613635
  H     -3.122954    1.338552   -2.116469
  H     -3.613548    3.107368   -1.811545
  C     -2.726708   -0.397344    0.249194
  H     -4.467574   -1.692325    0.099026
  C     -1.781568   -1.302110    0.581649
  H     -2.437852    0.650963    0.221678
  C     -1.975007   -2.796000    0.637958
  C     -0.957776   -3.529101   -0.258340
  H     -2.990138   -3.095072    0.363571
  H     -1.810945   -3.119993    1.677914
  C      0.488889   -3.093400    0.009994
  H     -1.212329   -3.346475   -1.310028
  H     -1.051400   -4.610223   -0.098210
  C      0.654825   -1.570785   -0.087607
  H      1.151366   -3.611865   -0.691051
  H      0.780352   -3.411504    1.022373
  C     -0.368084   -0.923055    0.900501
  H     -0.135156   -1.383089    1.878398
  C      0.060845    0.539601    0.976552
  H     -6.230330    0.457874    1.687483
  C      1.604867    0.470648    0.883931
  H     -0.290000    1.023672    1.893989
  H     -0.347160    1.109887    0.134621
  C      1.976847   -0.988402    0.483537
  H      2.083202    0.743010    1.830082
  H      1.984783    1.173193    0.132868
  H      2.198272   -1.557442    1.401684
  C      3.248531   -1.026947   -0.387927
  C      0.417796   -1.080620   -1.523190
  H      0.643277   -0.014518   -1.627841
  H     -0.622653   -1.225807   -1.829731
  H      1.055917   -1.625580   -2.227611
  H      3.061057   -0.442653   -1.300793
  C      3.670962   -2.448452   -0.789119
  C      4.380454   -0.371299    0.359519
  C      5.074542    0.680657   -0.073971
  H      4.628987   -0.833214    1.317728
  H      4.794833    1.117552   -1.037252
  C      6.221444    1.369076    0.618661
  C      6.578653    0.748825    1.968444
  C      5.953058    2.898439    0.689296
  H      7.098859    1.257490   -0.041748
  H      5.674818    3.202544   -0.331674
  C      7.206616    3.687105    1.075051
  C      4.785202    3.248876    1.613653
  H      5.734145    0.787423    2.665132
  H      7.423072    1.268858    2.429887
  H      6.862063   -0.302017    1.848395
  H      8.054549    3.428468    0.430280
  H      7.498423    3.493665    2.113551
  H      7.025645    4.763737    0.981796
  H      3.889335    2.670956    1.361749
  H      4.538860    4.313483    1.534328
  H      5.036508    3.045845    2.661141
  H      2.952143   -2.910247   -1.470759
  H      3.762781   -3.090123    0.095908
  H      4.643591   -2.425257   -1.292063

----------------------------
CARTESIAN COORDINATES (A.U.)
----------------------------
  NO LB      ZA    FRAG     MASS         X           Y           Z
   0 C     6.0000    0    12.011   -9.493798    0.410220   -0.965102
   1 C     6.0000    0    12.011  -12.230494   -0.324125   -1.311880
   2 C     6.0000    0    12.011  -13.952937    1.413346    0.242935
   3 H     1.0000    0     1.008  -12.533012   -2.298014   -0.763354
   4 H     1.0000    0     1.008  -12.766201   -0.125082   -3.310774
   5 C     6.0000    0    12.011   -8.964094    3.105017   -1.489987
   6 C     6.0000    0    12.011  -10.728060    4.934606   -0.180949
   7 C     6.0000    0    12.011  -13.509849    4.173269   -0.493492
   8 H     1.0000    0     1.008  -10.415730    6.856152   -0.883550
   9 H     1.0000    0     1.008  -10.265562    4.948083    1.846934
  10 H     1.0000    0     1.008  -14.079995    4.419069   -2.474435
  11 H     1.0000    0     1.008  -14.716636    5.399655    0.659932
  12 O     8.0000    0    15.999  -13.573875    1.011215    2.902283
  13 H     1.0000    0     1.008  -15.934642    0.914086   -0.104849
  14 C     6.0000    0    12.011   -7.765016   -1.279103   -0.123640
  15 C     6.0000    0    12.011   -7.129328    3.873825   -3.049328
  16 H     1.0000    0     1.008   -5.901528    2.529497   -3.999547
  17 H     1.0000    0     1.008   -6.828617    5.872074   -3.423323
  18 C     6.0000    0    12.011   -5.152731   -0.750871    0.470909
  19 H     1.0000    0     1.008   -8.442492   -3.198031    0.187132
  20 C     6.0000    0    12.011   -3.366675   -2.460631    1.099157
  21 H     1.0000    0     1.008   -4.606872    1.230142    0.418910
  22 C     6.0000    0    12.011   -3.732223   -5.283675    1.205566
  23 C     6.0000    0    12.011   -1.809934   -6.669035   -0.488192
  24 H     1.0000    0     1.008   -5.650542   -5.848839    0.687050
  25 H     1.0000    0     1.008   -3.422190   -5.895932    3.170798
  26 C     6.0000    0    12.011    0.923866   -5.845678    0.018886
  27 H     1.0000    0     1.008   -2.290970   -6.323920   -2.475594
  28 H     1.0000    0     1.008   -1.986859   -8.712059   -0.185590
  29 C     6.0000    0    12.011    1.237440   -2.968354   -0.165554
  30 H     1.0000    0     1.008    2.175766   -6.825437   -1.305896
  31 H     1.0000    0     1.008    1.474652   -6.446808    1.932005
  32 C     6.0000    0    12.011   -0.695579   -1.744322    1.701701
  33 H     1.0000    0     1.008   -0.255408   -2.613659    3.549658
  34 C     6.0000    0    12.011    0.114980    1.019698    1.845415
  35 H     1.0000    0     1.008  -11.773617    0.865257    3.188881
  36 C     6.0000    0    12.011    3.032758    0.889396    1.670388
  37 H     1.0000    0     1.008   -0.548020    1.934459    3.579121
  38 H     1.0000    0     1.008   -0.656038    2.097382    0.254398
  39 C     6.0000    0    12.011    3.735700   -1.867810    0.913752
  40 H     1.0000    0     1.008    3.936682    1.404086    3.458353
  41 H     1.0000    0     1.008    3.750696    2.217013    0.251085
  42 H     1.0000    0     1.008    4.154131   -2.943139    2.648799
  43 C     6.0000    0    12.011    6.138835   -1.940649   -0.733076
  44 C     6.0000    0    12.011    0.789520   -2.042076   -2.878412
  45 H     1.0000    0     1.008    1.215618   -0.027435   -3.076174
  46 H     1.0000    0     1.008   -1.176644   -2.316440   -3.457691
  47 H     1.0000    0     1.008    1.995394   -3.071900   -4.209575
  48 H     1.0000    0     1.008    5.784560   -0.836493   -2.458142
  49 C     6.0000    0    12.011    6.937112   -4.626905   -1.491219
  50 C     6.0000    0    12.011    8.277859   -0.701653    0.679393
  51 C     6.0000    0    12.011    9.589494    1.286256   -0.139785
  52 H     1.0000    0     1.008    8.747517   -1.574546    2.490145
  53 H     1.0000    0     1.008    9.060921    2.111868   -1.960121
  54 C     6.0000    0    12.011   11.756825    2.587179    1.169100
  55 C     6.0000    0    12.011   12.431853    1.415075    3.719820
  56 C     6.0000    0    12.011   11.249650    5.477256    1.302581
  57 H     1.0000    0     1.008   13.414900    2.376311   -0.078892
  58 H     1.0000    0     1.008   10.723853    6.051932   -0.626773
  59 C     6.0000    0    12.011   13.618530    6.967619    2.031552
  60 C     6.0000    0    12.011    9.042721    6.139487    3.049363
  61 H     1.0000    0     1.008   10.835964    1.488014    5.036370
  62 H     1.0000    0     1.008   14.027574    2.397795    4.591820
  63 H     1.0000    0     1.008   12.967420   -0.570729    3.492961
  64 H     1.0000    0     1.008   15.220892    6.478866    0.813111
  65 H     1.0000    0     1.008   14.169966    6.602069    3.994032
  66 H     1.0000    0     1.008   13.276545    9.002159    1.855326
  67 H     1.0000    0     1.008    7.349778    5.047375    2.573332
  68 H     1.0000    0     1.008    8.577202    8.151302    2.899460
  69 H     1.0000    0     1.008    9.517621    5.755813    5.028828
  70 H     1.0000    0     1.008    5.578741   -5.499570   -2.779332
  71 H     1.0000    0     1.008    7.110626   -5.839486    0.181239
  72 H     1.0000    0     1.008    8.775116   -4.583072   -2.441644

--------------------------------
INTERNAL COORDINATES (ANGSTROEM)
--------------------------------
 C      0   0   0     0.000000000000     0.00000000     0.00000000
 C      1   0   0     1.510615333738     0.00000000     0.00000000
 C      2   1   0     1.533981180450   110.50544173     0.00000000
 H      2   1   3     1.095874397311   110.67473405   237.86676682
 H      2   1   3     1.100151524763   109.82810899   118.76664158
 C      1   2   3     1.479617523890   114.00029957   306.32731335
 C      6   1   2     1.512794954126   114.45370039    49.53829506
 C      3   2   1     1.529663082211   110.15400048    56.73450367
 H      7   6   1     1.095222428733   110.22002662   188.84276625
 H      7   6   1     1.100688025946   108.26275818    72.19181438
 H      8   3   2     1.098552036041   108.30359927    64.34618115
 H      8   3   2     1.096143785215   109.51893957   181.34025213
 O      3   2   1     1.437330382360   110.70048949   292.72465016
 H      3   2   1     1.096989337906   109.49247983   177.20095971
 C      1   2   3     1.354379082061   121.17792876   123.24157762
 C      6   1   2     1.337570701821   123.12498083   231.43793990
 H     16   6   1     1.086763906153   121.35289721   359.07035122
 H     16   6   1     1.087494065874   120.94649441   178.45809630
 C     15   1   2     1.445007370446   126.16272900   185.24065332
 H     15   1   2     1.089364624550   116.27009971     3.08878747
 C     19  15   1     1.349969220747   126.42278479   186.15829908
 H     19  15   1     1.087723869298   115.78360567     6.87736093
 C     21  19  15     1.507414698376   125.70098793     2.50503981
 C     23  21  19     1.541281148921   111.40513009   124.17255099
 H     23  21  19     1.093262341439   112.38845151     0.62221043
 H     23  21  19     1.101542533935   107.91712823   242.70148027
 C     24  23  21     1.534495799819   112.67296140    51.35206561
 H     24  23  21     1.097359066911   108.96976851   289.20322370
 H     24  23  21     1.096919093458   109.12133154   173.27981698
 C     27  24  23     1.534736555920   111.87026645   306.31568025
 H     27  24  23     1.095055307767   108.90268349   182.84025000
 H     27  24  23     1.100478057136   109.17690156    66.37166566
 C     21  19  15     1.497759851931   122.92457987   180.31364127
 H     33  21  19     1.105517271269   106.36995286   127.57027876
 C     33  21  19     1.526147817228   121.22496751     5.00546276
 H     13   3   2     0.967739104759   107.61613957    42.65671653
 C     35  33  21     1.548333254809   103.56858180   196.87500352
 H     35  33  21     1.095038040730   112.04712728    74.88166794
 H     35  33  21     1.095691904789   110.84736100   315.27222686
 C     30  27  24     1.553421416844   116.14057173   166.16959824
 H     37  35  33     1.094617336736   111.89985172   249.43310456
 H     37  35  33     1.096357968291   110.97760312   130.82671019
 H     40  30  27     1.102646743475   106.47350861   320.91016804
 C     40  30  27     1.542114013940   118.98983355    81.70942338
 C     30  27  24     1.535363758008   111.06942514   294.00628642
 H     45  30  27     1.094699662182   111.62295926   186.40777344
 H     45  30  27     1.094340580298   111.48962294    66.35049912
 H     45  30  27     1.095622353699   110.63716063   306.24531396
 H     44  40  30     1.099941006609   108.37098768    60.89487090
 C     44  40  30     1.536254904009   113.41947817   300.01730560
 C     44  40  30     1.506585849288   109.16707471   178.26343352
 C     51  44  40     1.332772271116   124.98785752   238.41893645
 H     51  44  40     1.092381711767   114.96712276    59.38377720
 H     52  51  44     1.094085697539   117.93133541     1.14653780
 C     52  51  44     1.506335006117   127.42221737   180.67777380
 C     55  52  51     1.527816011276   113.49762880   359.74044527
 C     55  52  51     1.554339536071   109.82205828   231.42641482
 H     55  52  51     1.103833959652   106.49376031   117.89237140
 H     57  55  52     1.101034489992   105.85817705   310.29241235
 C     57  55  52     1.530427134144   112.15211582   193.51264964
 C     57  55  52     1.530075656091   112.61879859    67.72956093
 H     56  55  52     1.095471599747   111.55029945   299.87578484
 H     56  55  52     1.093804196797   111.11209100   179.22035752
 H     56  55  52     1.094989613776   110.68681063    59.70575198
 H     60  57  55     1.096181392041   111.33047624    52.13067719
 H     60  57  55     1.095925610208   111.46824042   291.40639644
 H     60  57  55     1.095711588153   110.46380046   172.15708888
 H     61  57  55     1.095456757502   111.37384761   307.93846994
 H     61  57  55     1.095611290843   110.51345365   187.65500705
 H     61  57  55     1.096178442643   111.09321458    68.41633422
 H     50  44  40     1.092972070781   111.89938587    67.37088116
 H     50  44  40     1.097016250720   110.70544781   306.68507209
 H     50  44  40     1.095216227868   110.15276419   187.34023340

---------------------------
INTERNAL COORDINATES (A.U.)
---------------------------
 C      0   0   0     0.000000000000     0.00000000     0.00000000
 C      1   0   0     2.854649274467     0.00000000     0.00000000
 C      2   1   0     2.898804325639   110.50544173     0.00000000
 H      2   1   3     2.070902488094   110.67473405   237.86676682
 H      2   1   3     2.078985087617   109.82810899   118.76664158
 C      1   2   3     2.796071903103   114.00029957   306.32731335
 C      6   1   2     2.858768160076   114.45370039    49.53829506
 C      3   2   1     2.890644302549   110.15400048    56.73450367
 H      7   6   1     2.069670446034   110.22002662   188.84276625
 H      7   6   1     2.079998927925   108.26275818    72.19181438
 H      8   3   2     2.075962491980   108.30359927    64.34618115
 H      8   3   2     2.071411557457   109.51893957   181.34025213
 O      3   2   1     2.716160786625   110.70048949   292.72465016
 H      3   2   1     2.073009420473   109.49247983   177.20095971
 C      1   2   3     2.559405546606   121.17792876   123.24157762
 C      6   1   2     2.527642311199   123.12498083   231.43793990
 H     16   6   1     2.053686154860   121.35289721   359.07035122
 H     16   6   1     2.055065956766   120.94649441   178.45809630
 C     15   1   2     2.730668191641   126.16272900   185.24065332
 H     15   1   2     2.058600800382   116.27009971     3.08878747
 C     19  15   1     2.551072116434   126.42278479   186.15829908
 H     19  15   1     2.055500222302   115.78360567     6.87736093
 C     21  19  15     2.848600950177   125.70098793     2.50503981
 C     23  21  19     2.912599266836   111.40513009   124.17255099
 H     23  21  19     2.065966417848   112.38845151     0.62221043
 H     23  21  19     2.081613714002   107.91712823   242.70148027
 C     24  23  21     2.899776815311   112.67296140    51.35206561
 H     24  23  21     2.073708107038   108.96976851   289.20322370
 H     24  23  21     2.072876677705   109.12133154   173.27981698
 C     27  24  23     2.900231778407   111.87026645   306.31568025
 H     27  24  23     2.069354633177   108.90268349   182.84025000
 H     27  24  23     2.079602144377   109.17690156    66.37166566
 C     21  19  15     2.830355934532   122.92457987   180.31364127
 H     33  21  19     2.089124879018   106.36995286   127.57027876
 C     33  21  19     2.884001414443   121.22496751     5.00546276
 H     13   3   2     1.828761877081   107.61613957    42.65671653
 C     35  33  21     2.925925815631   103.56858180   196.87500352
 H     35  33  21     2.069322003206   112.04712728    74.88166794
 H     35  33  21     2.070557627206   110.84736100   315.27222686
 C     30  27  24     2.935541048404   116.14057173   166.16959824
 H     37  35  33     2.068526987873   111.89985172   249.43310456
 H     37  35  33     2.071816304813   110.97760312   130.82671019
 H     40  30  27     2.083700367627   106.47350861   320.91016804
 C     40  30  27     2.914173153629   118.98983355    81.70942338
 C     30  27  24     2.901417018584   111.06942514   294.00628642
 H     45  30  27     2.068682560421   111.62295926   186.40777344
 H     45  30  27     2.068003993999   111.48962294    66.35049912
 H     45  30  27     2.070426194693   110.63716063   306.24531396
 H     44  40  30     2.078587265960   108.37098768    60.89487090
 C     44  40  30     2.903101040470   113.41947817   300.01730560
 C     44  40  30     2.847034652395   109.16707471   178.26343352
 C     51  44  40     2.518574591294   124.98785752   238.41893645
 H     51  44  40     2.064302268944   114.96712276    59.38377720
 H     52  51  44     2.067522335389   117.93133541     1.14653780
 C     52  51  44     2.846560627500   127.42221737   180.67777380
 C     55  52  51     2.887153844331   113.49762880   359.74044527
 C     55  52  51     2.937276042300   109.82205828   231.42641482
 H     55  52  51     2.085943881064   106.49376031   117.89237140
 H     57  55  52     2.080653650087   105.85817705   310.29241235
 C     57  55  52     2.892088151454   112.15211582   193.51264964
 C     57  55  52     2.891423954192   112.61879859    67.72956093
 H     56  55  52     2.070141311011   111.55029945   299.87578484
 H     56  55  52     2.066990376080   111.11209100   179.22035752
 H     56  55  52     2.069230489524   110.68681063    59.70575198
 H     60  57  55     2.071482624058   111.33047624    52.13067719
 H     60  57  55     2.070999266444   111.46824042   291.40639644
 H     60  57  55     2.070594823374   110.46380046   172.15708888
 H     61  57  55     2.070113263232   111.37384761   307.93846994
 H     61  57  55     2.070405288925   110.51345365   187.65500705
 H     61  57  55     2.071477050503   111.09321458    68.41633422
 H     50  44  40     2.065417885801   111.89938587    67.37088116
 H     50  44  40     2.073060278323   110.70544781   306.68507209
 H     50  44  40     2.069658728096   110.15276419   187.34023340

---------------------
BASIS SET INFORMATION
---------------------
There are 3 groups of distinct atoms

 Group   1 Type C   : 7s4p contracted to 4s3p pattern {4111/211}
 Group   2 Type H   : 5s contracted to 3s pattern {311}
 Group   3 Type O   : 7s4p contracted to 4s3p pattern {4111/211}

Atom   0C    basis set group =>   1
Atom   1C    basis set group =>   1
Atom   2C    basis set group =>   1
Atom   3H    basis set group =>   2
Atom   4H    basis set group =>   2
Atom   5C    basis set group =>   1
Atom   6C    basis set group =>   1
Atom   7C    basis set group =>   1
Atom   8H    basis set group =>   2
Atom   9H    basis set group =>   2
Atom  10H    basis set group =>   2
Atom  11H    basis set group =>   2
Atom  12O    basis set group =>   3
Atom  13H    basis set group =>   2
Atom  14C    basis set group =>   1
Atom  15C    basis set group =>   1
Atom  16H    basis set group =>   2
Atom  17H    basis set group =>   2
Atom  18C    basis set group =>   1
Atom  19H    basis set group =>   2
Atom  20C    basis set group =>   1
Atom  21H    basis set group =>   2
Atom  22C    basis set group =>   1
Atom  23C    basis set group =>   1
Atom  24H    basis set group =>   2
Atom  25H    basis set group =>   2
Atom  26C    basis set group =>   1
Atom  27H    basis set group =>   2
Atom  28H    basis set group =>   2
Atom  29C    basis set group =>   1
Atom  30H    basis set group =>   2
Atom  31H    basis set group =>   2
Atom  32C    basis set group =>   1
Atom  33H    basis set group =>   2
Atom  34C    basis set group =>   1
Atom  35H    basis set group =>   2
Atom  36C    basis set group =>   1
Atom  37H    basis set group =>   2
Atom  38H    basis set group =>   2
Atom  39C    basis set group =>   1
Atom  40H    basis set group =>   2
Atom  41H    basis set group =>   2
Atom  42H    basis set group =>   2
Atom  43C    basis set group =>   1
Atom  44C    basis set group =>   1
Atom  45H    basis set group =>   2
Atom  46H    basis set group =>   2
Atom  47H    basis set group =>   2
Atom  48H    basis set group =>   2
Atom  49C    basis set group =>   1
Atom  50C    basis set group =>   1
Atom  51C    basis set group =>   1
Atom  52H    basis set group =>   2
Atom  53H    basis set group =>   2
Atom  54C    basis set group =>   1
Atom  55C    basis set group =>   1
Atom  56C    basis set group =>   1
Atom  57H    basis set group =>   2
Atom  58H    basis set group =>   2
Atom  59C    basis set group =>   1
Atom  60C    basis set group =>   1
Atom  61H    basis set group =>   2
Atom  62H    basis set group =>   2
Atom  63H    basis set group =>   2
Atom  64H    basis set group =>   2
Atom  65H    basis set group =>   2
Atom  66H    basis set group =>   2
Atom  67H    basis set group =>   2
Atom  68H    basis set group =>   2
Atom  69H    basis set group =>   2
Atom  70H    basis set group =>   2
Atom  71H    basis set group =>   2
Atom  72H    basis set group =>   2

-------------------------
BASIS SET IN INPUT FORMAT
-------------------------

 # Basis set for element : H 
 NewGTO H 
 S 3 
   1    1357.7500000000      0.0012928364
   2      54.3100000000      0.0588280685
   3       4.3448000000      0.9761499708
 S 1 
   1       0.6604910000      1.0000000000
 S 1 
   1       0.1366870000      1.0000000000
  end;

 # Basis set for element : C 
 NewGTO C 
 S 4 
   1  139534.0000000000      0.0001655246
   2    5581.3600000000      0.0074486101
   3     446.5090000000      0.1285821065
   4      67.4620000000      0.9218029311
 S 1 
   1      15.0674000000      1.0000000000
 S 1 
   1       3.9387600000      1.0000000000
 S 1 
   1       0.2999150000      1.0000000000
 P 2 
   1      28.3900000000      0.0816325586
   2       4.3676900000      0.9660360576
 P 1 
   1       0.8698170000      1.0000000000
 P 1 
   1       0.1889340000      1.0000000000
  end;

 # Basis set for element : O 
 NewGTO O 
 S 4 
   1  253789.0000000000      0.0001641076
   2   10151.6000000000      0.0074010921
   3     812.1250000000      0.1277711901
   4     122.6930000000      0.9223372164
 S 1 
   1      27.5608000000      1.0000000000
 S 1 
   1       7.3172600000      1.0000000000
 S 1 
   1       0.5792400000      1.0000000000
 P 2 
   1      53.4157000000      0.0793786106
   2       8.2177900000      0.9670506337
 P 1 
   1       1.6754400000      1.0000000000
 P 1 
   1       0.3506720000      1.0000000000
  end;

---------------------------------
AUXILIARY/J BASIS SET INFORMATION
---------------------------------
There are 3 groups of distinct atoms

 Group   1 Type C   : 12s5p4d2f1g contracted to 6s4p3d1f1g pattern {711111/2111/211/2/1}
 Group   2 Type H   : 5s2p1d contracted to 3s1p1d pattern {311/2/1}
 Group   3 Type O   : 12s5p4d2f1g contracted to 6s4p3d1f1g pattern {711111/2111/211/2/1}

Atom   0C    basis set group =>   1
Atom   1C    basis set group =>   1
Atom   2C    basis set group =>   1
Atom   3H    basis set group =>   2
Atom   4H    basis set group =>   2
Atom   5C    basis set group =>   1
Atom   6C    basis set group =>   1
Atom   7C    basis set group =>   1
Atom   8H    basis set group =>   2
Atom   9H    basis set group =>   2
Atom  10H    basis set group =>   2
Atom  11H    basis set group =>   2
Atom  12O    basis set group =>   3
Atom  13H    basis set group =>   2
Atom  14C    basis set group =>   1
Atom  15C    basis set group =>   1
Atom  16H    basis set group =>   2
Atom  17H    basis set group =>   2
Atom  18C    basis set group =>   1
Atom  19H    basis set group =>   2
Atom  20C    basis set group =>   1
Atom  21H    basis set group =>   2
Atom  22C    basis set group =>   1
Atom  23C    basis set group =>   1
Atom  24H    basis set group =>   2
Atom  25H    basis set group =>   2
Atom  26C    basis set group =>   1
Atom  27H    basis set group =>   2
Atom  28H    basis set group =>   2
Atom  29C    basis set group =>   1
Atom  30H    basis set group =>   2
Atom  31H    basis set group =>   2
Atom  32C    basis set group =>   1
Atom  33H    basis set group =>   2
Atom  34C    basis set group =>   1
Atom  35H    basis set group =>   2
Atom  36C    basis set group =>   1
Atom  37H    basis set group =>   2
Atom  38H    basis set group =>   2
Atom  39C    basis set group =>   1
Atom  40H    basis set group =>   2
Atom  41H    basis set group =>   2
Atom  42H    basis set group =>   2
Atom  43C    basis set group =>   1
Atom  44C    basis set group =>   1
Atom  45H    basis set group =>   2
Atom  46H    basis set group =>   2
Atom  47H    basis set group =>   2
Atom  48H    basis set group =>   2
Atom  49C    basis set group =>   1
Atom  50C    basis set group =>   1
Atom  51C    basis set group =>   1
Atom  52H    basis set group =>   2
Atom  53H    basis set group =>   2
Atom  54C    basis set group =>   1
Atom  55C    basis set group =>   1
Atom  56C    basis set group =>   1
Atom  57H    basis set group =>   2
Atom  58H    basis set group =>   2
Atom  59C    basis set group =>   1
Atom  60C    basis set group =>   1
Atom  61H    basis set group =>   2
Atom  62H    basis set group =>   2
Atom  63H    basis set group =>   2
Atom  64H    basis set group =>   2
Atom  65H    basis set group =>   2
Atom  66H    basis set group =>   2
Atom  67H    basis set group =>   2
Atom  68H    basis set group =>   2
Atom  69H    basis set group =>   2
Atom  70H    basis set group =>   2
Atom  71H    basis set group =>   2
Atom  72H    basis set group =>   2

-------------------------------------
AUXILIARY/J BASIS SET IN INPUT FORMAT
-------------------------------------

 # Auxiliary/J basis set for element : H 
 NewAuxJGTO H 
 S 3 
   1      15.6752927000      0.1007184237
   2       3.6063578000      0.3404257499
   3       1.2080016000      0.6491996172
 S 1 
   1       0.4726794000      1.0000000000
 S 1 
   1       0.2018100000      1.0000000000
 P 2 
   1       2.0281365000      0.5596620919
   2       0.5358730000      0.5596620919
 D 1 
   1       2.2165124000      1.0000000000
  end;

 # Auxiliary/J basis set for element : C 
 NewAuxJGTO C 
 S 7 
   1    1861.0916331000      0.0134602335
   2     642.9939764000      0.0299160374
   3     235.1105725000      0.1008649584
   4      90.7028894000      0.2370970548
   5      36.7794552000      0.3924037254
   6      15.6046273000      0.3195862154
   7       6.8907294000      0.0530104441
 S 1 
   1       3.1478850000     -1.0000000000
 S 1 
   1       1.4777287000      1.0000000000
 S 1 
   1       0.7076466000      1.0000000000
 S 1 
   1       0.3430122000      1.0000000000
 S 1 
   1       0.1669453000      1.0000000000
 P 2 
   1      13.5472892000     -0.6769313712
   2       5.4669419000     -0.3779500978
 P 1 
   1       2.1751721000      1.0000000000
 P 1 
   1       0.8582194000      1.0000000000
 P 1 
   1       0.3376720000      1.0000000000
 D 2 
   1       5.9287253000     -0.3533329857
   2       1.9809209000     -0.7456525731
 D 1 
   1       0.8055417000     -1.0000000000
 D 1 
   1       0.3531244000     -1.0000000000
 F 2 
   1       1.6755626000      0.6311076882
   2       0.5997536000      0.4968166032
 G 1 
   1       1.0024600000     -1.0000000000
  end;

 # Auxiliary/J basis set for element : O 
 NewAuxJGTO O 
 S 7 
   1    2876.8216605000      0.0168151159
   2    1004.7443032000      0.0340137548
   3     369.7579954000      0.1194951309
   4     142.9442404000      0.2664627624
   5      57.8366425000      0.4202764046
   6      24.3864983000      0.2765077335
   7      10.6622662000      0.0057008815
 S 1 
   1       4.8070437000     -1.0000000000
 S 1 
   1       2.2210770000      1.0000000000
 S 1 
   1       1.0447795000      1.0000000000
 S 1 
   1       0.4968425000      1.0000000000
 S 1 
   1       0.2371384000      1.0000000000
 P 2 
   1      64.2613382000     -0.2731534179
   2      16.3006076000     -0.8168011598
 P 1 
   1       4.3550542000      1.0000000000
 P 1 
   1       1.2019554000      1.0000000000
 P 1 
   1       0.3354196000      1.0000000000
 D 2 
   1       9.2146611000     -0.4661230638
   2       2.8435251000     -0.6600908911
 D 1 
   1       0.9955759000     -1.0000000000
 D 1 
   1       0.3649441000     -1.0000000000
 F 2 
   1       2.6420115000      0.5931563945
   2       0.7345613000      0.5931563945
 G 1 
   1       1.3931000000     -1.0000000000
  end;


Checking for AutoStart:
The File: inpJ.gbw exists
Trying to determine its content:
     ... Fine, the file contains calculation information
     ... Fine, the calculation information was read
     ... Fine, the file contains a basis set
     ... Fine, the basis set was read
     ... Fine, the file contains a geometry
     ... Fine, the geometry was read
     ... Fine, the file contains a set of orbitals
     ... Fine, the orbitals can be read
     => possible old guess file was deleted
     => GBW file was renamed to GES file
     => GES file is set as startup file
     => Guess is set to MORead
     ... now leaving AutoStart



           ************************************************************
           *        Program running with 4 parallel MPI-processes     *
           *              working on a common directory               *
           ************************************************************
------------------------------------------------------------------------------
                             ORCA STARTUP CALCULATIONS
                           -- RI-GTO INTEGRALS CHOSEN --
------------------------------------------------------------------------------
------------------------------------------------------------------------------
                   ___                                                        
                  /   \      - P O W E R E D   B Y -                         
                 /     \                                                     
                 |  |  |   _    _      __       _____    __    __             
                 |  |  |  | |  | |    /  \     |  _  \  |  |  /  |          
                  \  \/   | |  | |   /    \    | | | |  |  | /  /          
                 / \  \   | |__| |  /  /\  \   | |_| |  |  |/  /          
                |  |  |   |  __  | /  /__\  \  |    /   |      \           
                |  |  |   | |  | | |   __   |  |    \   |  |\   \          
                \     /   | |  | | |  |  |  |  | |\  \  |  | \   \       
                 \___/    |_|  |_| |__|  |__|  |_| \__\ |__|  \__/        
                                                                              
                      - O R C A' S   B I G   F R I E N D -                    
                                      &                                       
                       - I N T E G R A L  F E E D E R -                       
                                                                              
 v1 FN, 2020, v2 2021, v3 2022-2024                                           
------------------------------------------------------------------------------


----------------------
SHARK INTEGRAL PACKAGE
----------------------

Number of atoms                             ...     73
Number of basis functions                   ...    509
Number of shells                            ...    335
Maximum angular momentum                    ...      1
Integral batch strategy                     ... SHARK/LIBINT Hybrid
RI-J (if used) integral strategy            ... SPLIT-RIJ (Revised 2003 algorithm where possible)
Printlevel                                  ...      1
Contraction scheme used                     ... SEGMENTED contraction
Prescreening option                         ... SCHWARTZ
   Thresh                                   ... 3.000e-11
   Tcut                                     ... 1.000e-12
   Tpresel                                  ... 1.000e-12 
Coulomb Range Separation                    ... NOT USED
Exchange Range Separation                   ... NOT USED
Multipole approximations                    ... NOT USED
Finite Nucleus Model                        ... NOT USED
CABS basis                                  ... NOT available
Auxiliary Coulomb fitting basis             ... AVAILABLE
   # of basis functions in Aux-J            ...   1905
   # of shells in Aux-J                     ...    655
   Maximum angular momentum in Aux-J        ...      4
Auxiliary J/K fitting basis                 ... NOT available
Auxiliary Correlation fitting basis         ... NOT available
Auxiliary 'external' fitting basis          ... NOT available

Checking pre-screening integrals            ... done (  0.0 sec) Dimension = 335
Check shell pair data                       ... done (  0.0 sec)
Shell pair information
Shell pair cut-off parameter TPreSel        ...   1.0e-12
Total number of shell pairs                 ...     56280
Shell pairs after pre-screening             ...     21994
Total number of primitive shell pairs       ...    145865
Primitive shell pairs kept                  ...     37738
          la=0 lb=0:  11047 shell pairs
          la=1 lb=0:   9061 shell pairs
          la=1 lb=1:   1886 shell pairs

Calculating one electron integrals          ... done (  0.0 sec)
Calculating RI/J V-Matrix + Cholesky decomp.... done (  0.2 sec)
Calculating Nuclear repulsion               ... done (  0.0 sec) ENN=   2796.458319548219 Eh

Diagonalization of the overlap matrix:
Smallest eigenvalue                        ... 7.577e-03
Time for diagonalization                   ...    0.034 sec
Threshold for overlap eigenvalues          ... 1.000e-07
Number of eigenvalues below threshold      ... 0
Time for construction of square roots      ...    0.013 sec
Total time needed                          ...    0.049 sec

-------------------
DFT GRID GENERATION
-------------------

General Integration Accuracy     IntAcc      ... 4.388
Radial Grid Type                 RadialGrid  ... OptM3 with GC (2021)
Angular Grid (max. ang.)         AngularGrid ... 4 (Lebedev-302)
Angular grid pruning method      GridPruning ... 4 (adaptive)
Weight generation scheme         WeightScheme... mBecke (2022)
Basis function cutoff            BFCut       ... 1.0000e-11
Integration weight cutoff        WCut        ... 1.0000e-14
Partially contracted basis set               ... off
Rotationally invariant grid construction     ... off
Angular grids for H and He will be reduced by one unit

Total number of grid points                  ...   309814
Total number of batches                      ...     4875
Average number of points per batch           ...       63
Average number of grid points per atom       ...     4244

--------------------
COSX GRID GENERATION
--------------------

GRIDX 1
-------
General Integration Accuracy     IntAcc      ... 3.816
Radial Grid Type                 RadialGrid  ... OptM3 with GC (2021)
Angular Grid (max. ang.)         AngularGrid ... 1 (Lebedev-50)
Angular grid pruning method      GridPruning ... 4 (adaptive)
Weight generation scheme         WeightScheme... mBecke (2022)
Basis function cutoff            BFCut       ... 1.0000e-11
Integration weight cutoff        WCut        ... 1.0000e-14
Partially contracted basis set               ... on
Rotationally invariant grid construction     ... off
Angular grids for H and He will be reduced by one unit

Total number of grid points                  ...    39402
Total number of batches                      ...      349
Average number of points per batch           ...      112
Average number of grid points per atom       ...      540
UseSFitting                                  ... on

GRIDX 2
-------
General Integration Accuracy     IntAcc      ... 4.020
Radial Grid Type                 RadialGrid  ... OptM3 with GC (2021)
Angular Grid (max. ang.)         AngularGrid ... 2 (Lebedev-110)
Angular grid pruning method      GridPruning ... 4 (adaptive)
Weight generation scheme         WeightScheme... mBecke (2022)
Basis function cutoff            BFCut       ... 1.0000e-11
Integration weight cutoff        WCut        ... 1.0000e-14
Partially contracted basis set               ... on
Rotationally invariant grid construction     ... off
Angular grids for H and He will be reduced by one unit

Total number of grid points                  ...    81365
Total number of batches                      ...      679
Average number of points per batch           ...      119
Average number of grid points per atom       ...     1115
UseSFitting                                  ... on

GRIDX 3
-------
General Integration Accuracy     IntAcc      ... 4.338
Radial Grid Type                 RadialGrid  ... OptM3 with GC (2021)
Angular Grid (max. ang.)         AngularGrid ... 3 (Lebedev-194)
Angular grid pruning method      GridPruning ... 4 (adaptive)
Weight generation scheme         WeightScheme... mBecke (2022)
Basis function cutoff            BFCut       ... 1.0000e-11
Integration weight cutoff        WCut        ... 1.0000e-14
Partially contracted basis set               ... on
Rotationally invariant grid construction     ... off
Angular grids for H and He will be reduced by one unit

Total number of grid points                  ...   176142
Total number of batches                      ...     1415
Average number of points per batch           ...      124
Average number of grid points per atom       ...     2413
UseSFitting                                  ... on
Initializing property integral containers    ... done (  0.0 sec)

SHARK setup successfully completed in   3.6 seconds

Maximum memory used throughout the entire STARTUP-calculation: 85.7 MB


           ************************************************************
           *        Program running with 4 parallel MPI-processes     *
           *              working on a common directory               *
           ************************************************************
-------------------------------------------------------------------------------
                                 ORCA GUESS
                   Start orbitals & Density for SCF / CASSCF
-------------------------------------------------------------------------------

------------
SCF SETTINGS
------------
Hamiltonian:
 Density Functional     Method          .... DFT(GTOs)
 Exchange Functional    Exchange        .... PBE
   PBE kappa parameter   XKappa         ....  0.804000
   PBE mue parameter    XMuePBE         ....  0.219520
 Correlation Functional Correlation     .... PBE
   PBE beta parameter  CBetaPBE         ....  0.066725
 LDA part of GGA corr.  LDAOpt          .... PW91-LDA
 Gradients option       PostSCFGGA      .... off
 Hybrid DFT is turned on
   Fraction HF Exchange ScalHFX         ....  0.250000
   Scaling of DF-GGA-X  ScalDFX         ....  0.750000
   Scaling of DF-GGA-C  ScalDFC         ....  1.000000
   Scaling of DF-LDA-C  ScalLDAC        ....  1.000000
   Perturbative correction              ....  0.000000
   NL short-range parameter             ....  6.900000
 RI-approximation to the Coulomb term is turned on
   Number of AuxJ basis functions       .... 1905
   RIJ-COSX (HFX calculated with COS-X)).... on


General Settings:
 Integral files         IntName         .... inpJ
 Hartree-Fock type      HFTyp           .... RHF
 Total Charge           Charge          ....    0
 Multiplicity           Mult            ....    1
 Number of Electrons    NEL             ....  220
 Basis Dimension        Dim             ....  509
 Nuclear Repulsion      ENuc            ....   2796.4583195482 Eh

Convergence Acceleration:
 AO-DIIS                CNVDIIS         .... on
   Start iteration      DIISMaxIt       ....    12
   Startup error        DIISStart       ....  0.200000
   # of expansion vecs  DIISMaxEq       ....     5
   Bias factor          DIISBfac        ....   1.050
   Max. coefficient     DIISMaxC        ....  10.000
 MO-DIIS                CNVKDIIS        .... off
 Trust-Rad. Augm. Hess. CNVTRAH         .... auto
   Auto Start mean grad. ratio tolernc. ....  1.125000
   Auto Start start iteration           ....     1
   Auto Start num. interpolation iter.  ....    10
   Max. Number of Micro iterations      ....    24
   Max. Number of Macro iterations      .... Maxiter - #DIIS iter
   Number of Davidson start vectors     ....     2
   Converg. threshold    (grad. norm)   ....   1.000e-04
   Grad. Scal. Fac. for Micro threshold ....   0.100
   Minimum threshold for Micro iter.    ....   1.000e-02
   NR start threshold (gradient norm)   ....   1.000e-04
   Initial trust radius                 ....   0.400
   Minimum AH scaling param. (alpha)    ....   1.000
   Maximum AH scaling param. (alpha)    .... 1000.000
   Quad. conv. algorithm                .... NR
   White noise on init. David. guess    .... on
   Maximum white noise                  ....   0.010
   Pseudo random numbers                .... off
   Inactive MOs                         .... canonical
   Orbital update algorithm             .... Taylor
   Preconditioner                       .... Diag
   Full preconditioner red. dimension   ....   250
 SOSCF                  CNVSOSCF        .... off
 Level Shifting         CNVShift        .... on
   Level shift para.    LevelShift      ....    0.2500
   Turn off err/grad.   ShiftErr        ....    0.0010
 Zerner damping         CNVZerner       .... off
 Static damping         CNVDamp         .... on
   Fraction old density DampFac         ....    0.7000
   Max. Damping (<1)    DampMax         ....    0.9800
   Min. Damping (>=0)   DampMin         ....    0.0000
   Turn off err/grad.   DampErr         ....    0.1000

SCF Procedure:
 Maximum # iterations   MaxIter         ....   125
 SCF integral mode      SCFMode         .... Direct
   Integral package                     .... SHARK and LIBINT hybrid scheme
 Reset frequency        DirectResetFreq ....    20
 Integral Threshold     Thresh          ....  3.000e-11 Eh
 Primitive CutOff       TCut            ....  1.000e-12 Eh

Convergence Tolerance:
 Convergence Check Mode ConvCheckMode   .... Total+1el-Energy
 Convergence forced     ConvForced      .... 0
 Energy Change          TolE            ....  1.000e-07 Eh
 1-El. energy change                    ....  1.000e-04 Eh
 DIIS Error             TolErr          ....  1.000e-07

---------------------
INITIAL GUESS: MOREAD
---------------------
Guess MOs are being read from file: inpJ.ges
Input Geometry matches current geometry (good)
Input basis set matches current basis set (good)
Occupation numbers will be reassigned to an Aufbau configuration
MOs were renormalized
MOs were reorthogonalized (Cholesky)
                      ------------------
                      INITIAL GUESS DONE (   0.1 sec)
                      ------------------
             **** ENERGY FILE WAS UPDATED (inpJ.en.tmp) ****
Finished Guess after   0.2 sec
Maximum memory used throughout the entire GUESS-calculation: 36.8 MB


           ************************************************************
           *        Program running with 4 parallel MPI-processes     *
           *              working on a common directory               *
           ************************************************************

-------------------------------------------------------------------------------------------
                                      ORCA LEAN-SCF
                              memory conserving SCF solver
-------------------------------------------------------------------------------------------

--------------------
CPCM SOLVATION MODEL
--------------------
CPCM parameters:
  Epsilon                                         ...       4.8030
  Refrac                                          ...       1.4459
  Rsolv                                           ...       1.3000
  Surface type                                    ... GAUSSIAN VDW
  Discretization scheme                           ... Constant charge density
    Threshold for H atoms                         ...       5.0000 (charges/Ang^2)
    Threshold for non-H atoms                     ...       5.0000 (charges/Ang^2)
  Epsilon function type                           ...         CPCM
Solvent:                                          ... CHLOROFORM
Radii:
  Scheme                                          ... Element-dependent radii
  Radius for C  used is    3.8550 Bohr (=   2.0400 Ang.)
  Radius for H  used is    2.4944 Bohr (=   1.3200 Ang.)
  Radius for O  used is    3.4469 Bohr (=   1.8240 Ang.)
Calculating surface                               ...        done! (  0.0s)
Cavity surface points                             ...         5380
Cavity Volume                                     ...    3615.5459
Cavity Surface-area                               ...    1787.9223
Calculating surface distance matrix               ...        done! (  0.3s)
Performing Cholesky decomposition & store         ...        done! (  1.3s)
Overall time for CPCM initialization              ...                 1.6s

----------------------------------------D-I-I-S--------------------------------------------
Iteration    Energy (Eh)           Delta-E    RMSDP     MaxDP     DIISErr   Damp  Time(sec)
-------------------------------------------------------------------------------------------
               ***  Starting incremental Fock matrix formation  ***
    1    -1165.5128845075282698     0.00e+00  4.29e-08  5.65e-06  6.62e-06  0.700   6.2

  HOMO= 109 E= -6.010 eV LUMO=  5.935 eV gap=  11.945 eV
    2    -1165.5128845269273370    -1.94e-08  2.89e-08  3.39e-06  3.32e-06  0.700   2.1
                 **** Energy Check signals convergence ****

  HOMO= 109 E= -6.010 eV LUMO=  5.935 eV gap=  11.945 eV

               *****************************************************
               *                     SUCCESS                       *
               *           SCF CONVERGED AFTER   2 CYCLES          *
               *****************************************************

Recomputing exchange energy using gridx3       ... done (    8.276 sec)
Old exchange energy                            :    -42.067818640 Eh
New exchange energy                            :    -42.067785593 Eh
Exchange energy change after final integration :      0.000033047 Eh
Total energy after final integration           :  -1165.512851480 Eh
             **** ENERGY FILE WAS UPDATED (inpJ.en.tmp) ****

----------------
TOTAL SCF ENERGY
----------------

Total Energy       :      -1165.51285148007355 Eh          -31715.21706 eV

Components:
Nuclear Repulsion  :       2796.45831954821915 Eh           76095.49950 eV
Electronic Energy  :      -3961.95784371737545 Eh         -107810.35390 eV
One Electron Energy:      -7134.68761326776803 Eh         -194144.72008 eV
Two Electron Energy:       3172.72976955039258 Eh           86334.36618 eV
CPCM Dielectric    :         -0.01336035777126 Eh              -0.36355 eV

Virial components:
Potential Energy   :      -2322.41028529222922 Eh          -63195.99669 eV
Kinetic Energy     :       1156.89743381215567 Eh           31480.77963 eV
Virial Ratio       :          2.00744700214221

DFT components:
N(Alpha)           :      110.000033908090 electrons
N(Beta)            :      110.000033908090 electrons
N(Total)           :      220.000067816180 electrons
E(X)               :     -125.745806421272 Eh       
E(C)               :       -7.327990369250 Eh       
E(XC)              :     -133.073796790522 Eh       

CPCM Solvation Model Properties:
Surface-charge          :         -0.03323616950930
Corrected charge        :          0.00000000000000
Outlying charge corr.   :          0.00003893583241 Eh               0.00106 eV
Free-energy (cav+disp)  :  This term is not implemented in the current solvation scheme

---------------
SCF CONVERGENCE
---------------

  Last Energy change         ...    1.9399e-08  Tolerance :   1.0000e-07
  Last MAX-Density change    ...    3.3922e-06  Tolerance :   1.0000e-05
  Last RMS-Density change    ...    2.8946e-08  Tolerance :   1.0000e-06
  Last DIIS Error            ...    3.3215e-06  Tolerance :   1.0000e-07


----------------
ORBITAL ENERGIES
----------------

  NO   OCC          E(Eh)            E(eV) 
   0   2.0000     -19.212557      -522.8003 
   1   2.0000     -10.300496      -280.2908 
   2   2.0000     -10.270547      -279.4758 
   3   2.0000     -10.268355      -279.4161 
   4   2.0000     -10.263745      -279.2907 
   5   2.0000     -10.257559      -279.1224 
   6   2.0000     -10.257205      -279.1127 
   7   2.0000     -10.251327      -278.9528 
   8   2.0000     -10.250153      -278.9209 
   9   2.0000     -10.249362      -278.8993 
  10   2.0000     -10.248234      -278.8686 
  11   2.0000     -10.247640      -278.8525 
  12   2.0000     -10.246370      -278.8179 
  13   2.0000     -10.245240      -278.7872 
  14   2.0000     -10.244719      -278.7730 
  15   2.0000     -10.244514      -278.7674 
  16   2.0000     -10.242971      -278.7254 
  17   2.0000     -10.242693      -278.7179 
  18   2.0000     -10.241836      -278.6945 
  19   2.0000     -10.241558      -278.6870 
  20   2.0000     -10.240296      -278.6526 
  21   2.0000     -10.234631      -278.4985 
  22   2.0000     -10.234417      -278.4926 
  23   2.0000     -10.233066      -278.4559 
  24   2.0000     -10.226067      -278.2654 
  25   2.0000     -10.225106      -278.2393 
  26   2.0000     -10.224624      -278.2262 
  27   2.0000     -10.222061      -278.1564 
  28   2.0000     -10.221014      -278.1279 
  29   2.0000      -1.043323       -28.3903 
  30   2.0000      -0.901626       -24.5345 
  31   2.0000      -0.882234       -24.0068 
  32   2.0000      -0.860354       -23.4114 
  33   2.0000      -0.846520       -23.0350 
  34   2.0000      -0.822896       -22.3921 
  35   2.0000      -0.814514       -22.1641 
  36   2.0000      -0.796084       -21.6625 
  37   2.0000      -0.795214       -21.6389 
  38   2.0000      -0.777431       -21.1550 
  39   2.0000      -0.758383       -20.6366 
  40   2.0000      -0.740343       -20.1458 
  41   2.0000      -0.731824       -19.9139 
  42   2.0000      -0.715143       -19.4600 
  43   2.0000      -0.702982       -19.1291 
  44   2.0000      -0.702407       -19.1135 
  45   2.0000      -0.695635       -18.9292 
  46   2.0000      -0.672112       -18.2891 
  47   2.0000      -0.670449       -18.2438 
  48   2.0000      -0.632016       -17.1980 
  49   2.0000      -0.622233       -16.9318 
  50   2.0000      -0.612226       -16.6595 
  51   2.0000      -0.604340       -16.4449 
  52   2.0000      -0.596526       -16.2323 
  53   2.0000      -0.575147       -15.6506 
  54   2.0000      -0.559050       -15.2125 
  55   2.0000      -0.548946       -14.9376 
  56   2.0000      -0.539793       -14.6885 
  57   2.0000      -0.529533       -14.4093 
  58   2.0000      -0.515421       -14.0253 
  59   2.0000      -0.508358       -13.8331 
  60   2.0000      -0.498440       -13.5632 
  61   2.0000      -0.489739       -13.3265 
  62   2.0000      -0.485917       -13.2225 
  63   2.0000      -0.480943       -13.0871 
  64   2.0000      -0.478486       -13.0203 
  65   2.0000      -0.469259       -12.7692 
  66   2.0000      -0.465847       -12.6763 
  67   2.0000      -0.462268       -12.5790 
  68   2.0000      -0.459246       -12.4967 
  69   2.0000      -0.453039       -12.3278 
  70   2.0000      -0.450238       -12.2516 
  71   2.0000      -0.444455       -12.0942 
  72   2.0000      -0.435663       -11.8550 
  73   2.0000      -0.433093       -11.7850 
  74   2.0000      -0.423870       -11.5341 
  75   2.0000      -0.421838       -11.4788 
  76   2.0000      -0.418418       -11.3857 
  77   2.0000      -0.413228       -11.2445 
  78   2.0000      -0.411207       -11.1895 
  79   2.0000      -0.410108       -11.1596 
  80   2.0000      -0.401665       -10.9299 
  81   2.0000      -0.398565       -10.8455 
  82   2.0000      -0.396316       -10.7843 
  83   2.0000      -0.390458       -10.6249 
  84   2.0000      -0.383259       -10.4290 
  85   2.0000      -0.379479       -10.3261 
  86   2.0000      -0.375901       -10.2288 
  87   2.0000      -0.373862       -10.1733 
  88   2.0000      -0.366304        -9.9676 
  89   2.0000      -0.364436        -9.9168 
  90   2.0000      -0.360665        -9.8142 
  91   2.0000      -0.357884        -9.7385 
  92   2.0000      -0.350073        -9.5260 
  93   2.0000      -0.344197        -9.3661 
  94   2.0000      -0.341444        -9.2912 
  95   2.0000      -0.340793        -9.2735 
  96   2.0000      -0.338187        -9.2025 
  97   2.0000      -0.333908        -9.0861 
  98   2.0000      -0.332833        -9.0569 
  99   2.0000      -0.329894        -8.9769 
 100   2.0000      -0.327199        -8.9035 
 101   2.0000      -0.325811        -8.8658 
 102   2.0000      -0.319315        -8.6890 
 103   2.0000      -0.317142        -8.6299 
 104   2.0000      -0.310840        -8.4584 
 105   2.0000      -0.301262        -8.1978 
 106   2.0000      -0.276769        -7.5313 
 107   2.0000      -0.275299        -7.4913 
 108   2.0000      -0.256790        -6.9876 
 109   2.0000      -0.220857        -6.0098 
 110   0.0000      -0.031892        -0.8678 
 111   0.0000       0.019374         0.5272 
 112   0.0000       0.028644         0.7794 
 113   0.0000       0.080187         2.1820 
 114   0.0000       0.088194         2.3999 
 115   0.0000       0.101339         2.7576 
 116   0.0000       0.104827         2.8525 
 117   0.0000       0.107181         2.9166 
 118   0.0000       0.109223         2.9721 
 119   0.0000       0.114772         3.1231 
 120   0.0000       0.117521         3.1979 
*Only the first 10 virtual orbitals were printed.

                    ********************************
                    * MULLIKEN POPULATION ANALYSIS *
                    ********************************

-----------------------
MULLIKEN ATOMIC CHARGES
-----------------------
   0 C :    0.078587
   1 C :   -0.500448
   2 C :   -0.074431
   3 H :    0.222926
   4 H :    0.219708
   5 C :    0.138893
   6 C :   -0.480316
   7 C :   -0.439857
   8 H :    0.225471
   9 H :    0.207271
  10 H :    0.208878
  11 H :    0.227901
  12 O :   -0.488031
  13 H :    0.247449
  14 C :   -0.280369
  15 C :   -0.514068
  16 H :    0.201044
  17 H :    0.196989
  18 C :   -0.260900
  19 H :    0.220124
  20 C :    0.154122
  21 H :    0.219329
  22 C :   -0.479023
  23 C :   -0.427617
  24 H :    0.211886
  25 H :    0.206969
  26 C :   -0.397424
  27 H :    0.208752
  28 H :    0.217355
  29 C :    0.003032
  30 H :    0.221989
  31 H :    0.194605
  32 C :   -0.229817
  33 H :    0.227854
  34 C :   -0.433526
  35 H :    0.341027
  36 C :   -0.418293
  37 H :    0.207990
  38 H :    0.197961
  39 C :   -0.187809
  40 H :    0.209786
  41 H :    0.208036
  42 H :    0.209813
  43 C :   -0.250104
  44 C :   -0.627218
  45 H :    0.205342
  46 H :    0.209241
  47 H :    0.200695
  48 H :    0.218615
  49 C :   -0.618886
  50 C :   -0.177402
  51 C :   -0.177548
  52 H :    0.213682
  53 H :    0.207608
  54 C :   -0.224480
  55 C :   -0.640581
  56 C :   -0.203642
  57 H :    0.225344
  58 H :    0.220041
  59 C :   -0.610472
  60 C :   -0.619682
  61 H :    0.196303
  62 H :    0.212067
  63 H :    0.201636
  64 H :    0.200321
  65 H :    0.197799
  66 H :    0.204338
  67 H :    0.210611
  68 H :    0.200424
  69 H :    0.195546
  70 H :    0.210701
  71 H :    0.193147
  72 H :    0.202734
Sum of atomic charges:   -0.0000000

--------------------------------
MULLIKEN REDUCED ORBITAL CHARGES
--------------------------------
  0 C s       :     3.354188  s :     3.354188
      pz      :     1.000382  p :     2.567225
      px      :     0.810284
      py      :     0.756560

  1 C s       :     3.378022  s :     3.378022
      pz      :     1.135017  p :     3.122426
      px      :     0.871072
      py      :     1.116336

  2 C s       :     3.312730  s :     3.312730
      pz      :     0.707224  p :     2.761701
      px      :     1.144547
      py      :     0.909930

  3 H s       :     0.777074  s :     0.777074

  4 H s       :     0.780292  s :     0.780292

  5 C s       :     3.341514  s :     3.341514
      pz      :     0.892854  p :     2.519593
      px      :     0.859122
      py      :     0.767617

  6 C s       :     3.367291  s :     3.367291
      pz      :     1.134666  p :     3.113025
      px      :     0.887983
      py      :     1.090377

  7 C s       :     3.338575  s :     3.338575
      pz      :     1.181067  p :     3.101282
      px      :     0.964343
      py      :     0.955872

  8 H s       :     0.774529  s :     0.774529

  9 H s       :     0.792729  s :     0.792729

 10 H s       :     0.791122  s :     0.791122

 11 H s       :     0.772099  s :     0.772099

 12 O s       :     3.685035  s :     3.685035
      pz      :     1.432459  p :     4.802996
      px      :     1.467653
      py      :     1.902883

 13 H s       :     0.752551  s :     0.752551

 14 C s       :     3.394196  s :     3.394196
      pz      :     0.978396  p :     2.886173
      px      :     0.832951
      py      :     1.074827

 15 C s       :     3.385481  s :     3.385481
      pz      :     0.993191  p :     3.128587
      px      :     0.987417
      py      :     1.147979

 16 H s       :     0.798956  s :     0.798956

 17 H s       :     0.803011  s :     0.803011

 18 C s       :     3.397491  s :     3.397491
      pz      :     1.013483  p :     2.863410
      px      :     0.772940
      py      :     1.076987

 19 H s       :     0.779876  s :     0.779876

 20 C s       :     3.350549  s :     3.350549
      pz      :     0.942268  p :     2.495329
      px      :     0.761554
      py      :     0.791507

 21 H s       :     0.780671  s :     0.780671

 22 C s       :     3.372516  s :     3.372516
      pz      :     1.110635  p :     3.106507
      px      :     1.109709
      py      :     0.886162

 23 C s       :     3.327531  s :     3.327531
      pz      :     1.093482  p :     3.100086
      px      :     0.888520
      py      :     1.118085

 24 H s       :     0.788114  s :     0.788114

 25 H s       :     0.793031  s :     0.793031

 26 C s       :     3.349917  s :     3.349917
      pz      :     1.173662  p :     3.047507
      px      :     0.962718
      py      :     0.911128

 27 H s       :     0.791248  s :     0.791248

 28 H s       :     0.782645  s :     0.782645

 29 C s       :     3.317547  s :     3.317547
      pz      :     0.868652  p :     2.679421
      px      :     0.904966
      py      :     0.905803

 30 H s       :     0.778011  s :     0.778011

 31 H s       :     0.805395  s :     0.805395

 32 C s       :     3.362853  s :     3.362853
      pz      :     1.075396  p :     2.866964
      px      :     0.859784
      py      :     0.931784

 33 H s       :     0.772146  s :     0.772146

 34 C s       :     3.344599  s :     3.344599
      pz      :     1.190295  p :     3.088926
      px      :     0.932825
      py      :     0.965806

 35 H s       :     0.658973  s :     0.658973

 36 C s       :     3.337500  s :     3.337500
      pz      :     1.167547  p :     3.080792
      px      :     0.934124
      py      :     0.979121

 37 H s       :     0.792010  s :     0.792010

 38 H s       :     0.802039  s :     0.802039

 39 C s       :     3.337519  s :     3.337519
      pz      :     1.057310  p :     2.850291
      px      :     0.858477
      py      :     0.934504

 40 H s       :     0.790214  s :     0.790214

 41 H s       :     0.791964  s :     0.791964

 42 H s       :     0.790187  s :     0.790187

 43 C s       :     3.345765  s :     3.345765
      pz      :     1.069915  p :     2.904339
      px      :     0.874194
      py      :     0.960229

 44 C s       :     3.365704  s :     3.365704
      pz      :     0.958789  p :     3.261514
      px      :     1.163358
      py      :     1.139367

 45 H s       :     0.794658  s :     0.794658

 46 H s       :     0.790759  s :     0.790759

 47 H s       :     0.799305  s :     0.799305

 48 H s       :     0.781385  s :     0.781385

 49 C s       :     3.347195  s :     3.347195
      pz      :     1.144382  p :     3.271690
      px      :     1.152745
      py      :     0.974563

 50 C s       :     3.340911  s :     3.340911
      pz      :     1.052322  p :     2.836491
      px      :     0.890786
      py      :     0.893383

 51 C s       :     3.344098  s :     3.344098
      pz      :     1.061072  p :     2.833450
      px      :     0.877784
      py      :     0.894593

 52 H s       :     0.786318  s :     0.786318

 53 H s       :     0.792392  s :     0.792392

 54 C s       :     3.342301  s :     3.342301
      pz      :     0.976370  p :     2.882179
      px      :     1.027113
      py      :     0.878696

 55 C s       :     3.351408  s :     3.351408
      pz      :     0.994532  p :     3.289173
      px      :     1.160259
      py      :     1.134382

 56 C s       :     3.312144  s :     3.312144
      pz      :     1.094779  p :     2.891498
      px      :     0.899223
      py      :     0.897496

 57 H s       :     0.774656  s :     0.774656

 58 H s       :     0.779959  s :     0.779959

 59 C s       :     3.341795  s :     3.341795
      pz      :     1.146353  p :     3.268678
      px      :     1.013298
      py      :     1.109027

 60 C s       :     3.345183  s :     3.345183
      pz      :     1.079271  p :     3.274498
      px      :     1.043541
      py      :     1.151686

 61 H s       :     0.803697  s :     0.803697

 62 H s       :     0.787933  s :     0.787933

 63 H s       :     0.798364  s :     0.798364

 64 H s       :     0.799679  s :     0.799679

 65 H s       :     0.802201  s :     0.802201

 66 H s       :     0.795662  s :     0.795662

 67 H s       :     0.789389  s :     0.789389

 68 H s       :     0.799576  s :     0.799576

 69 H s       :     0.804454  s :     0.804454

 70 H s       :     0.789299  s :     0.789299

 71 H s       :     0.806853  s :     0.806853

 72 H s       :     0.797266  s :     0.797266


------------------------
MULLIKEN OVERLAP CHARGES
------------------------
B(  0-C ,  1-C ) :   0.5242 B(  0-C ,  2-C ) :  -0.1798 B(  0-C ,  3-H ) :  -0.0797 
B(  0-C ,  4-H ) :  -0.0864 B(  0-C ,  5-C ) :   0.4160 B(  0-C ,  6-C ) :  -0.1412 
B(  0-C , 14-C ) :   0.9504 B(  0-C , 15-C ) :  -0.2024 B(  0-C , 18-C ) :  -0.1864 
B(  0-C , 19-H ) :  -0.0752 B(  1-C ,  2-C ) :   0.5264 B(  1-C ,  3-H ) :   0.8090 
B(  1-C ,  4-H ) :   0.7737 B(  1-C ,  5-C ) :  -0.1403 B(  1-C ,  7-C ) :  -0.1581 
B(  1-C , 12-O ) :  -0.1100 B(  1-C , 13-H ) :  -0.0575 B(  1-C , 14-C ) :  -0.1136 
B(  2-C ,  3-H ) :  -0.0592 B(  2-C ,  4-H ) :  -0.0536 B(  2-C ,  6-C ) :  -0.1583 
B(  2-C ,  7-C ) :   0.5149 B(  2-C , 10-H ) :  -0.0624 B(  2-C , 11-H ) :  -0.0697 
B(  2-C , 12-O ) :   0.6965 B(  2-C , 13-H ) :   0.8217 B(  2-C , 35-H ) :  -0.1152 
B(  5-C ,  6-C ) :   0.5296 B(  5-C ,  7-C ) :  -0.1575 B(  5-C ,  8-H ) :  -0.0730 
B(  5-C ,  9-H ) :  -0.0939 B(  5-C , 14-C ) :  -0.1994 B(  5-C , 15-C ) :   1.0614 
B(  5-C , 16-H ) :  -0.0996 B(  5-C , 17-H ) :  -0.0952 B(  6-C ,  7-C ) :   0.5526 
B(  6-C ,  8-H ) :   0.8229 B(  6-C ,  9-H ) :   0.7936 B(  6-C , 10-H ) :  -0.0740 
B(  6-C , 11-H ) :  -0.0562 B(  6-C , 15-C ) :  -0.1299 B(  7-C ,  9-H ) :  -0.0777 
B(  7-C , 10-H ) :   0.7763 B(  7-C , 11-H ) :   0.8045 B(  7-C , 12-O ) :  -0.1081 
B(  7-C , 13-H ) :  -0.0824 B( 12-O , 35-H ) :   0.6664 B( 14-C , 18-C ) :   0.6126 
B( 14-C , 19-H ) :   0.8213 B( 14-C , 20-C ) :  -0.1940 B( 14-C , 21-H ) :  -0.0738 
B( 15-C , 16-H ) :   0.8137 B( 15-C , 17-H ) :   0.8065 B( 18-C , 19-H ) :  -0.0602 
B( 18-C , 20-C ) :   0.9192 B( 18-C , 21-H ) :   0.8335 B( 18-C , 22-C ) :  -0.1509 
B( 18-C , 32-C ) :  -0.1498 B( 20-C , 21-H ) :  -0.0830 B( 20-C , 22-C ) :   0.5339 
B( 20-C , 23-C ) :  -0.1729 B( 20-C , 24-H ) :  -0.0674 B( 20-C , 25-H ) :  -0.0917 
B( 20-C , 29-C ) :  -0.1247 B( 20-C , 32-C ) :   0.5183 B( 20-C , 33-H ) :  -0.0915 
[...]
        0.0000         1.5717        0.0000
        0.0000         0.0000        1.5717

 Diagonalized JT*J matrix:
 
 J[55,60](FC)             1.572            1.572            1.572  iso=      1.572
                ---------------  ---------------  ---------------  ---------------
 J[55,60](Total)          1.572            1.572            1.572  iso=      1.572



-----------------------------------------------------------
 NUCLEUS A = C   56 NUCLEUS B = C   59 
 ( 13C  gnA =  1.405  13C  gnB =  1.405) r(AB) =     1.5304
-----------------------------------------------------------

Fermi-contact contribution to J (Hz):
       26.8735         0.0000        0.0000
        0.0000        26.8735        0.0000
        0.0000         0.0000       26.8735

Total spin-spin coupling tensor J (Hz):
       26.8735         0.0000        0.0000
        0.0000        26.8735        0.0000
        0.0000         0.0000       26.8735

 Diagonalized JT*J matrix:
 
 J[56,59](FC)            26.874           26.874           26.874  iso=     26.874
                ---------------  ---------------  ---------------  ---------------
 J[56,59](Total)         26.874           26.874           26.874  iso=     26.874



-----------------------------------------------------------
 NUCLEUS A = C   56 NUCLEUS B = C   60 
 ( 13C  gnA =  1.405  13C  gnB =  1.405) r(AB) =     1.5301
-----------------------------------------------------------

Fermi-contact contribution to J (Hz):
       26.5452         0.0000        0.0000
        0.0000        26.5452        0.0000
        0.0000         0.0000       26.5452

Total spin-spin coupling tensor J (Hz):
       26.5452         0.0000        0.0000
        0.0000        26.5452        0.0000
        0.0000         0.0000       26.5452

 Diagonalized JT*J matrix:
 
 J[56,60](FC)            26.545           26.545           26.545  iso=     26.545
                ---------------  ---------------  ---------------  ---------------
 J[56,60](Total)         26.545           26.545           26.545  iso=     26.545



-----------------------------------------------------------
 NUCLEUS A = C   59 NUCLEUS B = C   60 
 ( 13C  gnA =  1.405  13C  gnB =  1.405) r(AB) =     2.5190
-----------------------------------------------------------

Fermi-contact contribution to J (Hz):
       -0.8326         0.0000        0.0000
        0.0000        -0.8326        0.0000
        0.0000         0.0000       -0.8326

Total spin-spin coupling tensor J (Hz):
       -0.8326         0.0000        0.0000
        0.0000        -0.8326        0.0000
        0.0000         0.0000       -0.8326

 Diagonalized JT*J matrix:
 
 J[59,60](FC)            -0.833           -0.833           -0.833  iso=     -0.833
                ---------------  ---------------  ---------------  ---------------
 J[59,60](Total)         -0.833           -0.833           -0.833  iso=     -0.833



-----------------------------------------------------------------------------
                SUMMARY OF ISOTROPIC COUPLING CONSTANTS J (Hz)                
-----------------------------------------------------------------------------
                  0 C        1 C        2 C        5 C        6 C        7 C  
      0 C        0.000     33.095     -3.741     41.325     -0.882      2.286
      1 C       33.095      0.000     23.435     -1.191      1.435     -0.658
      2 C       -3.741     23.435      0.000      2.298     -2.756     25.819
      5 C       41.325     -1.191      2.298      0.000     30.367     -2.771
      6 C       -0.882      1.435     -2.756     30.367      0.000     24.820
      7 C        2.286     -0.658     25.819     -2.771     24.820      0.000
     14 C       69.402     -0.364      2.845     -3.023      2.184     -0.622
     15 C       -3.416      2.417     -0.860     64.555     -1.077      2.602
     18 C       -2.408      4.172     -1.088      3.186     -0.813      0.190
     20 C        6.802     -1.099      1.078     -1.393      0.605     -0.102
     22 C       -0.921      0.326     -0.328      0.425     -0.181      0.037
     23 C        0.831     -0.288      0.282     -0.347      0.154      0.000
     26 C       -0.096      0.040      0.000      0.050      0.000      0.000
     29 C        1.168     -0.366      0.000     -0.452      0.208      0.000
     32 C       -1.117      0.543     -0.371      0.473     -0.213      0.044
     34 C        0.023     -0.015      0.014     -0.015      0.005     -0.001
     36 C       -0.017      0.000      0.000      0.016     -0.008      0.000
     39 C       -0.070      0.000      0.000      0.030      0.000      0.000
     43 C        0.000      0.000      0.000      0.000      0.000      0.000
     44 C        0.009     -0.003      0.000     -0.002     -0.004      0.000
     49 C        0.000      0.000      0.000      0.000      0.000      0.000
     50 C        0.000      0.000      0.000      0.000      0.000      0.000
     51 C        0.000      0.000      0.000      0.000      0.000      0.000
     54 C        0.000      0.000      0.000      0.000      0.000      0.000
     55 C        0.000      0.000      0.000      0.000      0.000      0.000
     56 C        0.000      0.000      0.000      0.000      0.000      0.000
     59 C        0.000      0.000      0.000      0.000      0.000      0.000
     60 C        0.000      0.000      0.000      0.000      0.000      0.000
                 14 C       15 C       18 C       20 C       22 C       23 C  
      0 C       69.402     -3.416     -2.408      6.802     -0.921      0.831
      1 C       -0.364      2.417      4.172     -1.099      0.326     -0.288
      2 C        2.845     -0.860     -1.088      1.078     -0.328      0.282
      5 C       -3.023     64.555      3.186     -1.393      0.425     -0.347
      6 C        2.184     -1.077     -0.813      0.605     -0.181      0.154
      7 C       -0.622      2.602      0.190     -0.102      0.037      0.000
     14 C        0.000      3.109     54.082     -2.636      3.798     -0.932
     15 C        3.109      0.000     -1.144      1.009     -0.272      0.256
     18 C       54.082     -1.144      0.000     69.990     -2.147      2.360
     20 C       -2.636      1.009     69.990      0.000     32.120     -2.991
     22 C        3.798     -0.272     -2.147     32.120      0.000     24.197
     23 C       -0.932      0.256      2.360     -2.991     24.197      0.000
     26 C        0.138     -0.034     -0.353      1.019     -1.922     25.427
     29 C       -1.138      0.325      2.279     -2.454      1.065     -2.222
     32 C        4.379     -0.315     -1.290     36.801     -0.206      1.534
     34 C        0.068      0.004      2.447     -1.389      1.621     -0.267
     36 C        0.017     -0.014     -0.146      3.427      0.073      0.163
     39 C        0.253     -0.023     -0.046      2.888     -0.332      2.531
     43 C        0.006      0.017      0.278      0.174      0.001     -0.114
     44 C        0.007      0.028     -0.052      0.693     -0.134      0.587
     49 C        0.000      0.000     -0.009     -0.050      0.136      0.043
     50 C        0.000      0.000      0.023      0.129     -0.005      0.121
     51 C        0.000      0.000      0.016      0.048      0.000     -0.002
     54 C        0.000      0.000      0.000      0.000      0.000      0.000
     55 C        0.000      0.000      0.000      0.000      0.000      0.000
     56 C        0.000      0.000      0.000      0.000      0.000      0.000
     59 C        0.000      0.000      0.000      0.000      0.000      0.000
     60 C        0.000      0.000      0.000      0.000      0.000      0.000
                 26 C       29 C       32 C       34 C       36 C       39 C  
      0 C       -0.096      1.168     -1.117      0.023     -0.017     -0.070
      1 C        0.040     -0.366      0.543     -0.015      0.000      0.000
      2 C        0.000      0.000     -0.371      0.014      0.000      0.000
      5 C        0.050     -0.452      0.473     -0.015      0.016      0.030
      6 C        0.000      0.208     -0.213      0.005     -0.008      0.000
      7 C        0.000      0.000      0.044     -0.001      0.000      0.000
     14 C        0.138     -1.138      4.379      0.068      0.017      0.253
     15 C       -0.034      0.325     -0.315      0.004     -0.014     -0.023
     18 C       -0.353      2.279     -1.290      2.447     -0.146     -0.046
     20 C        1.019     -2.454     36.801     -1.389      3.427      2.888
     22 C       -1.922      1.065     -0.206      1.621      0.073     -0.332
     23 C       25.427     -2.222      1.534     -0.267      0.163      2.531
     26 C        0.000     27.866     -0.918      2.259      3.026     -0.608
     29 C       27.866      0.000     23.084      0.849      0.782     28.507
     32 C       -0.918     23.084      0.000     27.933      1.178      3.367
     34 C        2.259      0.849     27.933      0.000     25.893      0.188
     36 C        3.026      0.782      1.178     25.893      0.000     26.875
     39 C       -0.608     28.507      3.367      0.188     26.875      0.000
     43 C       -0.020     -0.636      2.703      1.818      0.371     28.898
     44 C       -0.592     27.234     -0.973      0.808      0.294     -1.201
     49 C        0.350      0.062     -0.032      0.046      3.262     -1.225
     50 C       -0.120      3.627     -0.091     -0.043      0.655     -1.735
     51 C       -0.023      0.242      0.126      0.070     -0.015      3.272
     54 C       -0.001      0.098     -0.014     -0.002     -0.036     -0.460
     55 C        0.000     -0.001      0.000     -0.001     -0.005      0.033
     56 C        0.000      0.066      0.051     -0.001      0.076      0.785
     59 C        0.000      0.000      0.000      0.001      0.042     -0.016
     60 C        0.002      0.026      0.006      0.022      0.064      0.047
                 43 C       44 C       49 C       50 C       51 C       54 C  
      0 C        0.000      0.009      0.000      0.000      0.000      0.000
      1 C        0.000     -0.003      0.000      0.000      0.000      0.000
      2 C        0.000      0.000      0.000      0.000      0.000      0.000
      5 C        0.000     -0.002      0.000      0.000      0.000      0.000
      6 C        0.000     -0.004      0.000      0.000      0.000      0.000
      7 C        0.000      0.000      0.000      0.000      0.000      0.000
     14 C        0.006      0.007      0.000      0.000      0.000      0.000
     15 C        0.017      0.028      0.000      0.000      0.000      0.000
     18 C        0.278     -0.052     -0.009      0.023      0.016      0.000
     20 C        0.174      0.693     -0.050      0.129      0.048      0.000
     22 C        0.001     -0.134      0.136     -0.005      0.000      0.000
     23 C       -0.114      0.587      0.043      0.121     -0.002      0.000
     26 C       -0.020     -0.592      0.350     -0.120     -0.023     -0.001
     29 C       -0.636     27.234      0.062      3.627      0.242      0.098
     32 C        2.703     -0.973     -0.032     -0.091      0.126     -0.014
     34 C        1.818      0.808      0.046     -0.043      0.070     -0.002
     36 C        0.371      0.294      3.262      0.655     -0.015     -0.036
     39 C       28.898     -1.201     -1.225     -1.735      3.272     -0.460
     43 C        0.000      1.450     25.891     36.289     -0.254      3.716
     44 C        1.450      0.000     -0.109     -0.173     -0.009     -0.002
     49 C       25.891     -0.109      0.000     -3.048      3.370     -0.829
     50 C       36.289     -0.173     -3.048      0.000     69.632     -1.757
     51 C       -0.254     -0.009      3.370     69.632      0.000     36.384
     54 C        3.716     -0.002     -0.829     -1.757     36.384      0.000
     55 C       -0.083      0.000      0.043      2.880     -1.632     27.454
     56 C       -0.646     -0.002      0.872      3.236     -1.389     25.769
     59 C        0.188      0.000     -0.043      0.393      3.704     -0.340
     60 C        0.001     -0.001     -0.007     -0.092      0.480     -1.307
                 55 C       56 C       59 C       60 C  
      0 C        0.000      0.000      0.000      0.000
      1 C        0.000      0.000      0.000      0.000
      2 C        0.000      0.000      0.000      0.000
      5 C        0.000      0.000      0.000      0.000
      6 C        0.000      0.000      0.000      0.000
      7 C        0.000      0.000      0.000      0.000
     14 C        0.000      0.000      0.000      0.000
     15 C        0.000      0.000      0.000      0.000
     18 C        0.000      0.000      0.000      0.000
     20 C        0.000      0.000      0.000      0.000
     22 C        0.000      0.000      0.000      0.000
     23 C        0.000      0.000      0.000      0.000
     26 C        0.000      0.000      0.000      0.002
     29 C       -0.001      0.066      0.000      0.026
     32 C        0.000      0.051      0.000      0.006
     34 C       -0.001     -0.001      0.001      0.022
     36 C       -0.005      0.076      0.042      0.064
     39 C        0.033      0.785     -0.016      0.047
     43 C       -0.083     -0.646      0.188      0.001
     44 C        0.000     -0.002      0.000     -0.001
     49 C        0.043      0.872     -0.043     -0.007
     50 C        2.880      3.236      0.393     -0.092
     51 C       -1.632     -1.389      3.704      0.480
     54 C       27.454     25.769     -0.340     -1.307
     55 C        0.000     -1.728      0.895      1.572
     56 C       -1.728      0.000     26.874     26.545
     59 C        0.895     26.874      0.000     -0.833
     60 C        1.572     26.545     -0.833      0.000

NMR spin-spin coupling calculation done in   0.3 sec 

Maximum memory used throughout the entire PROP-calculation: 34.3 MB

--------------------------------
SUGGESTED CITATIONS FOR THIS RUN
--------------------------------

Below you find a list of papers that are relevant to this ORCA run
We neither can nor want to force you to cite these papers, but we appreciate if you do
You receive ORCA, which is the product of decades of hard work by many enthusiastic individuals, for free
The only thing we kindly ask in return is that you cite our papers,
We deeply appreciate it, if you show your appreciation for ORCA by not just citing the generic ORCA reference.

Please note that relegating all ORCA citations to the supporting information does *not* help us.
SI sections are not indexed - citations you put there will not count into any citation statistics
But we need these citations in order to attract the funding resources that allow us to do what we are doing

Therefore, if you are a happy ORCA user, please consider citing a few of the papers listed below in the main body of your paper

In addition to the list printed below, the program has created the file inpJ.bibtex that contains the list in bibtex format
You can import this file easily into all common literature databanks and citation aid programs


List of essential papers. We consider these as the minimum necessary citations

  1. Neese,F.
     Software update: the ORCA program system, version 5.0
     WIRES Comput. Molec. Sci., 2022 12(1)e1606
     doi.org/10.1002/wcms.1606

List of papers to cite with high priority. The work reported in these papers was absolutely
necessary for this run to complete.
Our perspective: the developers of density functionals and basis sets usually get cited in chemistry papers
Good! But without the algorithms to do something with them, the functionals or basis sets would not do anything.
Hence, in our opinion, the algorithm design and method developments papers are equally worthy of getting cited

  1. Neese,F.
     An improvement of the resolution of the identity approximation for the formation of the Coulomb matrix
     J. Comp. Chem., 2003 24(14)1740-1747
     doi.org/10.1002/jcc.10318
  2. Neese,F.; Wennmohs,F.; Hansen,A.; Becker,U.
     Efficient, approximate and parallel Hartree-Fock and hybrid DFT calculations. A 'chain-of-spheres' algorithm for the Hartree-Fock exchange
     Chem. Phys., 2009 356(1-3)98-109
     doi.org/10.1016/j.chemphys.2008.10.036
  3. Stoychev,G.L.; Auer,A.A.; Izsak,R.; Neese,F.
     Self-Consistent Field Calculation of Nuclear Magnetic Resonance Chemical Shielding Constants Using Gauge-Including Atomic Orbitals and Approximate Two-Electron Integrals
     J. Chem. Theory Comput., 2018 14(2)619-637
     doi.org/10.1021/acs.jctc.7b01006
  4. Garcia-Rates,M.; Neese,F.
     Effect of the Solute Cavity on the Solvation Energy and its Derivatives within the Framework of the Gaussian Charge Scheme
     J. Comput. Chem., 2020 41 922-939
     doi.org/10.1002/jcc.26139
  5. Helmich-Paris,B.; de Souza,B.; Neese,F.; Izsák,R.
     An improved chain of spheres for exchange algorithm
     J. Chem. Phys., 2021 155 104109
     doi.org/doi: 10.1063/5.0058766.
  6. Neese,F.
     The SHARK Integral Generation and Digestion System
     J. Comp. Chem., 2022  1-16
     doi.org/10.1002/jcc.26942
  7. Grimme,S.; Bannwarth,C.; Dohm,S.; Hansen,A.; Pisarek,J.; Pracht,P.; Seibert,J.; Neese,F.
     Fully Automated Quantum-Chemistry-Based Computation of Spin-Spin-Coupled Nuclear Magnetic Resonance Spectra
     Angew. Chem., Int. Ed., 2017 56 14763-14769
     doi.org/10.1002/anie.201708266
  8. Caldeweyher,E.; Bannwarth,C.; Grimme,S.
     Extension of the D3 dispersion coefficient model
     J. Chem. Phys., 2017 147 034112-XXXX
     doi.org/10.1063/1.4993215
  9. Caldeweyher,E.; Ehlert,S.; Hansen,A.; Neugebauer,H.; Spicher,S.; Bannwarth,C.; Grimme,S.
     A generally applicable atomic-charge dependent London dispersion correction
     J. Chem. Phys., 2019 150 154122-XXXX
     doi.org/10.1063/1.5090222
 10. Caldeweyher,E.; Mewes,J.; Ehlert,S.; Grimme,S.
     Extension and evaluation of the D4 London-dispersion model for periodic systems
     Phys. Chem. Chem. Phys., 2020 22(16)8499-8512
     doi.org/10.1039/D0CP00502A

List of suggested additional citations. These are papers that are important in the 'surrounding' of 
of this run, or papers that preceded the highly important papers. If you like your results we are grateful for a citation.

  1. Izsak,R.; Neese,F.
     An overlap fitted chain of spheres exchange method
     J. Chem. Phys., 2011 135 144105
     doi.org/10.1063/1.3646921
  2. Izsak,R.; Hansen,A.; Neese,F.
     The resolution of identity and chain of spheres approximations for the LPNO-CCSD singles Fock term
     Molec. Phys., 2012 110 2413-2417
     doi.org/10.1080/00268976.2012.687466
  3. Neese,F.
     The ORCA program system
     WIRES Comput. Molec. Sci., 2012 2(1)73-78
     doi.org/10.1002/wcms.81
  4. Izsak,R.; Neese,F.; Klopper,W.
     Robust fitting techniques in the chain of spheres approximation to the Fock exchange: The role of the complementary space
     J. Chem. Phys., 2013 139 
     doi.org/10.1063/1.4819264
  5. Neese,F.
     Software update: the ORCA program system, version 4.0
     WIRES Comput. Molec. Sci., 2018 8(1)1-6
     doi.org/10.1002/wcms.1327
  6. Neese,F.; Wennmohs,F.; Becker,U.; Riplinger,C.
     The ORCA quantum chemistry program package
     J. Chem. Phys., 2020 152 Art. No. L224108
     doi.org/10.1063/5.0004608

Timings for individual modules:

Sum of individual times          ...      140.785 sec (=   2.346 min)
Startup calculation              ...        3.740 sec (=   0.062 min)   2.7 %
SCF iterations                   ...       19.402 sec (=   0.323 min)  13.8 %
Property integrals               ...        0.733 sec (=   0.012 min)   0.5 %
SCF Response                     ...      116.376 sec (=   1.940 min)  82.7 %
Property calculations            ...        0.534 sec (=   0.009 min)   0.4 %
                             ****ORCA TERMINATED NORMALLY****
TOTAL RUN TIME: 0 days 0 hours 2 minutes 21 seconds 55 msec
