
                                 *****************
                                 * O   R   C   A *
                                 *****************

                                            #,                                       
                                            ###                                      
                                            ####                                     
                                            #####                                    
                                            ######                                   
                                           ########,                                 
                                     ,,################,,,,,                         
                               ,,#################################,,                 
                          ,,##########################################,,             
                       ,#########################################, ''#####,          
                    ,#############################################,,   '####,        
                  ,##################################################,,,,####,       
                ,###########''''           ''''###############################       
              ,#####''   ,,,,##########,,,,          '''####'''          '####       
            ,##' ,,,,###########################,,,                        '##       
           ' ,,###''''                  '''############,,,                           
         ,,##''                                '''############,,,,        ,,,,,,###''
      ,#''                                            '''#######################'''  
     '                                                          ''''####''''         
             ,#######,   #######,   ,#######,      ##                                
            ,#'     '#,  ##    ##  ,#'     '#,    #''#        ,####,   ,####,        
            ##       ##  ##   ,#'  ##            #'  '#       #'       #'  '#        
            ##       ##  #######   ##           ,######,      #####,   #    #        
            '#,     ,#'  ##    ##  '#,     ,#' ,#      #,     #,   #   #,  ,#        
             '#######'   ##     ##  '#######'  #'      '#     '####' # '####'        



                #########################################################
                #                        -***-                          #
                #          Department of theory and spectroscopy        #
                #                                                       #
                #                      Frank Neese                      #
                #                                                       #
                #     Directorship, Architecture, Infrastructure        #
                #                    SHARK, DRIVERS                     #
                #        Core code/Algorithms in most modules           #
                #                                                       #
                #        Max Planck Institute fuer Kohlenforschung      #
                #                Kaiser Wilhelm Platz 1                 #
                #                 D-45470 Muelheim/Ruhr                 #
                #                      Germany                          #
                #                                                       #
                #                  All rights reserved                  #
                #                        -***-                          #
                #########################################################


                         Program Version 6.0.0  -   RELEASE  -


 With contributions from (in alphabetic order):
   Daniel Aravena         : Magnetic Suceptibility
   Michael Atanasov       : Ab Initio Ligand Field Theory (pilot matlab implementation)
   Alexander A. Auer      : GIAO ZORA, VPT2 properties, NMR spectrum
   Ute Becker             : All parallelization in ORCA, NUMFREQ, NUMCALC
   Giovanni Bistoni       : ED, misc. LED, open-shell LED, HFLD
   Martin Brehm           : Molecular dynamics
   Dmytro Bykov           : pre 5.0 version of the SCF Hessian
   Marcos Casanova-Páez   : Triplet and SCS-CIS(D). UHF-(DLPNO)-IP/EA/STEOM-CCSD. UHF-CVS-IP/STEOM-CCSD
   Vijay G. Chilkuri      : MRCI spin determinant printing, contributions to CSF-ICE
   Pauline Colinet        : FMM embedding
   Dipayan Datta          : RHF DLPNO-CCSD density
   Achintya Kumar Dutta   : EOM-CC, STEOM-CC
   Nicolas Foglia         : Exact transition moments, OPA infrastructure, MCD improvements
   Dmitry Ganyushin       : Spin-Orbit,Spin-Spin,Magnetic field MRCI
   Miquel Garcia          : C-PCM and meta-GGA Hessian, CCSD/C-PCM, Gaussian charge scheme
   Tiago L. C. Gouveia    : GS-ROHF, GS-ROCIS
   Yang Guo               : DLPNO-NEVPT2, F12-NEVPT2, CIM, IAO-localization
   Andreas Hansen         : Spin unrestricted coupled pair/coupled cluster methods
   Ingolf Harden          : AUTO-CI MPn and infrastructure 
   Benjamin Helmich-Paris : MC-RPA, TRAH-(SCF,CASSCF), AVAS, COSX integrals, SCF dyn. polar.
   Lee Huntington         : MR-EOM, pCC
   Robert Izsak           : Overlap fitted RIJCOSX, COSX-SCS-MP3, EOM
   Riya Kayal             : Wick's Theorem for AUTO-CI, AUTO-CI UHF-CCSDT
   Emily Kempfer          : AUTO-CI, RHF CISDT and CCSDT
   Christian Kollmar      : KDIIS, OOCD, Brueckner-CCSD(T), CCSD density, CASPT2, CASPT2-K, improved NEVPT2
   Axel Koslowski         : Symmetry handling
   Simone Kossmann        : Meta GGA functionals, TD-DFT gradient, OOMP2, (MP2 Hessian; deprecated post 5.0)
   Lucas Lang             : DCDCAS
   Marvin Lechner         : AUTO-CI (C++ implementation), FIC-MRCC
   Spencer Leger          : CASSCF response
   Dagmar Lenk            : GEPOL surface, SMD, ORCA-2-JSON
   Dimitrios Liakos       : Extrapolation schemes; Compound Job, initial MDCI parallelization
   Dimitrios Manganas     : Further ROCIS development; embedding schemes. LFT, Crystal Embedding
   Dimitrios Pantazis     : SARC Basis sets
   Anastasios Papadopoulos: AUTO-CI, single reference methods and gradients
   Taras Petrenko         : pre 6.0 DFT Hessian and TD-DFT gradient, (ASA, deprecated), ECA, 1-Electron XAS/XES, NRVS
   Peter Pinski           : DLPNO-MP2, DLPNO-MP2 Gradient
   Christoph Reimann      : Effective Core Potentials
   Marius Retegan         : Local ZFS, SOC
   Christoph Riplinger    : Optimizer, TS searches, QM/MM, DLPNO-CCSD(T), (RO)-DLPNO pert. Triples
   Michael Roemelt        : Original ROCIS implementation
   Masaaki Saitow         : Open-shell DLPNO-CCSD energy and density
   Barbara Sandhoefer     : DKH picture change effects
   Kantharuban Sivalingam : CASSCF convergence/infrastructure, NEVPT2 and variants, FIC-MRCI
   Bernardo de Souza      : ESD, SOC TD-DFT
   Georgi Stoychev        : AutoAux, RI-MP2 NMR, DLPNO-MP2 response, X2C
   Van Anh Tran           : RI-MP2 g-tensors
   Willem Van den Heuvel  : Paramagnetic NMR
   Zikuan Wang            : NOTCH, Electric field optimization 
   Frank Wennmohs         : Technical directorship and infrastructure
   Hang Xu                : AUTO-CI-Response properties 


 We gratefully acknowledge several colleagues who have allowed us to
 interface, adapt or use parts of their codes:
   Stefan Grimme, W. Hujo, H. Kruse, P. Pracht,  : VdW corrections, initial TS optimization,
                  C. Bannwarth, S. Ehlert,         DFT functionals, gCP, sTDA/sTD-DF
                  L. Wittmann, M. Mueller
   Ed Valeev, F. Pavosevic, A. Kumar             : LibInt (2-el integral package), F12 methods
   Garnet Chan, S. Sharma, J. Yang, R. Olivares  : DMRG
   Ulf Ekstrom                                   : XCFun DFT Library
   Mihaly Kallay                                 : mrcc  (arbitrary order and MRCC methods)
   Frank Weinhold                                : gennbo (NPA and NBO analysis)
   Simon Mueller                                 : openCOSMO-RS
   Christopher J. Cramer and Donald G. Truhlar   : smd solvation model
   Lars Goerigk                                  : TD-DFT with DH, B97 family of functionals
   V. Asgeirsson, H. Jonsson                     : NEB implementation
   FAccTs GmbH                                   : IRC, NEB, NEB-TS, DLPNO-Multilevel, CI-OPT
                                                   MM, QMMM, 2- and 3-layer-ONIOM, Crystal-QMMM,
                                                   LR-CPCM, SF, NACMEs, symmetry and pop. for TD-DFT,
                                                   nearIR, NL-DFT gradient (VV10), updates on ESD,
                                                   ML-optimized integration grids, MBIS, APM,
                                                   GOAT, DOCKER, SOLVATOR, interface openCOSMO-RS
   S Lehtola, MJT Oliveira, MAL Marques          : LibXC Library
   Liviu Ungur et al                             : ANISO software


 Your calculation uses the libint2 library for the computation of 2-el integrals
 For citations please refer to: http://libint.valeyev.net

 Your ORCA version has been built with support for libXC version: 6.2.2
 For citations please refer to: https://libxc.gitlab.io

 This ORCA versions uses:
   CBLAS   interface :  Fast vector & matrix operations
   LAPACKE interface :  Fast linear algebra routines
   SCALAPACK package :  Parallel linear algebra routines
   Shared memory     :  Shared parallel matrices
   BLAS/LAPACK       :  OpenBLAS 0.3.27  USE64BITINT DYNAMIC_ARCH NO_AFFINITY Zen SINGLE_THREADED
        Core in use  :  Zen
   Copyright (c) 2011-2014, The OpenBLAS Project


NOTE: MaxCore=8000 MB was set to SCF,MP2,MDCI,CIPSI,MRCI and CIS
      => If you want to overwrite this, your respective input block should be placed after the MaxCore statement
Your calculation utilizes the atom-pairwise dispersion correction
based on EEQ partial charges (D4)


================================================================================

----- Orbital basis set information -----
Your calculation utilizes the basis: def2-SVP
   F. Weigend and R. Ahlrichs, Phys. Chem. Chem. Phys. 7, 3297 (2005).

----- AuxJ basis set information -----
Your calculation utilizes the auxiliary basis: def2/J
   F. Weigend, Phys. Chem. Chem. Phys. 8, 1057 (2006).

================================================================================
                                        WARNINGS
                       Please study these warnings very carefully!
================================================================================

WARNING: Old DensityContainer found on disk!
         Will remove this file - 
         If you want to keep old densities, please start your calculation with a different basename. 


================================================================================
                                       INPUT FILE
================================================================================
NAME = inpS
|  1> ! wb97x-d4
|  2> ! def2-svp
|  3> ! def2/J RIJCOSX
|  4> ! DEFGRID2
|  5> ! scfconv7
|  6> ! smallprint printgap noloewdin
|  7> ! NOSOSCF
|  8> %MaxCore 8000
|  9> %output
| 10>        print[P_BondOrder_M] 1
| 11>        print[P_Mayer] 1
| 12>        print[P_basis] 2
| 13> end
| 14> %pal
| 15>     nprocs 4
| 16> end
| 17> ! CPCM(chloroform)
| 18> *xyz 0 1
| 19> C   -5.0239014700   0.2170792100  -0.5107102000
| 20> C   -6.4720986600  -0.1715194100  -0.6942168700
| 21> C   -7.3835764800   0.7479105300   0.1285559000
| 22> H   -6.6321841700  -1.2160566800  -0.4039493800
| 23> H   -6.7555824000  -0.0661908000  -1.7519863300
| 24> C   -4.7435942500   1.6431040600  -0.7884673000
| 25> C   -5.6770448300   2.6112811900  -0.0957540600
| 26> C   -7.1491040400   2.2083986000  -0.2611445200
| 27> H   -5.5117671800   3.6281193300  -0.4675546300
| 28> H   -5.4323013800   2.6184128800   0.9773554000
| 29> H   -7.4508125600   2.3384707400  -1.3094144200
| 30> H   -7.7877083600   2.8573744300   0.3492210200
| 31> O   -7.1829851200   0.5351118100   1.5358222000
| 32> H   -8.4322494900   0.4837137400  -0.0554837200
| 33> C   -4.1090696700  -0.6768720200  -0.0654275100
| 34> C   -3.7726780200   2.0499401500  -1.6136348300
| 35> H   -3.1229542900   1.3385523800  -2.1164691000
| 36> H   -3.6135484300   3.1073676300  -1.8115445100
| 37> C   -2.7267080600  -0.3973440300   0.2491941400
| 38> H   -4.4675742000  -1.6923250000   0.0990262300
| 39> C   -1.7815678600  -1.3021095900   0.5816489200
| 40> H   -2.4378518000   0.6509632400   0.2216778800
| 41> C   -1.9750074700  -2.7960003100   0.6379579500
| 42> C   -0.9577757200  -3.5291012500  -0.2583400800
| 43> H   -2.9901382400  -3.0950721900   0.3635712200
| 44> H   -1.8109449700  -3.1199929300   1.6779138300
| 45> C    0.4888888400  -3.0933997900   0.0099941300
| 46> H   -1.2123289700  -3.3464745700  -1.3100278000
| 47> H   -1.0514004000  -4.6102230300  -0.0982100900
| 48> C    0.6548250200  -1.5707851200  -0.0876073400
| 49> H    1.1513659200  -3.6118654400  -0.6910505300
| 50> H    0.7803521700  -3.4115036800   1.0223730100
| 51> C   -0.3680844100  -0.9230552400   0.9005014100
| 52> H   -0.1351558300  -1.3830888200   1.8783980400
| 53> C    0.0608449300   0.5396009500   0.9765517300
| 54> H   -6.2303297700   0.4578741600   1.6874833500
| 55> C    1.6048665700   0.4706479800   0.8839313700
| 56> H   -0.2899996000   1.0236717400   1.8939894100
| 57> H   -0.3471603400   1.1098867000   0.1346214400
| 58> C    1.9768472500  -0.9884022500   0.4835367000
| 59> H    2.0832023000   0.7430104800   1.8300818400
| 60> H    1.9847827100   1.1731926700   0.1328684700
| 61> H    2.1982715400  -1.5574419200   1.4016842800
| 62> C    3.2485314200  -1.0269473800  -0.3879271700
| 63> C    0.4177959900  -1.0806201700  -1.5231899500
| 64> H    0.6432771500  -0.0145180700  -1.6278413200
| 65> H   -0.6226532200  -1.2258072100  -1.8297310900
| 66> H    1.0559168300  -1.6255796400  -2.2276112100
| 67> H    3.0610570600  -0.4426532800  -1.3007929800
| 68> C    3.6709617400  -2.4484525000  -0.7891190800
| 69> C    4.3804543100  -0.3712985400   0.3595192100
| 70> C    5.0745416200   0.6806571900  -0.0739711300
| 71> H    4.6289867800  -0.8332136200   1.3177278900
| 72> H    4.7948326300   1.1175522400  -1.0372515200
| 73> C    6.2214439800   1.3690759900   0.6186613000
| 74> C    6.5786530300   0.7488254200   1.9684437600
| 75> C    5.9530584400   2.8984390400   0.6892959700
| 76> H    7.0988594800   1.2574896000  -0.0417476100
| 77> H    5.6748184200   3.2025443600  -0.3316738600
| 78> C    7.2066157700   3.6871052400   1.0750508900
| 79> C    4.7852020100   3.2488764000   1.6136533300
| 80> H    5.7341453600   0.7874228300   2.6651324000
| 81> H    7.4230723000   1.2688582900   2.4298866400
| 82> H    6.8620632300  -0.3020167600   1.8483953300
| 83> H    8.0545490300   3.4284679900   0.4302799200
| 84> H    7.4984229300   3.4936645100   2.1135508700
| 85> H    7.0256448100   4.7637374900   0.9817964300
| 86> H    3.8893351400   2.6709558200   1.3617488600
| 87> H    4.5388599800   4.3134830000   1.5343281000
| 88> H    5.0365078600   3.0458452000   2.6611412200
| 89> H    2.9521428100  -2.9102471800  -1.4707589900
| 90> H    3.7627812500  -3.0901231600   0.0959078100
| 91> H    4.6435914000  -2.4252573200  -1.2920625300
| 92> *
| 93> %eprnmr
| 94>  Nuclei = all C { shift }
| 95>  origin giao
| 96>  giao_2el giao_2el_same_as_scf
| 97>  giao_1el giao_1el_analytic
| 98> end
| 99> 
|100>                          ****END OF INPUT****
================================================================================

                       ****************************
                       * Single Point Calculation *
                       ****************************

---------------------------------
CARTESIAN COORDINATES (ANGSTROEM)
---------------------------------
  C     -5.023901    0.217079   -0.510710
  C     -6.472099   -0.171519   -0.694217
  C     -7.383576    0.747911    0.128556
  H     -6.632184   -1.216057   -0.403949
  H     -6.755582   -0.066191   -1.751986
  C     -4.743594    1.643104   -0.788467
  C     -5.677045    2.611281   -0.095754
  C     -7.149104    2.208399   -0.261145
  H     -5.511767    3.628119   -0.467555
  H     -5.432301    2.618413    0.977355
  H     -7.450813    2.338471   -1.309414
  H     -7.787708    2.857374    0.349221
  O     -7.182985    0.535112    1.535822
  H     -8.432249    0.483714   -0.055484
  C     -4.109070   -0.676872   -0.065428
  C     -3.772678    2.049940   -1.613635
  H     -3.122954    1.338552   -2.116469
  H     -3.613548    3.107368   -1.811545
  C     -2.726708   -0.397344    0.249194
  H     -4.467574   -1.692325    0.099026
  C     -1.781568   -1.302110    0.581649
  H     -2.437852    0.650963    0.221678
  C     -1.975007   -2.796000    0.637958
  C     -0.957776   -3.529101   -0.258340
  H     -2.990138   -3.095072    0.363571
  H     -1.810945   -3.119993    1.677914
  C      0.488889   -3.093400    0.009994
  H     -1.212329   -3.346475   -1.310028
  H     -1.051400   -4.610223   -0.098210
  C      0.654825   -1.570785   -0.087607
  H      1.151366   -3.611865   -0.691051
  H      0.780352   -3.411504    1.022373
  C     -0.368084   -0.923055    0.900501
  H     -0.135156   -1.383089    1.878398
  C      0.060845    0.539601    0.976552
  H     -6.230330    0.457874    1.687483
  C      1.604867    0.470648    0.883931
  H     -0.290000    1.023672    1.893989
  H     -0.347160    1.109887    0.134621
  C      1.976847   -0.988402    0.483537
  H      2.083202    0.743010    1.830082
  H      1.984783    1.173193    0.132868
  H      2.198272   -1.557442    1.401684
  C      3.248531   -1.026947   -0.387927
  C      0.417796   -1.080620   -1.523190
  H      0.643277   -0.014518   -1.627841
  H     -0.622653   -1.225807   -1.829731
  H      1.055917   -1.625580   -2.227611
  H      3.061057   -0.442653   -1.300793
  C      3.670962   -2.448452   -0.789119
  C      4.380454   -0.371299    0.359519
  C      5.074542    0.680657   -0.073971
  H      4.628987   -0.833214    1.317728
  H      4.794833    1.117552   -1.037252
  C      6.221444    1.369076    0.618661
  C      6.578653    0.748825    1.968444
  C      5.953058    2.898439    0.689296
  H      7.098859    1.257490   -0.041748
  H      5.674818    3.202544   -0.331674
  C      7.206616    3.687105    1.075051
  C      4.785202    3.248876    1.613653
  H      5.734145    0.787423    2.665132
  H      7.423072    1.268858    2.429887
  H      6.862063   -0.302017    1.848395
  H      8.054549    3.428468    0.430280
  H      7.498423    3.493665    2.113551
  H      7.025645    4.763737    0.981796
  H      3.889335    2.670956    1.361749
  H      4.538860    4.313483    1.534328
  H      5.036508    3.045845    2.661141
  H      2.952143   -2.910247   -1.470759
  H      3.762781   -3.090123    0.095908
  H      4.643591   -2.425257   -1.292063

----------------------------
CARTESIAN COORDINATES (A.U.)
----------------------------
  NO LB      ZA    FRAG     MASS         X           Y           Z
   0 C     6.0000    0    12.011   -9.493798    0.410220   -0.965102
   1 C     6.0000    0    12.011  -12.230494   -0.324125   -1.311880
   2 C     6.0000    0    12.011  -13.952937    1.413346    0.242935
   3 H     1.0000    0     1.008  -12.533012   -2.298014   -0.763354
   4 H     1.0000    0     1.008  -12.766201   -0.125082   -3.310774
   5 C     6.0000    0    12.011   -8.964094    3.105017   -1.489987
   6 C     6.0000    0    12.011  -10.728060    4.934606   -0.180949
   7 C     6.0000    0    12.011  -13.509849    4.173269   -0.493492
   8 H     1.0000    0     1.008  -10.415730    6.856152   -0.883550
   9 H     1.0000    0     1.008  -10.265562    4.948083    1.846934
  10 H     1.0000    0     1.008  -14.079995    4.419069   -2.474435
  11 H     1.0000    0     1.008  -14.716636    5.399655    0.659932
  12 O     8.0000    0    15.999  -13.573875    1.011215    2.902283
  13 H     1.0000    0     1.008  -15.934642    0.914086   -0.104849
  14 C     6.0000    0    12.011   -7.765016   -1.279103   -0.123640
  15 C     6.0000    0    12.011   -7.129328    3.873825   -3.049328
  16 H     1.0000    0     1.008   -5.901528    2.529497   -3.999547
  17 H     1.0000    0     1.008   -6.828617    5.872074   -3.423323
  18 C     6.0000    0    12.011   -5.152731   -0.750871    0.470909
  19 H     1.0000    0     1.008   -8.442492   -3.198031    0.187132
  20 C     6.0000    0    12.011   -3.366675   -2.460631    1.099157
  21 H     1.0000    0     1.008   -4.606872    1.230142    0.418910
  22 C     6.0000    0    12.011   -3.732223   -5.283675    1.205566
  23 C     6.0000    0    12.011   -1.809934   -6.669035   -0.488192
  24 H     1.0000    0     1.008   -5.650542   -5.848839    0.687050
  25 H     1.0000    0     1.008   -3.422190   -5.895932    3.170798
  26 C     6.0000    0    12.011    0.923866   -5.845678    0.018886
  27 H     1.0000    0     1.008   -2.290970   -6.323920   -2.475594
  28 H     1.0000    0     1.008   -1.986859   -8.712059   -0.185590
  29 C     6.0000    0    12.011    1.237440   -2.968354   -0.165554
  30 H     1.0000    0     1.008    2.175766   -6.825437   -1.305896
  31 H     1.0000    0     1.008    1.474652   -6.446808    1.932005
  32 C     6.0000    0    12.011   -0.695579   -1.744322    1.701701
  33 H     1.0000    0     1.008   -0.255408   -2.613659    3.549658
  34 C     6.0000    0    12.011    0.114980    1.019698    1.845415
  35 H     1.0000    0     1.008  -11.773617    0.865257    3.188881
  36 C     6.0000    0    12.011    3.032758    0.889396    1.670388
  37 H     1.0000    0     1.008   -0.548020    1.934459    3.579121
  38 H     1.0000    0     1.008   -0.656038    2.097382    0.254398
  39 C     6.0000    0    12.011    3.735700   -1.867810    0.913752
  40 H     1.0000    0     1.008    3.936682    1.404086    3.458353
  41 H     1.0000    0     1.008    3.750696    2.217013    0.251085
  42 H     1.0000    0     1.008    4.154131   -2.943139    2.648799
  43 C     6.0000    0    12.011    6.138835   -1.940649   -0.733076
  44 C     6.0000    0    12.011    0.789520   -2.042076   -2.878412
  45 H     1.0000    0     1.008    1.215618   -0.027435   -3.076174
  46 H     1.0000    0     1.008   -1.176644   -2.316440   -3.457691
  47 H     1.0000    0     1.008    1.995394   -3.071900   -4.209575
  48 H     1.0000    0     1.008    5.784560   -0.836493   -2.458142
  49 C     6.0000    0    12.011    6.937112   -4.626905   -1.491219
  50 C     6.0000    0    12.011    8.277859   -0.701653    0.679393
  51 C     6.0000    0    12.011    9.589494    1.286256   -0.139785
  52 H     1.0000    0     1.008    8.747517   -1.574546    2.490145
  53 H     1.0000    0     1.008    9.060921    2.111868   -1.960121
  54 C     6.0000    0    12.011   11.756825    2.587179    1.169100
  55 C     6.0000    0    12.011   12.431853    1.415075    3.719820
  56 C     6.0000    0    12.011   11.249650    5.477256    1.302581
  57 H     1.0000    0     1.008   13.414900    2.376311   -0.078892
  58 H     1.0000    0     1.008   10.723853    6.051932   -0.626773
  59 C     6.0000    0    12.011   13.618530    6.967619    2.031552
  60 C     6.0000    0    12.011    9.042721    6.139487    3.049363
  61 H     1.0000    0     1.008   10.835964    1.488014    5.036370
  62 H     1.0000    0     1.008   14.027574    2.397795    4.591820
  63 H     1.0000    0     1.008   12.967420   -0.570729    3.492961
  64 H     1.0000    0     1.008   15.220892    6.478866    0.813111
  65 H     1.0000    0     1.008   14.169966    6.602069    3.994032
  66 H     1.0000    0     1.008   13.276545    9.002159    1.855326
  67 H     1.0000    0     1.008    7.349778    5.047375    2.573332
  68 H     1.0000    0     1.008    8.577202    8.151302    2.899460
  69 H     1.0000    0     1.008    9.517621    5.755813    5.028828
  70 H     1.0000    0     1.008    5.578741   -5.499570   -2.779332
  71 H     1.0000    0     1.008    7.110626   -5.839486    0.181239
  72 H     1.0000    0     1.008    8.775116   -4.583072   -2.441644

--------------------------------
INTERNAL COORDINATES (ANGSTROEM)
--------------------------------
 C      0   0   0     0.000000000000     0.00000000     0.00000000
 C      1   0   0     1.510615333738     0.00000000     0.00000000
 C      2   1   0     1.533981180450   110.50544173     0.00000000
 H      2   1   3     1.095874397311   110.67473405   237.86676682
 H      2   1   3     1.100151524763   109.82810899   118.76664158
 C      1   2   3     1.479617523890   114.00029957   306.32731335
 C      6   1   2     1.512794954126   114.45370039    49.53829506
 C      3   2   1     1.529663082211   110.15400048    56.73450367
 H      7   6   1     1.095222428733   110.22002662   188.84276625
 H      7   6   1     1.100688025946   108.26275818    72.19181438
 H      8   3   2     1.098552036041   108.30359927    64.34618115
 H      8   3   2     1.096143785215   109.51893957   181.34025213
 O      3   2   1     1.437330382360   110.70048949   292.72465016
 H      3   2   1     1.096989337906   109.49247983   177.20095971
 C      1   2   3     1.354379082061   121.17792876   123.24157762
 C      6   1   2     1.337570701821   123.12498083   231.43793990
 H     16   6   1     1.086763906153   121.35289721   359.07035122
 H     16   6   1     1.087494065874   120.94649441   178.45809630
 C     15   1   2     1.445007370446   126.16272900   185.24065332
 H     15   1   2     1.089364624550   116.27009971     3.08878747
 C     19  15   1     1.349969220747   126.42278479   186.15829908
 H     19  15   1     1.087723869298   115.78360567     6.87736093
 C     21  19  15     1.507414698376   125.70098793     2.50503981
 C     23  21  19     1.541281148921   111.40513009   124.17255099
 H     23  21  19     1.093262341439   112.38845151     0.62221043
 H     23  21  19     1.101542533935   107.91712823   242.70148027
 C     24  23  21     1.534495799819   112.67296140    51.35206561
 H     24  23  21     1.097359066911   108.96976851   289.20322370
 H     24  23  21     1.096919093458   109.12133154   173.27981698
 C     27  24  23     1.534736555920   111.87026645   306.31568025
 H     27  24  23     1.095055307767   108.90268349   182.84025000
 H     27  24  23     1.100478057136   109.17690156    66.37166566
 C     21  19  15     1.497759851931   122.92457987   180.31364127
 H     33  21  19     1.105517271269   106.36995286   127.57027876
 C     33  21  19     1.526147817228   121.22496751     5.00546276
 H     13   3   2     0.967739104759   107.61613957    42.65671653
 C     35  33  21     1.548333254809   103.56858180   196.87500352
 H     35  33  21     1.095038040730   112.04712728    74.88166794
 H     35  33  21     1.095691904789   110.84736100   315.27222686
 C     30  27  24     1.553421416844   116.14057173   166.16959824
 H     37  35  33     1.094617336736   111.89985172   249.43310456
 H     37  35  33     1.096357968291   110.97760312   130.82671019
 H     40  30  27     1.102646743475   106.47350861   320.91016804
 C     40  30  27     1.542114013940   118.98983355    81.70942338
 C     30  27  24     1.535363758008   111.06942514   294.00628642
 H     45  30  27     1.094699662182   111.62295926   186.40777344
 H     45  30  27     1.094340580298   111.48962294    66.35049912
 H     45  30  27     1.095622353699   110.63716063   306.24531396
 H     44  40  30     1.099941006609   108.37098768    60.89487090
 C     44  40  30     1.536254904009   113.41947817   300.01730560
 C     44  40  30     1.506585849288   109.16707471   178.26343352
 C     51  44  40     1.332772271116   124.98785752   238.41893645
 H     51  44  40     1.092381711767   114.96712276    59.38377720
 H     52  51  44     1.094085697539   117.93133541     1.14653780
 C     52  51  44     1.506335006117   127.42221737   180.67777380
 C     55  52  51     1.527816011276   113.49762880   359.74044527
 C     55  52  51     1.554339536071   109.82205828   231.42641482
 H     55  52  51     1.103833959652   106.49376031   117.89237140
 H     57  55  52     1.101034489992   105.85817705   310.29241235
 C     57  55  52     1.530427134144   112.15211582   193.51264964
 C     57  55  52     1.530075656091   112.61879859    67.72956093
 H     56  55  52     1.095471599747   111.55029945   299.87578484
 H     56  55  52     1.093804196797   111.11209100   179.22035752
 H     56  55  52     1.094989613776   110.68681063    59.70575198
 H     60  57  55     1.096181392041   111.33047624    52.13067719
 H     60  57  55     1.095925610208   111.46824042   291.40639644
 H     60  57  55     1.095711588153   110.46380046   172.15708888
 H     61  57  55     1.095456757502   111.37384761   307.93846994
 H     61  57  55     1.095611290843   110.51345365   187.65500705
 H     61  57  55     1.096178442643   111.09321458    68.41633422
 H     50  44  40     1.092972070781   111.89938587    67.37088116
 H     50  44  40     1.097016250720   110.70544781   306.68507209
 H     50  44  40     1.095216227868   110.15276419   187.34023340

---------------------------
INTERNAL COORDINATES (A.U.)
---------------------------
 C      0   0   0     0.000000000000     0.00000000     0.00000000
 C      1   0   0     2.854649274467     0.00000000     0.00000000
 C      2   1   0     2.898804325639   110.50544173     0.00000000
 H      2   1   3     2.070902488094   110.67473405   237.86676682
 H      2   1   3     2.078985087617   109.82810899   118.76664158
 C      1   2   3     2.796071903103   114.00029957   306.32731335
 C      6   1   2     2.858768160076   114.45370039    49.53829506
 C      3   2   1     2.890644302549   110.15400048    56.73450367
 H      7   6   1     2.069670446034   110.22002662   188.84276625
 H      7   6   1     2.079998927925   108.26275818    72.19181438
 H      8   3   2     2.075962491980   108.30359927    64.34618115
 H      8   3   2     2.071411557457   109.51893957   181.34025213
 O      3   2   1     2.716160786625   110.70048949   292.72465016
 H      3   2   1     2.073009420473   109.49247983   177.20095971
 C      1   2   3     2.559405546606   121.17792876   123.24157762
 C      6   1   2     2.527642311199   123.12498083   231.43793990
 H     16   6   1     2.053686154860   121.35289721   359.07035122
 H     16   6   1     2.055065956766   120.94649441   178.45809630
 C     15   1   2     2.730668191641   126.16272900   185.24065332
 H     15   1   2     2.058600800382   116.27009971     3.08878747
 C     19  15   1     2.551072116434   126.42278479   186.15829908
 H     19  15   1     2.055500222302   115.78360567     6.87736093
 C     21  19  15     2.848600950177   125.70098793     2.50503981
 C     23  21  19     2.912599266836   111.40513009   124.17255099
 H     23  21  19     2.065966417848   112.38845151     0.62221043
 H     23  21  19     2.081613714002   107.91712823   242.70148027
 C     24  23  21     2.899776815311   112.67296140    51.35206561
 H     24  23  21     2.073708107038   108.96976851   289.20322370
 H     24  23  21     2.072876677705   109.12133154   173.27981698
 C     27  24  23     2.900231778407   111.87026645   306.31568025
 H     27  24  23     2.069354633177   108.90268349   182.84025000
 H     27  24  23     2.079602144377   109.17690156    66.37166566
 C     21  19  15     2.830355934532   122.92457987   180.31364127
 H     33  21  19     2.089124879018   106.36995286   127.57027876
 C     33  21  19     2.884001414443   121.22496751     5.00546276
 H     13   3   2     1.828761877081   107.61613957    42.65671653
 C     35  33  21     2.925925815631   103.56858180   196.87500352
 H     35  33  21     2.069322003206   112.04712728    74.88166794
 H     35  33  21     2.070557627206   110.84736100   315.27222686
 C     30  27  24     2.935541048404   116.14057173   166.16959824
 H     37  35  33     2.068526987873   111.89985172   249.43310456
 H     37  35  33     2.071816304813   110.97760312   130.82671019
 H     40  30  27     2.083700367627   106.47350861   320.91016804
 C     40  30  27     2.914173153629   118.98983355    81.70942338
 C     30  27  24     2.901417018584   111.06942514   294.00628642
 H     45  30  27     2.068682560421   111.62295926   186.40777344
 H     45  30  27     2.068003993999   111.48962294    66.35049912
 H     45  30  27     2.070426194693   110.63716063   306.24531396
 H     44  40  30     2.078587265960   108.37098768    60.89487090
 C     44  40  30     2.903101040470   113.41947817   300.01730560
 C     44  40  30     2.847034652395   109.16707471   178.26343352
 C     51  44  40     2.518574591294   124.98785752   238.41893645
 H     51  44  40     2.064302268944   114.96712276    59.38377720
 H     52  51  44     2.067522335389   117.93133541     1.14653780
 C     52  51  44     2.846560627500   127.42221737   180.67777380
 C     55  52  51     2.887153844331   113.49762880   359.74044527
 C     55  52  51     2.937276042300   109.82205828   231.42641482
 H     55  52  51     2.085943881064   106.49376031   117.89237140
 H     57  55  52     2.080653650087   105.85817705   310.29241235
 C     57  55  52     2.892088151454   112.15211582   193.51264964
 C     57  55  52     2.891423954192   112.61879859    67.72956093
 H     56  55  52     2.070141311011   111.55029945   299.87578484
 H     56  55  52     2.066990376080   111.11209100   179.22035752
 H     56  55  52     2.069230489524   110.68681063    59.70575198
 H     60  57  55     2.071482624058   111.33047624    52.13067719
 H     60  57  55     2.070999266444   111.46824042   291.40639644
 H     60  57  55     2.070594823374   110.46380046   172.15708888
 H     61  57  55     2.070113263232   111.37384761   307.93846994
 H     61  57  55     2.070405288925   110.51345365   187.65500705
 H     61  57  55     2.071477050503   111.09321458    68.41633422
 H     50  44  40     2.065417885801   111.89938587    67.37088116
 H     50  44  40     2.073060278323   110.70544781   306.68507209
 H     50  44  40     2.069658728096   110.15276419   187.34023340

---------------------
BASIS SET INFORMATION
---------------------
There are 3 groups of distinct atoms

 Group   1 Type C   : 7s4p1d contracted to 3s2p1d pattern {511/31/1}
 Group   2 Type H   : 4s1p contracted to 2s1p pattern {31/1}
 Group   3 Type O   : 7s4p1d contracted to 3s2p1d pattern {511/31/1}

Atom   0C    basis set group =>   1
Atom   1C    basis set group =>   1
Atom   2C    basis set group =>   1
Atom   3H    basis set group =>   2
Atom   4H    basis set group =>   2
Atom   5C    basis set group =>   1
Atom   6C    basis set group =>   1
Atom   7C    basis set group =>   1
Atom   8H    basis set group =>   2
Atom   9H    basis set group =>   2
Atom  10H    basis set group =>   2
Atom  11H    basis set group =>   2
Atom  12O    basis set group =>   3
Atom  13H    basis set group =>   2
Atom  14C    basis set group =>   1
Atom  15C    basis set group =>   1
Atom  16H    basis set group =>   2
Atom  17H    basis set group =>   2
Atom  18C    basis set group =>   1
Atom  19H    basis set group =>   2
Atom  20C    basis set group =>   1
Atom  21H    basis set group =>   2
Atom  22C    basis set group =>   1
Atom  23C    basis set group =>   1
Atom  24H    basis set group =>   2
Atom  25H    basis set group =>   2
Atom  26C    basis set group =>   1
Atom  27H    basis set group =>   2
Atom  28H    basis set group =>   2
Atom  29C    basis set group =>   1
Atom  30H    basis set group =>   2
Atom  31H    basis set group =>   2
Atom  32C    basis set group =>   1
Atom  33H    basis set group =>   2
Atom  34C    basis set group =>   1
Atom  35H    basis set group =>   2
Atom  36C    basis set group =>   1
Atom  37H    basis set group =>   2
Atom  38H    basis set group =>   2
Atom  39C    basis set group =>   1
Atom  40H    basis set group =>   2
Atom  41H    basis set group =>   2
Atom  42H    basis set group =>   2
Atom  43C    basis set group =>   1
Atom  44C    basis set group =>   1
Atom  45H    basis set group =>   2
Atom  46H    basis set group =>   2
Atom  47H    basis set group =>   2
Atom  48H    basis set group =>   2
Atom  49C    basis set group =>   1
Atom  50C    basis set group =>   1
Atom  51C    basis set group =>   1
Atom  52H    basis set group =>   2
Atom  53H    basis set group =>   2
Atom  54C    basis set group =>   1
Atom  55C    basis set group =>   1
Atom  56C    basis set group =>   1
Atom  57H    basis set group =>   2
Atom  58H    basis set group =>   2
Atom  59C    basis set group =>   1
Atom  60C    basis set group =>   1
Atom  61H    basis set group =>   2
Atom  62H    basis set group =>   2
Atom  63H    basis set group =>   2
Atom  64H    basis set group =>   2
Atom  65H    basis set group =>   2
Atom  66H    basis set group =>   2
Atom  67H    basis set group =>   2
Atom  68H    basis set group =>   2
Atom  69H    basis set group =>   2
Atom  70H    basis set group =>   2
Atom  71H    basis set group =>   2
Atom  72H    basis set group =>   2

-------------------------
BASIS SET IN INPUT FORMAT
-------------------------

 # Basis set for element : H 
 NewGTO H 
 S 3 
   1      13.0107010000      0.0334854848
   2       1.9622572000      0.2347218709
   3       0.4445379600      0.8137702853
 S 1 
   1       0.1219496200      1.0000000000
 P 1 
   1       0.8000000000      1.0000000000
  end;

 # Basis set for element : C 
 NewGTO C 
 S 5 
   1    1238.4016938000      0.0055173650
   2     186.2900499200      0.0410888285
   3      42.2511763460      0.1822538213
   4      11.6765579320      0.4682845944
   5       3.5930506482      0.4457581734
 S 1 
   1       0.4024514736      1.0000000000
 S 1 
   1       0.1309018267      1.0000000000
 P 3 
   1       9.4680970621      0.0568883320
   2       2.0103545142      0.3129405934
   3       0.5477100471      0.7606501651
 P 1 
   1       0.1526861379      1.0000000000
 D 1 
   1       0.8000000000      1.0000000000
  end;

 # Basis set for element : O 
 NewGTO O 
 S 5 
   1    2266.1767785000     -0.0053893504
   2     340.8701019100     -0.0402347214
   3      77.3631351670     -0.1800818421
   4      21.4796449400     -0.4682885766
   5       6.6589433124     -0.4469261716
 S 1 
   1       0.8097597567      1.0000000000
 S 1 
   1       0.2553077223      1.0000000000
 P 3 
   1      17.7215043170      0.0626302488
   2       3.8635505440      0.3333113849
   3       1.0480920883      0.7414863830
 P 1 
   1       0.2764154441      1.0000000000
 D 1 
   1       1.2000000000      1.0000000000
  end;

---------------------------------
AUXILIARY/J BASIS SET INFORMATION
---------------------------------
There are 3 groups of distinct atoms

 Group   1 Type C   : 12s5p4d2f1g contracted to 6s4p3d1f1g pattern {711111/2111/211/2/1}
 Group   2 Type H   : 5s2p1d contracted to 3s1p1d pattern {311/2/1}
 Group   3 Type O   : 12s5p4d2f1g contracted to 6s4p3d1f1g pattern {711111/2111/211/2/1}

Atom   0C    basis set group =>   1
Atom   1C    basis set group =>   1
Atom   2C    basis set group =>   1
Atom   3H    basis set group =>   2
Atom   4H    basis set group =>   2
Atom   5C    basis set group =>   1
Atom   6C    basis set group =>   1
Atom   7C    basis set group =>   1
Atom   8H    basis set group =>   2
Atom   9H    basis set group =>   2
Atom  10H    basis set group =>   2
Atom  11H    basis set group =>   2
Atom  12O    basis set group =>   3
Atom  13H    basis set group =>   2
Atom  14C    basis set group =>   1
Atom  15C    basis set group =>   1
Atom  16H    basis set group =>   2
Atom  17H    basis set group =>   2
Atom  18C    basis set group =>   1
Atom  19H    basis set group =>   2
Atom  20C    basis set group =>   1
Atom  21H    basis set group =>   2
Atom  22C    basis set group =>   1
Atom  23C    basis set group =>   1
Atom  24H    basis set group =>   2
Atom  25H    basis set group =>   2
Atom  26C    basis set group =>   1
Atom  27H    basis set group =>   2
Atom  28H    basis set group =>   2
Atom  29C    basis set group =>   1
Atom  30H    basis set group =>   2
Atom  31H    basis set group =>   2
Atom  32C    basis set group =>   1
Atom  33H    basis set group =>   2
Atom  34C    basis set group =>   1
Atom  35H    basis set group =>   2
Atom  36C    basis set group =>   1
Atom  37H    basis set group =>   2
Atom  38H    basis set group =>   2
Atom  39C    basis set group =>   1
Atom  40H    basis set group =>   2
Atom  41H    basis set group =>   2
Atom  42H    basis set group =>   2
Atom  43C    basis set group =>   1
Atom  44C    basis set group =>   1
Atom  45H    basis set group =>   2
Atom  46H    basis set group =>   2
Atom  47H    basis set group =>   2
Atom  48H    basis set group =>   2
Atom  49C    basis set group =>   1
Atom  50C    basis set group =>   1
Atom  51C    basis set group =>   1
Atom  52H    basis set group =>   2
Atom  53H    basis set group =>   2
Atom  54C    basis set group =>   1
Atom  55C    basis set group =>   1
Atom  56C    basis set group =>   1
Atom  57H    basis set group =>   2
Atom  58H    basis set group =>   2
Atom  59C    basis set group =>   1
Atom  60C    basis set group =>   1
Atom  61H    basis set group =>   2
Atom  62H    basis set group =>   2
Atom  63H    basis set group =>   2
Atom  64H    basis set group =>   2
Atom  65H    basis set group =>   2
Atom  66H    basis set group =>   2
Atom  67H    basis set group =>   2
Atom  68H    basis set group =>   2
Atom  69H    basis set group =>   2
Atom  70H    basis set group =>   2
Atom  71H    basis set group =>   2
Atom  72H    basis set group =>   2

-------------------------------------
AUXILIARY/J BASIS SET IN INPUT FORMAT
-------------------------------------

 # Auxiliary/J basis set for element : H 
 NewAuxJGTO H 
 S 3 
   1      15.6752927000      0.1007184237
   2       3.6063578000      0.3404257499
   3       1.2080016000      0.6491996172
 S 1 
   1       0.4726794000      1.0000000000
 S 1 
   1       0.2018100000      1.0000000000
 P 2 
   1       2.0281365000      0.5596620919
   2       0.5358730000      0.5596620919
 D 1 
   1       2.2165124000      1.0000000000
  end;

 # Auxiliary/J basis set for element : C 
 NewAuxJGTO C 
 S 7 
   1    1861.0916331000      0.0134602335
   2     642.9939764000      0.0299160374
   3     235.1105725000      0.1008649584
   4      90.7028894000      0.2370970548
   5      36.7794552000      0.3924037254
   6      15.6046273000      0.3195862154
   7       6.8907294000      0.0530104441
 S 1 
   1       3.1478850000     -1.0000000000
 S 1 
   1       1.4777287000      1.0000000000
 S 1 
   1       0.7076466000      1.0000000000
 S 1 
   1       0.3430122000      1.0000000000
 S 1 
   1       0.1669453000      1.0000000000
 P 2 
   1      13.5472892000     -0.6769313712
   2       5.4669419000     -0.3779500978
 P 1 
   1       2.1751721000      1.0000000000
 P 1 
   1       0.8582194000      1.0000000000
 P 1 
   1       0.3376720000      1.0000000000
 D 2 
   1       5.9287253000     -0.3533329857
   2       1.9809209000     -0.7456525731
 D 1 
   1       0.8055417000     -1.0000000000
 D 1 
   1       0.3531244000     -1.0000000000
 F 2 
   1       1.6755626000      0.6311076882
   2       0.5997536000      0.4968166032
 G 1 
   1       1.0024600000     -1.0000000000
  end;

 # Auxiliary/J basis set for element : O 
 NewAuxJGTO O 
 S 7 
   1    2876.8216605000      0.0168151159
   2    1004.7443032000      0.0340137548
   3     369.7579954000      0.1194951309
   4     142.9442404000      0.2664627624
   5      57.8366425000      0.4202764046
   6      24.3864983000      0.2765077335
   7      10.6622662000      0.0057008815
 S 1 
   1       4.8070437000     -1.0000000000
 S 1 
   1       2.2210770000      1.0000000000
 S 1 
   1       1.0447795000      1.0000000000
 S 1 
   1       0.4968425000      1.0000000000
 S 1 
   1       0.2371384000      1.0000000000
 P 2 
   1      64.2613382000     -0.2731534179
   2      16.3006076000     -0.8168011598
 P 1 
   1       4.3550542000      1.0000000000
 P 1 
   1       1.2019554000      1.0000000000
 P 1 
   1       0.3354196000      1.0000000000
 D 2 
   1       9.2146611000     -0.4661230638
   2       2.8435251000     -0.6600908911
 D 1 
   1       0.9955759000     -1.0000000000
 D 1 
   1       0.3649441000     -1.0000000000
 F 2 
   1       2.6420115000      0.5931563945
   2       0.7345613000      0.5931563945
 G 1 
   1       1.3931000000     -1.0000000000
  end;


Checking for AutoStart:
The File: inpS.gbw exists
Trying to determine its content:
     ... Fine, the file contains calculation information
     ... Fine, the calculation information was read
     ... Fine, the file contains a basis set
     ... Fine, the basis set was read
     ... Fine, the file contains a geometry
     ... Fine, the geometry was read
     ... Fine, the file contains a set of orbitals
     ... Fine, the orbitals can be read
     => possible old guess file was deleted
     => GBW file was renamed to GES file
     => GES file is set as startup file
     => Guess is set to MORead
     ... now leaving AutoStart



           ************************************************************
           *        Program running with 4 parallel MPI-processes     *
           *              working on a common directory               *
           ************************************************************
------------------------------------------------------------------------------
                             ORCA STARTUP CALCULATIONS
                           -- RI-GTO INTEGRALS CHOSEN --
------------------------------------------------------------------------------
------------------------------------------------------------------------------
                   ___                                                        
                  /   \      - P O W E R E D   B Y -                         
                 /     \                                                     
                 |  |  |   _    _      __       _____    __    __             
                 |  |  |  | |  | |    /  \     |  _  \  |  |  /  |          
                  \  \/   | |  | |   /    \    | | | |  |  | /  /          
                 / \  \   | |__| |  /  /\  \   | |_| |  |  |/  /          
                |  |  |   |  __  | /  /__\  \  |    /   |      \           
                |  |  |   | |  | | |   __   |  |    \   |  |\   \          
                \     /   | |  | | |  |  |  |  | |\  \  |  | \   \       
                 \___/    |_|  |_| |__|  |__|  |_| \__\ |__|  \__/        
                                                                              
                      - O R C A' S   B I G   F R I E N D -                    
                                      &                                       
                       - I N T E G R A L  F E E D E R -                       
                                                                              
 v1 FN, 2020, v2 2021, v3 2022-2024                                           
------------------------------------------------------------------------------


----------------------
SHARK INTEGRAL PACKAGE
----------------------

Number of atoms                             ...     73
Number of basis functions                   ...    626
Number of shells                            ...    306
Maximum angular momentum                    ...      2
Integral batch strategy                     ... SHARK/LIBINT Hybrid
RI-J (if used) integral strategy            ... SPLIT-RIJ (Revised 2003 algorithm where possible)
Printlevel                                  ...      1
Contraction scheme used                     ... SEGMENTED contraction
Prescreening option                         ... SCHWARTZ
   Thresh                                   ... 3.000e-11
   Tcut                                     ... 1.000e-12
   Tpresel                                  ... 1.000e-12 
Coulomb Range Separation                    ... NOT USED
Exchange Range Separation                   ... Long Range
   Mu parameter                             ... 3.000e-01
   Scaling (regular/separated)              ... 1.670e-01 8.330e-01
Multipole approximations                    ... NOT USED
Finite Nucleus Model                        ... NOT USED
CABS basis                                  ... NOT available
Auxiliary Coulomb fitting basis             ... AVAILABLE
   # of basis functions in Aux-J            ...   1905
   # of shells in Aux-J                     ...    655
   Maximum angular momentum in Aux-J        ...      4
Auxiliary J/K fitting basis                 ... NOT available
Auxiliary Correlation fitting basis         ... NOT available
Auxiliary 'external' fitting basis          ... NOT available

Checking pre-screening integrals            ... done (  0.0 sec) Dimension = 306
Check shell pair data                       ... done (  0.0 sec)
Shell pair information
Shell pair cut-off parameter TPreSel        ...   1.0e-12
Total number of shell pairs                 ...     46971
Shell pairs after pre-screening             ...     27738
Total number of primitive shell pairs       ...    162105
Primitive shell pairs kept                  ...     61202
          la=0 lb=0:   9716 shell pairs
          la=1 lb=0:  10644 shell pairs
          la=1 lb=1:   2948 shell pairs
          la=2 lb=0:   2760 shell pairs
          la=2 lb=1:   1476 shell pairs
          la=2 lb=2:    194 shell pairs

Calculating one electron integrals          ... done (  0.1 sec)
Calculating RI/J V-Matrix + Cholesky decomp.... done (  0.2 sec)
Calculating Nuclear repulsion               ... done (  0.0 sec) ENN=   2796.458319548219 Eh

Diagonalization of the overlap matrix:
Smallest eigenvalue                        ... 4.306e-04
Time for diagonalization                   ...    0.042 sec
Threshold for overlap eigenvalues          ... 1.000e-07
Number of eigenvalues below threshold      ... 0
Time for construction of square roots      ...    0.024 sec
Total time needed                          ...    0.069 sec

-------------------
DFT GRID GENERATION
-------------------

General Integration Accuracy     IntAcc      ... 4.388
Radial Grid Type                 RadialGrid  ... OptM3 with GC (2021)
Angular Grid (max. ang.)         AngularGrid ... 4 (Lebedev-302)
Angular grid pruning method      GridPruning ... 4 (adaptive)
Weight generation scheme         WeightScheme... mBecke (2022)
Basis function cutoff            BFCut       ... 1.0000e-11
Integration weight cutoff        WCut        ... 1.0000e-14
Partially contracted basis set               ... off
Rotationally invariant grid construction     ... off
Angular grids for H and He will be reduced by one unit

Total number of grid points                  ...   309814
Total number of batches                      ...     4875
Average number of points per batch           ...       63
Average number of grid points per atom       ...     4244

--------------------
COSX GRID GENERATION
--------------------

GRIDX 1
-------
General Integration Accuracy     IntAcc      ... 3.816
Radial Grid Type                 RadialGrid  ... OptM3 with GC (2021)
Angular Grid (max. ang.)         AngularGrid ... 1 (Lebedev-50)
Angular grid pruning method      GridPruning ... 4 (adaptive)
Weight generation scheme         WeightScheme... mBecke (2022)
Basis function cutoff            BFCut       ... 1.0000e-11
Integration weight cutoff        WCut        ... 1.0000e-14
Partially contracted basis set               ... on
Rotationally invariant grid construction     ... off
Angular grids for H and He will be reduced by one unit

Total number of grid points                  ...    39402
Total number of batches                      ...      349
Average number of points per batch           ...      112
Average number of grid points per atom       ...      540
UseSFitting                                  ... on

GRIDX 2
-------
General Integration Accuracy     IntAcc      ... 4.020
Radial Grid Type                 RadialGrid  ... OptM3 with GC (2021)
Angular Grid (max. ang.)         AngularGrid ... 2 (Lebedev-110)
Angular grid pruning method      GridPruning ... 4 (adaptive)
Weight generation scheme         WeightScheme... mBecke (2022)
Basis function cutoff            BFCut       ... 1.0000e-11
Integration weight cutoff        WCut        ... 1.0000e-14
Partially contracted basis set               ... on
Rotationally invariant grid construction     ... off
Angular grids for H and He will be reduced by one unit

Total number of grid points                  ...    81365
Total number of batches                      ...      679
Average number of points per batch           ...      119
Average number of grid points per atom       ...     1115
UseSFitting                                  ... on

GRIDX 3
-------
General Integration Accuracy     IntAcc      ... 4.338
Radial Grid Type                 RadialGrid  ... OptM3 with GC (2021)
Angular Grid (max. ang.)         AngularGrid ... 3 (Lebedev-194)
Angular grid pruning method      GridPruning ... 4 (adaptive)
Weight generation scheme         WeightScheme... mBecke (2022)
Basis function cutoff            BFCut       ... 1.0000e-11
Integration weight cutoff        WCut        ... 1.0000e-14
Partially contracted basis set               ... on
Rotationally invariant grid construction     ... off
Angular grids for H and He will be reduced by one unit

Total number of grid points                  ...   176142
Total number of batches                      ...     1415
Average number of points per batch           ...      124
Average number of grid points per atom       ...     2413
UseSFitting                                  ... on
Initializing property integral containers    ... done (  0.0 sec)

SHARK setup successfully completed in   4.6 seconds

Maximum memory used throughout the entire STARTUP-calculation: 96.0 MB


           ************************************************************
           *        Program running with 4 parallel MPI-processes     *
           *              working on a common directory               *
           ************************************************************
-------------------------------------------------------------------------------
                                 ORCA GUESS
                   Start orbitals & Density for SCF / CASSCF
-------------------------------------------------------------------------------

------------
SCF SETTINGS
------------
Hamiltonian:
 Density Functional     Method          .... DFT(GTOs)
 Exchange Functional    Exchange        .... WB97X-V
 Correlation Functional Correlation     .... WB97X-V
 Gradients option       PostSCFGGA      .... off
 Hybrid DFT is turned on
   Fraction HF Exchange ScalHFX         ....  0.167000
   Scaling of DF-GGA-X  ScalDFX         ....  0.000000
   Scaling of DF-GGA-C  ScalDFC         ....  1.000000
   Scaling of DF-LDA-C  ScalLDAC        ....  1.000000
   Perturbative correction              ....  0.000000
 Long-range corrected/Screened/Range-Separated Hybrid DFT is turned on
   Amount of maximum screened exact exchange              ....  0.833000
   Range separation parameter mu (erf(mu*r12)/r12)        ....  0.300000
 RI-approximation to the Coulomb term is turned on
   Number of AuxJ basis functions       .... 1905
   RIJ-COSX (HFX calculated with COS-X)).... on


General Settings:
 Integral files         IntName         .... inpS
 Hartree-Fock type      HFTyp           .... RHF
 Total Charge           Charge          ....    0
 Multiplicity           Mult            ....    1
 Number of Electrons    NEL             ....  220
 Basis Dimension        Dim             ....  626
 Nuclear Repulsion      ENuc            ....   2796.4583195482 Eh

Convergence Acceleration:
 AO-DIIS                CNVDIIS         .... on
   Start iteration      DIISMaxIt       ....    12
   Startup error        DIISStart       ....  0.200000
   # of expansion vecs  DIISMaxEq       ....     5
   Bias factor          DIISBfac        ....   1.050
   Max. coefficient     DIISMaxC        ....  10.000
 MO-DIIS                CNVKDIIS        .... off
 Trust-Rad. Augm. Hess. CNVTRAH         .... auto
   Auto Start mean grad. ratio tolernc. ....  1.125000
   Auto Start start iteration           ....     1
   Auto Start num. interpolation iter.  ....    10
   Max. Number of Micro iterations      ....    24
   Max. Number of Macro iterations      .... Maxiter - #DIIS iter
   Number of Davidson start vectors     ....     2
   Converg. threshold    (grad. norm)   ....   1.000e-04
   Grad. Scal. Fac. for Micro threshold ....   0.100
   Minimum threshold for Micro iter.    ....   1.000e-02
   NR start threshold (gradient norm)   ....   1.000e-04
   Initial trust radius                 ....   0.400
   Minimum AH scaling param. (alpha)    ....   1.000
   Maximum AH scaling param. (alpha)    .... 1000.000
   Quad. conv. algorithm                .... NR
   White noise on init. David. guess    .... on
   Maximum white noise                  ....   0.010
   Pseudo random numbers                .... off
   Inactive MOs                         .... canonical
   Orbital update algorithm             .... Taylor
   Preconditioner                       .... Diag
   Full preconditioner red. dimension   ....   250
 SOSCF                  CNVSOSCF        .... off
 Level Shifting         CNVShift        .... on
   Level shift para.    LevelShift      ....    0.2500
   Turn off err/grad.   ShiftErr        ....    0.0010
 Zerner damping         CNVZerner       .... off
 Static damping         CNVDamp         .... on
   Fraction old density DampFac         ....    0.7000
   Max. Damping (<1)    DampMax         ....    0.9800
   Min. Damping (>=0)   DampMin         ....    0.0000
   Turn off err/grad.   DampErr         ....    0.1000

SCF Procedure:
 Maximum # iterations   MaxIter         ....   125
 SCF integral mode      SCFMode         .... Direct
   Integral package                     .... SHARK and LIBINT hybrid scheme
 Reset frequency        DirectResetFreq ....    20
 Integral Threshold     Thresh          ....  3.000e-11 Eh
 Primitive CutOff       TCut            ....  1.000e-12 Eh

Convergence Tolerance:
 Convergence Check Mode ConvCheckMode   .... Total+1el-Energy
 Convergence forced     ConvForced      .... 0
 Energy Change          TolE            ....  1.000e-07 Eh
 1-El. energy change                    ....  1.000e-04 Eh
 DIIS Error             TolErr          ....  1.000e-07

---------------------
INITIAL GUESS: MOREAD
---------------------
Guess MOs are being read from file: inpS.ges
Input Geometry matches current geometry (good)
Input basis set matches current basis set (good)
Occupation numbers will be reassigned to an Aufbau configuration
MOs were renormalized
MOs were reorthogonalized (Cholesky)
                      ------------------
                      INITIAL GUESS DONE (   0.2 sec)
                      ------------------
             **** ENERGY FILE WAS UPDATED (inpS.en.tmp) ****
Finished Guess after   0.3 sec
Maximum memory used throughout the entire GUESS-calculation: 52.7 MB


           ************************************************************
           *        Program running with 4 parallel MPI-processes     *
           *              working on a common directory               *
           ************************************************************

-------------------------------------------------------------------------------------------
                                      ORCA LEAN-SCF
                              memory conserving SCF solver
-------------------------------------------------------------------------------------------

--------------------
CPCM SOLVATION MODEL
--------------------
CPCM parameters:
  Epsilon                                         ...       4.8030
  Refrac                                          ...       1.4459
  Rsolv                                           ...       1.3000
  Surface type                                    ... GAUSSIAN VDW
  Discretization scheme                           ... Constant charge density
    Threshold for H atoms                         ...       5.0000 (charges/Ang^2)
    Threshold for non-H atoms                     ...       5.0000 (charges/Ang^2)
  Epsilon function type                           ...         CPCM
Solvent:                                          ... CHLOROFORM
Radii:
  Scheme                                          ... Element-dependent radii
  Radius for C  used is    3.8550 Bohr (=   2.0400 Ang.)
  Radius for H  used is    2.4944 Bohr (=   1.3200 Ang.)
  Radius for O  used is    3.4469 Bohr (=   1.8240 Ang.)
Calculating surface                               ...        done! (  0.0s)
Cavity surface points                             ...         5380
Cavity Volume                                     ...    3615.5459
Cavity Surface-area                               ...    1787.9223
Calculating surface distance matrix               ...        done! (  0.2s)
Performing Cholesky decomposition & store         ...        done! (  0.9s)
Overall time for CPCM initialization              ...                 1.1s

----------------------------------------D-I-I-S--------------------------------------------
Iteration    Energy (Eh)           Delta-E    RMSDP     MaxDP     DIISErr   Damp  Time(sec)
-------------------------------------------------------------------------------------------
               ***  Starting incremental Fock matrix formation  ***
    1    -1168.3637711988340016     0.00e+00  3.20e-08  2.18e-06  4.38e-06  0.700  23.9

  HOMO= 109 E= -7.957 eV LUMO=  8.069 eV gap=  16.025 eV
    2    -1168.3637711895808025     9.25e-09  2.77e-08  1.41e-06  2.53e-06  0.700   4.8
                 **** Energy Check signals convergence ****

  HOMO= 109 E= -7.957 eV LUMO=  8.069 eV gap=  16.025 eV

               *****************************************************
               *                     SUCCESS                       *
               *           SCF CONVERGED AFTER   2 CYCLES          *
               *****************************************************

Recomputing exchange energy using gridx3       ... done (   41.345 sec)
Old exchange energy                            :    -56.782621565 Eh
New exchange energy                            :    -56.782676556 Eh
Exchange energy change after final integration :     -0.000054992 Eh
Total energy after final integration           :  -1168.363826181 Eh
             **** ENERGY FILE WAS UPDATED (inpS.en.tmp) ****

----------------
TOTAL SCF ENERGY
----------------

Total Energy       :      -1168.36382618131393 Eh          -31792.79602 eV

Components:
Nuclear Repulsion  :       2796.45831954821915 Eh           76095.49950 eV
Electronic Energy  :      -3964.81298992397205 Eh         -107888.04638 eV
One Electron Energy:      -7137.96628543695988 Eh         -194233.93729 eV
Two Electron Energy:       3173.15329551298782 Eh           86345.89091 eV
CPCM Dielectric    :         -0.00910081382807 Eh              -0.24765 eV

Virial components:
Potential Energy   :      -2321.66042927420767 Eh          -63175.59207 eV
Kinetic Energy     :       1153.29660309289375 Eh           31382.79604 eV
Virial Ratio       :          2.01306448232659

DFT components:
N(Alpha)           :      110.000083090275 electrons
N(Beta)            :      110.000083090275 electrons
N(Total)           :      220.000166180551 electrons
E(X)               :     -111.769062518725 Eh       
E(C)               :       -8.951943109628 Eh       
E(XC)              :     -120.721005628352 Eh       

CPCM Solvation Model Properties:
Surface-charge          :         -0.04177234549338
Corrected charge        :         -0.00000000000000
Outlying charge corr.   :          0.00006150426828 Eh               0.00167 eV
Free-energy (cav+disp)  :  This term is not implemented in the current solvation scheme

---------------
SCF CONVERGENCE
---------------

  Last Energy change         ...   -9.2532e-09  Tolerance :   1.0000e-07
  Last MAX-Density change    ...    1.4075e-06  Tolerance :   1.0000e-05
  Last RMS-Density change    ...    2.7674e-08  Tolerance :   1.0000e-06
  Last DIIS Error            ...    2.5315e-06  Tolerance :   1.0000e-07


----------------
ORBITAL ENERGIES
----------------

  NO   OCC          E(Eh)            E(eV) 
   0   2.0000     -19.212389      -522.7957 
   1   2.0000     -10.330297      -281.1017 
   2   2.0000     -10.294223      -280.1200 
   3   2.0000     -10.291963      -280.0586 
   4   2.0000     -10.287430      -279.9352 
   5   2.0000     -10.286601      -279.9126 
   6   2.0000     -10.285402      -279.8800 
   7   2.0000     -10.284139      -279.8457 
   8   2.0000     -10.282909      -279.8122 
   9   2.0000     -10.282515      -279.8015 
  10   2.0000     -10.281537      -279.7748 
  11   2.0000     -10.281453      -279.7726 
  12   2.0000     -10.279232      -279.7121 
  13   2.0000     -10.278077      -279.6807 
  14   2.0000     -10.277653      -279.6692 
  15   2.0000     -10.277440      -279.6634 
  16   2.0000     -10.277261      -279.6585 
  17   2.0000     -10.276997      -279.6513 
  18   2.0000     -10.273570      -279.5581 
  19   2.0000     -10.273027      -279.5433 
  20   2.0000     -10.272348      -279.5248 
  21   2.0000     -10.272246      -279.5220 
  22   2.0000     -10.270860      -279.4843 
  23   2.0000     -10.269902      -279.4582 
  24   2.0000     -10.269880      -279.4576 
  25   2.0000     -10.268739      -279.4266 
  26   2.0000     -10.268461      -279.4190 
  27   2.0000     -10.267294      -279.3873 
  28   2.0000     -10.266545      -279.3669 
  29   2.0000      -1.130928       -30.7741 
  30   2.0000      -0.998644       -27.1745 
  31   2.0000      -0.977211       -26.5913 
  32   2.0000      -0.957542       -26.0560 
  33   2.0000      -0.943137       -25.6641 
  34   2.0000      -0.917924       -24.9780 
  35   2.0000      -0.910969       -24.7887 
  36   2.0000      -0.890154       -24.2223 
  37   2.0000      -0.888092       -24.1662 
  38   2.0000      -0.873155       -23.7598 
  39   2.0000      -0.853467       -23.2240 
  40   2.0000      -0.833599       -22.6834 
  41   2.0000      -0.826476       -22.4896 
  42   2.0000      -0.809536       -22.0286 
  43   2.0000      -0.800324       -21.7779 
  44   2.0000      -0.796921       -21.6853 
  45   2.0000      -0.791425       -21.5358 
  46   2.0000      -0.767265       -20.8783 
  47   2.0000      -0.760276       -20.6882 
  48   2.0000      -0.723945       -19.6995 
  49   2.0000      -0.712950       -19.4003 
  50   2.0000      -0.703824       -19.1520 
  51   2.0000      -0.695889       -18.9361 
  52   2.0000      -0.688444       -18.7335 
  53   2.0000      -0.666925       -18.1479 
  54   2.0000      -0.651799       -17.7364 
  55   2.0000      -0.638605       -17.3773 
  56   2.0000      -0.630430       -17.1549 
  57   2.0000      -0.619808       -16.8658 
  58   2.0000      -0.607453       -16.5296 
  59   2.0000      -0.598727       -16.2922 
  60   2.0000      -0.589791       -16.0490 
  61   2.0000      -0.583017       -15.8647 
  62   2.0000      -0.577679       -15.7195 
  63   2.0000      -0.569900       -15.5078 
  64   2.0000      -0.567863       -15.4523 
  65   2.0000      -0.558428       -15.1956 
  66   2.0000      -0.555180       -15.1072 
  67   2.0000      -0.551395       -15.0042 
  68   2.0000      -0.549667       -14.9572 
  69   2.0000      -0.543745       -14.7960 
  70   2.0000      -0.538162       -14.6441 
  71   2.0000      -0.534149       -14.5349 
  72   2.0000      -0.525385       -14.2965 
  73   2.0000      -0.519923       -14.1478 
  74   2.0000      -0.512750       -13.9526 
  75   2.0000      -0.509246       -13.8573 
  76   2.0000      -0.506469       -13.7817 
  77   2.0000      -0.503267       -13.6946 
  78   2.0000      -0.499490       -13.5918 
  79   2.0000      -0.498932       -13.5766 
  80   2.0000      -0.489612       -13.3230 
  81   2.0000      -0.487327       -13.2608 
  82   2.0000      -0.484418       -13.1817 
  83   2.0000      -0.479576       -13.0499 
  84   2.0000      -0.470033       -12.7902 
  85   2.0000      -0.466997       -12.7076 
  86   2.0000      -0.462733       -12.5916 
  87   2.0000      -0.460820       -12.5396 
  88   2.0000      -0.453444       -12.3389 
  89   2.0000      -0.452637       -12.3169 
  90   2.0000      -0.449485       -12.2311 
  91   2.0000      -0.444225       -12.0880 
  92   2.0000      -0.437618       -11.9082 
  93   2.0000      -0.433297       -11.7906 
  94   2.0000      -0.427138       -11.6230 
  95   2.0000      -0.425962       -11.5910 
  96   2.0000      -0.422694       -11.5021 
  97   2.0000      -0.420917       -11.4537 
  98   2.0000      -0.416622       -11.3369 
  99   2.0000      -0.414370       -11.2756 
 100   2.0000      -0.411389       -11.1945 
 101   2.0000      -0.409820       -11.1518 
 102   2.0000      -0.405665       -11.0387 
 103   2.0000      -0.402311       -10.9474 
 104   2.0000      -0.392390       -10.6775 
 105   2.0000      -0.381221       -10.3736 
 106   2.0000      -0.372662       -10.1406 
 107   2.0000      -0.355802        -9.6819 
 108   2.0000      -0.336641        -9.1605 
 109   2.0000      -0.292404        -7.9567 
 110   0.0000       0.046514         1.2657 
 111   0.0000       0.099518         2.7080 
 112   0.0000       0.109878         2.9899 
 113   0.0000       0.133865         3.6426 
 114   0.0000       0.140109         3.8126 
 115   0.0000       0.143342         3.9005 
 116   0.0000       0.147888         4.0242 
 117   0.0000       0.158248         4.3062 
 118   0.0000       0.160499         4.3674 
 119   0.0000       0.167551         4.5593 
 120   0.0000       0.168331         4.5805 
*Only the first 10 virtual orbitals were printed.

                    ********************************
                    * MULLIKEN POPULATION ANALYSIS *
                    ********************************

-----------------------
MULLIKEN ATOMIC CHARGES
-----------------------
   0 C :   -0.174208
   1 C :    0.142510
   2 C :    0.068358
   3 H :    0.017123
   4 H :    0.030765
   5 C :   -0.169787
   6 C :    0.094836
   7 C :    0.023910
   8 H :    0.013740
   9 H :    0.027406
  10 H :    0.019949
  11 H :    0.022611
  12 O :   -0.359159
  13 H :    0.018185
  14 C :   -0.009036
  15 C :   -0.047114
  16 H :    0.035500
  17 H :    0.029390
  18 C :   -0.062397
  19 H :   -0.001958
  20 C :   -0.113709
  21 H :    0.003743
  22 C :    0.114207
  23 C :   -0.001521
  24 H :    0.014293
  25 H :    0.016588
  26 C :    0.106648
  27 H :    0.013054
  28 H :    0.015688
  29 C :   -0.413272
  30 H :    0.009147
  31 H :   -0.002449
  32 C :   -0.044528
  33 H :    0.010717
  34 C :    0.133558
  35 H :    0.178982
  36 C :    0.040201
  37 H :    0.006845
  38 H :    0.014133
  39 C :   -0.028807
  40 H :    0.018455
  41 H :    0.011071
  42 H :   -0.008655
  43 C :   -0.036534
  44 C :    0.091138
  45 H :    0.019868
  46 H :    0.024493
  47 H :    0.018679
  48 H :    0.000152
  49 C :    0.055051
  50 C :   -0.047210
  51 C :   -0.058487
  52 H :    0.005843
  53 H :    0.000699
  54 C :   -0.064600
  55 C :    0.040485
  56 C :   -0.186581
  57 H :    0.014832
  58 H :    0.012841
  59 C :    0.039653
  60 C :    0.019854
  61 H :    0.023933
  62 H :    0.018966
  63 H :    0.024223
  64 H :    0.015426
  65 H :    0.018645
  66 H :    0.018596
  67 H :    0.020238
  68 H :    0.018368
  69 H :    0.017458
  70 H :    0.030779
  71 H :    0.012251
  72 H :    0.015929
Sum of atomic charges:   -0.0000000

--------------------------------
MULLIKEN REDUCED ORBITAL CHARGES
--------------------------------
  0 C s       :     3.102498  s :     3.102498
      pz      :     1.015539  p :     3.028703
      px      :     1.004871
      py      :     1.008293
      dz2     :     0.005120  d :     0.043007
      dxz     :     0.006335
      dyz     :     0.005933
      dx2y2   :     0.014020
      dxy     :     0.011599

  1 C s       :     2.939184  s :     2.939184
      pz      :     0.990150  p :     2.883916
      px      :     0.929054
      py      :     0.964712
      dz2     :     0.008114  d :     0.034390
      dxz     :     0.006458
      dyz     :     0.003821
      dx2y2   :     0.009922
      dxy     :     0.006074

  2 C s       :     3.085177  s :     3.085177
      pz      :     0.736158  p :     2.775809
      px      :     1.048406
      py      :     0.991245
      dz2     :     0.022959  d :     0.070657
      dxz     :     0.011329
      dyz     :     0.017555
      dx2y2   :     0.011587
      dxy     :     0.007226

  3 H s       :     0.960219  s :     0.960219
      pz      :     0.004977  p :     0.022657
      px      :     0.003754
      py      :     0.013926

  4 H s       :     0.945923  s :     0.945923
      pz      :     0.014386  p :     0.023312
      px      :     0.004499
      py      :     0.004428

  5 C s       :     3.108667  s :     3.108667
      pz      :     0.975148  p :     3.016328
      px      :     0.986451
      py      :     1.054730
      dz2     :     0.009283  d :     0.044792
      dxz     :     0.005528
      dyz     :     0.008671
      dx2y2   :     0.011190
      dxy     :     0.010120

  6 C s       :     2.955684  s :     2.955684
      pz      :     1.003889  p :     2.914029
      px      :     0.945757
      py      :     0.964383
      dz2     :     0.009081  d :     0.035451
      dxz     :     0.006050
      dyz     :     0.004120
      dx2y2   :     0.008860
      dxy     :     0.007340

  7 C s       :     3.002662  s :     3.002662
      pz      :     0.985511  p :     2.938642
      px      :     0.981166
      py      :     0.971965
      dz2     :     0.007795  d :     0.034786
      dxz     :     0.006025
      dyz     :     0.004395
      dx2y2   :     0.008590
      dxy     :     0.007981

  8 H s       :     0.963427  s :     0.963427
      pz      :     0.005618  p :     0.022832
      px      :     0.003816
      py      :     0.013399

  9 H s       :     0.949192  s :     0.949192
      pz      :     0.014508  p :     0.023402
      px      :     0.004475
      py      :     0.004419

 10 H s       :     0.957228  s :     0.957228
      pz      :     0.014133  p :     0.022823
      px      :     0.004533
      py      :     0.004156

 11 H s       :     0.954761  s :     0.954761
      pz      :     0.007871  p :     0.022628
      px      :     0.007380
      py      :     0.007377

 12 O s       :     3.713566  s :     3.713566
      pz      :     1.399399  p :     4.633452
      px      :     1.350699
      py      :     1.883355
      dz2     :     0.005296  d :     0.012141
      dxz     :     0.001432
      dyz     :     0.001633
      dx2y2   :     0.003206
      dxy     :     0.000575

 13 H s       :     0.961467  s :     0.961467
      pz      :     0.001962  p :     0.020349
      px      :     0.014135
      py      :     0.004252

 14 C s       :     3.194502  s :     3.194502
      pz      :     0.992664  p :     2.778181
      px      :     0.871243
      py      :     0.914273
      dz2     :     0.004132  d :     0.036353
      dxz     :     0.007455
      dyz     :     0.003334
      dx2y2   :     0.010985
      dxy     :     0.010446

 15 C s       :     3.124663  s :     3.124663
      pz      :     1.008788  p :     2.896192
      px      :     0.981434
      py      :     0.905970
      dz2     :     0.005160  d :     0.026260
      dxz     :     0.004128
      dyz     :     0.004319
      dx2y2   :     0.006638
      dxy     :     0.006015

 16 H s       :     0.939961  s :     0.939961
      pz      :     0.006800  p :     0.024539
      px      :     0.008459
      py      :     0.009280

 17 H s       :     0.945998  s :     0.945998
      pz      :     0.004787  p :     0.024612
      px      :     0.004428
      py      :     0.015397

 18 C s       :     3.199755  s :     3.199755
      pz      :     1.028620  p :     2.827469
      px      :     0.882639
      py      :     0.916210
      dz2     :     0.003516  d :     0.035173
      dxz     :     0.006581
      dyz     :     0.003307
      dx2y2   :     0.012069
      dxy     :     0.009701

 19 H s       :     0.977647  s :     0.977647
      pz      :     0.004604  p :     0.024311
      px      :     0.004932
      py      :     0.014775

 20 C s       :     3.100180  s :     3.100180
      pz      :     0.959593  p :     2.969403
      px      :     0.985818
      py      :     1.023992
      dz2     :     0.004267  d :     0.044126
      dxz     :     0.006970
      dyz     :     0.007127
      dx2y2   :     0.014289
      dxy     :     0.011472

 21 H s       :     0.971678  s :     0.971678
      pz      :     0.004559  p :     0.024579
      px      :     0.004437
      py      :     0.015583

 22 C s       :     2.926631  s :     2.926631
      pz      :     0.999425  p :     2.923639
      px      :     0.976474
      py      :     0.947740
      dz2     :     0.009347  d :     0.035522
      dxz     :     0.004356
      dyz     :     0.005854
      dx2y2   :     0.009833
      dxy     :     0.006133

 23 C s       :     3.000412  s :     3.000412
      pz      :     1.013758  p :     2.964634
      px      :     0.964275
      py      :     0.986600
      dz2     :     0.010073  d :     0.036475
      dxz     :     0.007431
      dyz     :     0.002899
      dx2y2   :     0.010340
      dxy     :     0.005733

 24 H s       :     0.962511  s :     0.962511
      pz      :     0.005076  p :     0.023196
      px      :     0.013455
      py      :     0.004666

 25 H s       :     0.960150  s :     0.960150
      pz      :     0.013657  p :     0.023261
      px      :     0.004659
      py      :     0.004946

 26 C s       :     2.969241  s :     2.969241
      pz      :     0.968619  p :     2.888783
      px      :     0.974614
      py      :     0.945550
      dz2     :     0.007080  d :     0.035327
      dxz     :     0.006523
      dyz     :     0.005683
      dx2y2   :     0.008624
      dxy     :     0.007418

 27 H s       :     0.964091  s :     0.964091
      pz      :     0.013797  p :     0.022855
      px      :     0.004179
      py      :     0.004880

 28 H s       :     0.961672  s :     0.961672
      pz      :     0.004560  p :     0.022640
      px      :     0.003787
      py      :     0.014293

 29 C s       :     3.256305  s :     3.256305
      pz      :     1.047358  p :     3.105983
      px      :     0.999430
      py      :     1.059195
      dz2     :     0.011452  d :     0.050984
      dxz     :     0.010654
      dyz     :     0.009476
      dx2y2   :     0.010879
      dxy     :     0.008523

 30 H s       :     0.967809  s :     0.967809
      pz      :     0.008903  p :     0.023044
      px      :     0.008030
      py      :     0.006112

 31 H s       :     0.979913  s :     0.979913
      pz      :     0.013204  p :     0.022536
      px      :     0.004672
      py      :     0.004660

 32 C s       :     3.035201  s :     3.035201
      pz      :     0.989864  p :     2.965593
      px      :     0.943807
      py      :     1.031922
      dz2     :     0.008445  d :     0.043735
      dxz     :     0.007227
      dyz     :     0.008135
      dx2y2   :     0.011155
      dxy     :     0.008773

 33 H s       :     0.968011  s :     0.968011
      pz      :     0.012364  p :     0.021271
      px      :     0.003949
      py      :     0.004958

 34 C s       :     2.886296  s :     2.886296
      pz      :     0.987555  p :     2.945353
      px      :     0.975284
      py      :     0.982514
      dz2     :     0.005486  d :     0.034793
      dxz     :     0.005818
      dyz     :     0.008178
      dx2y2   :     0.008916
      dxy     :     0.006395

 35 H s       :     0.752229  s :     0.752229
[...]
 Total          138.657          174.345          190.314  iso=     167.772

 Orientation: 
  X           0.2176359   -0.4519874    0.8650676
  Y          -0.1820876   -0.8895544   -0.4189714
  Z           0.9588945   -0.0663349   -0.2759003

 --------------
 Nucleus  39C :
 --------------

Diamagnetic contribution to the shielding tensor (ppm) : 
           265.539          3.129        -6.757
             2.496        260.609         9.508
            -6.976          8.206       259.622

Paramagnetic contribution to the shielding tensor (ppm): 
          -100.821          1.201        11.095
             5.223       -126.060        -3.729
            15.965         -5.056      -129.307

Total shielding tensor (ppm): 
           164.718          4.330         4.338
             7.719        134.550         5.779
             8.988          3.150       130.315


 Diagonalized sT*s matrix:
 
 sDSO           253.578          267.849          264.342  iso=     261.923
 sPSO          -126.281         -132.922          -96.984  iso=    -118.729
        ---------------  ---------------  ---------------
 Total          127.298          134.927          167.358  iso=     143.194

 Orientation: 
  X          -0.0756360   -0.2630733   -0.9618064
  Y          -0.4785090    0.8558238   -0.1964553
  Z           0.8748190    0.4453740   -0.1906141

 --------------
 Nucleus  43C :
 --------------

Diamagnetic contribution to the shielding tensor (ppm) : 
           259.529         -1.929        -5.883
            -5.762        245.817         9.866
            -8.597         14.013       244.200

Paramagnetic contribution to the shielding tensor (ppm): 
           -95.476         -1.447         5.254
             9.103        -94.939        -7.177
            10.339        -11.815       -91.607

Total shielding tensor (ppm): 
           164.053         -3.376        -0.629
             3.341        150.878         2.690
             1.742          2.197       152.593


 Diagonalized sT*s matrix:
 
 sDSO           234.049          256.656          258.842  iso=     249.849
 sPSO           -84.910         -102.350          -94.762  iso=     -94.007
        ---------------  ---------------  ---------------
 Total          149.139          154.306          164.079  iso=     155.841

 Orientation: 
  X           0.0293146   -0.0361619   -0.9989159
  Y           0.8125144    0.5829346    0.0027415
  Z          -0.5822035    0.8117139   -0.0464705

 --------------
 Nucleus  44C :
 --------------

Diamagnetic contribution to the shielding tensor (ppm) : 
           251.014         -0.504         0.369
            -1.859        255.768         0.026
            -0.784          4.237       271.508

Paramagnetic contribution to the shielding tensor (ppm): 
           -71.786         -3.477        -1.721
            -0.354        -76.093        -3.698
            -0.420         -8.377       -79.013

Total shielding tensor (ppm): 
           179.229         -3.981        -1.353
            -2.213        179.675        -3.672
            -1.204         -4.139       192.495


 Diagonalized sT*s matrix:
 
 sDSO           253.792          255.203          269.296  iso=     259.430
 sPSO           -78.236          -72.963          -75.693  iso=     -75.631
        ---------------  ---------------  ---------------
 Total          175.556          182.239          193.602  iso=     183.799

 Orientation: 
  X           0.6740406    0.7381150   -0.0292474
  Y           0.7068849   -0.6560032   -0.2645250
  Z           0.2144362   -0.1576261    0.9639352

 --------------
 Nucleus  49C :
 --------------

Diamagnetic contribution to the shielding tensor (ppm) : 
           243.430         -7.520        -3.295
           -20.245        255.530         4.963
            -9.236          7.513       242.555

Paramagnetic contribution to the shielding tensor (ppm): 
           -69.839          2.610        -2.570
            18.820        -68.442         4.012
             4.740         -1.531       -75.652

Total shielding tensor (ppm): 
           173.591         -4.910        -5.865
            -1.425        187.088         8.975
            -4.496          5.982       166.903


 Diagonalized sT*s matrix:
 
 sDSO           239.013          237.772          264.730  iso=     247.172
 sPSO           -76.133          -63.912          -73.887  iso=     -71.311
        ---------------  ---------------  ---------------
 Total          162.880          173.860          190.843  iso=     175.861

 Orientation: 
  X           0.3676282   -0.8921868    0.2623969
  Y          -0.2360460   -0.3624354   -0.9016223
  Z           0.8995175    0.2695240   -0.3438387

 --------------
 Nucleus  50C :
 --------------

Diamagnetic contribution to the shielding tensor (ppm) : 
           265.140         13.707         7.904
             7.886        261.882        -1.372
            15.603        -12.561       253.912

Paramagnetic contribution to the shielding tensor (ppm): 
          -180.244        -35.354       -86.747
           -40.694       -161.820        38.448
           -87.645         58.075      -254.250

Total shielding tensor (ppm): 
            84.896        -21.647       -78.843
           -32.808        100.062        37.075
           -72.042         45.513        -0.338


 Diagonalized sT*s matrix:
 
 sDSO           269.510          269.087          242.338  iso=     260.312
 sPSO          -307.853         -208.037          -80.424  iso=    -198.771
        ---------------  ---------------  ---------------
 Total          -38.343           61.050          161.914  iso=      61.540

 Orientation: 
  X          -0.6055814    0.4318409   -0.6684194
  Y          -0.0772845    0.8040657    0.5894959
  Z          -0.7920216   -0.4086462    0.4535527

 --------------
 Nucleus  51C :
 --------------

Diamagnetic contribution to the shielding tensor (ppm) : 
           262.261         14.011         6.688
            13.997        263.262        -6.113
            -2.929         -2.991       269.012

Paramagnetic contribution to the shielding tensor (ppm): 
          -184.047        -30.683       -73.257
           -37.241       -158.545        39.512
           -63.366         33.996      -264.142

Total shielding tensor (ppm): 
            78.214        -16.672       -66.568
           -23.244        104.716        33.399
           -66.295         31.005         4.871


 Diagonalized sT*s matrix:
 
 sDSO           268.214          277.179          249.142  iso=     264.845
 sPSO          -304.820         -198.687         -103.227  iso=    -202.245
        ---------------  ---------------  ---------------
 Total          -36.605           78.491          145.915  iso=      62.600

 Orientation: 
  X           0.4912729   -0.5994437    0.6319163
  Y          -0.1161116   -0.7640984   -0.6345642
  Z           0.8632317    0.2383714   -0.4449832

 --------------
 Nucleus  54C :
 --------------

Diamagnetic contribution to the shielding tensor (ppm) : 
           247.275         -0.415         6.315
             3.315        258.401       -10.681
             8.642         -9.815       254.309

Paramagnetic contribution to the shielding tensor (ppm): 
           -84.809         -2.511        -4.008
            -3.290        -92.696        24.953
            -9.567         17.221      -105.177

Total shielding tensor (ppm): 
           162.466         -2.926         2.307
             0.024        165.705        14.272
            -0.925          7.406       149.132


 Diagonalized sT*s matrix:
 
 sDSO           262.474          249.166          248.345  iso=     253.328
 sPSO          -118.780          -86.730          -77.171  iso=     -94.227
        ---------------  ---------------  ---------------
 Total          143.694          162.436          171.174  iso=     159.101

 Orientation: 
  X          -0.0745633   -0.9911784    0.1095706
  Y          -0.4534844   -0.0641557   -0.8889522
  Z           0.8881397   -0.1159718   -0.4447003

 --------------
 Nucleus  55C :
 --------------

Diamagnetic contribution to the shielding tensor (ppm) : 
           247.846          0.149         5.153
            -5.444        233.238       -10.471
            21.195         -8.347       249.898

Paramagnetic contribution to the shielding tensor (ppm): 
           -61.260         -1.321        -1.814
             3.338        -49.434         9.546
           -19.362          7.387       -59.468

Total shielding tensor (ppm): 
           186.586         -1.172         3.339
            -2.105        183.804        -0.924
             1.833         -0.960       190.431


 Diagonalized sT*s matrix:
 
 sDSO           234.231          233.729          263.022  iso=     243.661
 sPSO           -51.195          -47.983          -70.984  iso=     -56.721
        ---------------  ---------------  ---------------
 Total          183.036          185.746          192.039  iso=     186.940

 Orientation: 
  X           0.4420609   -0.7667234    0.4655291
  Y           0.8960901    0.4006655   -0.1910229
  Z          -0.0400598    0.5015998    0.8641718

 --------------
 Nucleus  56C :
 --------------

Diamagnetic contribution to the shielding tensor (ppm) : 
           249.288          2.897        -2.263
             6.300        248.847         2.231
            -0.514          1.684       241.850

Paramagnetic contribution to the shielding tensor (ppm): 
           -86.725         -3.983         4.792
            -2.264        -72.535        -7.632
             6.330         -1.178       -82.665

Total shielding tensor (ppm): 
           162.562         -1.086         2.529
             4.036        176.312        -5.401
             5.816          0.506       159.184


 Diagonalized sT*s matrix:
 
 sDSO           245.206          245.837          248.941  iso=     246.661
 sPSO           -89.232          -80.464          -72.229  iso=     -80.642
        ---------------  ---------------  ---------------
 Total          155.975          165.373          176.711  iso=     166.020

 Orientation: 
  X          -0.5461397   -0.8342740   -0.0756201
  Y           0.1504426   -0.0088775   -0.9885789
  Z           0.8240743   -0.5512786    0.1303587

 --------------
 Nucleus  59C :
 --------------

Diamagnetic contribution to the shielding tensor (ppm) : 
           243.816         13.692         5.607
            21.648        229.132         0.788
             9.892         -1.874       227.936

Paramagnetic contribution to the shielding tensor (ppm): 
           -51.806         -2.574        -9.795
            -7.998        -55.936         2.572
            -9.991          9.878       -65.902

Total shielding tensor (ppm): 
           192.009         11.118        -4.188
            13.650        173.195         3.361
            -0.099          8.005       162.034


 Diagonalized sT*s matrix:
 
 sDSO           228.467          217.304          255.112  iso=     233.628
 sPSO           -70.473          -46.222          -56.950  iso=     -57.882
        ---------------  ---------------  ---------------
 Total          157.994          171.082          198.162  iso=     175.746

 Orientation: 
  X           0.2388765   -0.3753224   -0.8955842
  Y          -0.4985012    0.7440801   -0.4447937
  Z           0.8333274    0.5527005   -0.0093554

 --------------
 Nucleus  60C :
 --------------

Diamagnetic contribution to the shielding tensor (ppm) : 
           244.532         -8.181        -9.325
            11.906        257.428         8.557
             6.450         11.217       257.406

Paramagnetic contribution to the shielding tensor (ppm): 
           -51.384         10.348         2.864
           -13.429        -82.332        -5.213
           -16.966         -8.515       -80.255

Total shielding tensor (ppm): 
           193.149          2.167        -6.461
            -1.523        175.095         3.343
           -10.515          2.702       177.151


 Diagonalized sT*s matrix:
 
 sDSO           246.152          265.438          247.776  iso=     253.122
 sPSO           -74.885          -88.160          -50.926  iso=     -71.323
        ---------------  ---------------  ---------------
 Total          171.267          177.278          196.850  iso=     181.798

 Orientation: 
  X          -0.2938116    0.2678147   -0.9175784
  Y           0.6069097    0.7938913    0.0373795
  Z          -0.7384683    0.5459047    0.3957938



--------------------------------
CHEMICAL SHIELDING SUMMARY (ppm)
--------------------------------


  Nucleus  Element    Isotropic     Anisotropy
  -------  -------  ------------   ------------
      0       C           61.497        151.775 
      1       C          154.586         12.252 
      2       C          132.378         51.013 
      5       C           50.882        177.652 
      6       C          168.024         31.760 
      7       C          164.925         17.187 
     14       C           71.659        133.243 
     15       C           83.655        119.640 
     18       C           80.169        133.905 
     20       C           52.167        175.794 
     22       C          168.949          7.341 
     23       C          174.088         13.144 
     26       C          158.756         23.929 
     29       C          154.273         16.673 
     32       C          142.673         28.335 
     34       C          174.901         24.211 
     36       C          167.772         33.813 
     39       C          143.194         36.246 
     43       C          155.841         12.357 
     44       C          183.799         14.704 
     49       C          175.861         22.473 
     50       C           61.540        150.561 
     51       C           62.600        124.972 
     54       C          159.101         18.109 
     55       C          186.940          7.648 
     56       C          166.020         16.038 
     59       C          175.746         33.624 
     60       C          181.798         22.578 


NMR shielding tensor and spin rotation calculation done in   1.0 sec 

Maximum memory used throughout the entire PROP-calculation: 52.1 MB

--------------------------------
SUGGESTED CITATIONS FOR THIS RUN
--------------------------------

Below you find a list of papers that are relevant to this ORCA run
We neither can nor want to force you to cite these papers, but we appreciate if you do
You receive ORCA, which is the product of decades of hard work by many enthusiastic individuals, for free
The only thing we kindly ask in return is that you cite our papers,
We deeply appreciate it, if you show your appreciation for ORCA by not just citing the generic ORCA reference.

Please note that relegating all ORCA citations to the supporting information does *not* help us.
SI sections are not indexed - citations you put there will not count into any citation statistics
But we need these citations in order to attract the funding resources that allow us to do what we are doing

Therefore, if you are a happy ORCA user, please consider citing a few of the papers listed below in the main body of your paper

In addition to the list printed below, the program has created the file inpS.bibtex that contains the list in bibtex format
You can import this file easily into all common literature databanks and citation aid programs


List of essential papers. We consider these as the minimum necessary citations

  1. Neese,F.
     Software update: the ORCA program system, version 5.0
     WIRES Comput. Molec. Sci., 2022 12(1)e1606
     doi.org/10.1002/wcms.1606

List of papers to cite with high priority. The work reported in these papers was absolutely
necessary for this run to complete.
Our perspective: the developers of density functionals and basis sets usually get cited in chemistry papers
Good! But without the algorithms to do something with them, the functionals or basis sets would not do anything.
Hence, in our opinion, the algorithm design and method developments papers are equally worthy of getting cited

  1. Neese,F.
     An improvement of the resolution of the identity approximation for the formation of the Coulomb matrix
     J. Comp. Chem., 2003 24(14)1740-1747
     doi.org/10.1002/jcc.10318
  2. Neese,F.; Wennmohs,F.; Hansen,A.; Becker,U.
     Efficient, approximate and parallel Hartree-Fock and hybrid DFT calculations. A 'chain-of-spheres' algorithm for the Hartree-Fock exchange
     Chem. Phys., 2009 356(1-3)98-109
     doi.org/10.1016/j.chemphys.2008.10.036
  3. Stoychev,G.L.; Auer,A.A.; Izsak,R.; Neese,F.
     Self-Consistent Field Calculation of Nuclear Magnetic Resonance Chemical Shielding Constants Using Gauge-Including Atomic Orbitals and Approximate Two-Electron Integrals
     J. Chem. Theory Comput., 2018 14(2)619-637
     doi.org/10.1021/acs.jctc.7b01006
  4. Garcia-Rates,M.; Neese,F.
     Effect of the Solute Cavity on the Solvation Energy and its Derivatives within the Framework of the Gaussian Charge Scheme
     J. Comput. Chem., 2020 41 922-939
     doi.org/10.1002/jcc.26139
  5. Helmich-Paris,B.; de Souza,B.; Neese,F.; Izsák,R.
     An improved chain of spheres for exchange algorithm
     J. Chem. Phys., 2021 155 104109
     doi.org/doi: 10.1063/5.0058766.
  6. Neese,F.
     The SHARK Integral Generation and Digestion System
     J. Comp. Chem., 2022  1-16
     doi.org/10.1002/jcc.26942
  7. Caldeweyher,E.; Bannwarth,C.; Grimme,S.
     Extension of the D3 dispersion coefficient model
     J. Chem. Phys., 2017 147 034112-XXXX
     doi.org/10.1063/1.4993215
  8. Caldeweyher,E.; Ehlert,S.; Hansen,A.; Neugebauer,H.; Spicher,S.; Bannwarth,C.; Grimme,S.
     A generally applicable atomic-charge dependent London dispersion correction
     J. Chem. Phys., 2019 150 154122-XXXX
     doi.org/10.1063/1.5090222
  9. Caldeweyher,E.; Mewes,J.; Ehlert,S.; Grimme,S.
     Extension and evaluation of the D4 London-dispersion model for periodic systems
     Phys. Chem. Chem. Phys., 2020 22(16)8499-8512
     doi.org/10.1039/D0CP00502A

List of suggested additional citations. These are papers that are important in the 'surrounding' of 
of this run, or papers that preceded the highly important papers. If you like your results we are grateful for a citation.

  1. Izsak,R.; Neese,F.
     An overlap fitted chain of spheres exchange method
     J. Chem. Phys., 2011 135 144105
     doi.org/10.1063/1.3646921
  2. Izsak,R.; Hansen,A.; Neese,F.
     The resolution of identity and chain of spheres approximations for the LPNO-CCSD singles Fock term
     Molec. Phys., 2012 110 2413-2417
     doi.org/10.1080/00268976.2012.687466
  3. Neese,F.
     The ORCA program system
     WIRES Comput. Molec. Sci., 2012 2(1)73-78
     doi.org/10.1002/wcms.81
  4. Izsak,R.; Neese,F.; Klopper,W.
     Robust fitting techniques in the chain of spheres approximation to the Fock exchange: The role of the complementary space
     J. Chem. Phys., 2013 139 
     doi.org/10.1063/1.4819264
  5. Neese,F.
     Software update: the ORCA program system, version 4.0
     WIRES Comput. Molec. Sci., 2018 8(1)1-6
     doi.org/10.1002/wcms.1327
  6. Neese,F.; Wennmohs,F.; Becker,U.; Riplinger,C.
     The ORCA quantum chemistry program package
     J. Chem. Phys., 2020 152 Art. No. L224108
     doi.org/10.1063/5.0004608

Timings for individual modules:

Sum of individual times          ...      180.080 sec (=   3.001 min)
Startup calculation              ...        4.800 sec (=   0.080 min)   2.7 %
SCF iterations                   ...       72.691 sec (=   1.212 min)  40.4 %
Property integrals               ...       61.370 sec (=   1.023 min)  34.1 %
SCF Response                     ...       39.826 sec (=   0.664 min)  22.1 %
Property calculations            ...        1.393 sec (=   0.023 min)   0.8 %
                             ****ORCA TERMINATED NORMALLY****
TOTAL RUN TIME: 0 days 0 hours 3 minutes 0 seconds 366 msec
