
                                 *****************
                                 * O   R   C   A *
                                 *****************

                                            #,                                       
                                            ###                                      
                                            ####                                     
                                            #####                                    
                                            ######                                   
                                           ########,                                 
                                     ,,################,,,,,                         
                               ,,#################################,,                 
                          ,,##########################################,,             
                       ,#########################################, ''#####,          
                    ,#############################################,,   '####,        
                  ,##################################################,,,,####,       
                ,###########''''           ''''###############################       
              ,#####''   ,,,,##########,,,,          '''####'''          '####       
            ,##' ,,,,###########################,,,                        '##       
           ' ,,###''''                  '''############,,,                           
         ,,##''                                '''############,,,,        ,,,,,,###''
      ,#''                                            '''#######################'''  
     '                                                          ''''####''''         
             ,#######,   #######,   ,#######,      ##                                
            ,#'     '#,  ##    ##  ,#'     '#,    #''#        ######   ,####,        
            ##       ##  ##   ,#'  ##            #'  '#       #        #'  '#        
            ##       ##  #######   ##           ,######,      #####,   #    #        
            '#,     ,#'  ##    ##  '#,     ,#' ,#      #,         ##   #,  ,#        
             '#######'   ##     ##  '#######'  #'      '#     #####' # '####'        



                  #######################################################
                  #                        -***-                        #
                  #          Department of theory and spectroscopy      #
                  #    Directorship and core code : Frank Neese         #
                  #        Max Planck Institute fuer Kohlenforschung    #
                  #                Kaiser Wilhelm Platz 1               #
                  #                 D-45470 Muelheim/Ruhr               #
                  #                      Germany                        #
                  #                                                     #
                  #                  All rights reserved                #
                  #                        -***-                        #
                  #######################################################


                         Program Version 5.0.2 -  RELEASE  -


 With contributions from (in alphabetic order):
   Daniel Aravena         : Magnetic Suceptibility
   Michael Atanasov       : Ab Initio Ligand Field Theory (pilot matlab implementation)
   Alexander A. Auer      : GIAO ZORA, VPT2 properties, NMR spectrum
   Ute Becker             : Parallelization
   Giovanni Bistoni       : ED, misc. LED, open-shell LED, HFLD
   Martin Brehm           : Molecular dynamics
   Dmytro Bykov           : SCF Hessian
   Vijay G. Chilkuri      : MRCI spin determinant printing, contributions to CSF-ICE
   Dipayan Datta          : RHF DLPNO-CCSD density
   Achintya Kumar Dutta   : EOM-CC, STEOM-CC
   Dmitry Ganyushin       : Spin-Orbit,Spin-Spin,Magnetic field MRCI
   Miquel Garcia          : C-PCM and meta-GGA Hessian, CC/C-PCM, Gaussian charge scheme
   Yang Guo               : DLPNO-NEVPT2, F12-NEVPT2, CIM, IAO-localization
   Andreas Hansen         : Spin unrestricted coupled pair/coupled cluster methods
   Benjamin Helmich-Paris : MC-RPA, TRAH-SCF, COSX integrals
   Lee Huntington         : MR-EOM, pCC
   Robert Izsak           : Overlap fitted RIJCOSX, COSX-SCS-MP3, EOM
   Marcus Kettner         : VPT2
   Christian Kollmar      : KDIIS, OOCD, Brueckner-CCSD(T), CCSD density, CASPT2, CASPT2-K
   Simone Kossmann        : Meta GGA functionals, TD-DFT gradient, OOMP2, MP2 Hessian
   Martin Krupicka        : Initial AUTO-CI
   Lucas Lang             : DCDCAS
   Marvin Lechner         : AUTO-CI (C++ implementation), FIC-MRCC
   Dagmar Lenk            : GEPOL surface, SMD
   Dimitrios Liakos       : Extrapolation schemes; Compound Job, initial MDCI parallelization
   Dimitrios Manganas     : Further ROCIS development; embedding schemes
   Dimitrios Pantazis     : SARC Basis sets
   Anastasios Papadopoulos: AUTO-CI, single reference methods and gradients
   Taras Petrenko         : DFT Hessian,TD-DFT gradient, ASA, ECA, R-Raman, ABS, FL, XAS/XES, NRVS
   Peter Pinski           : DLPNO-MP2, DLPNO-MP2 Gradient
   Christoph Reimann      : Effective Core Potentials
   Marius Retegan         : Local ZFS, SOC
   Christoph Riplinger    : Optimizer, TS searches, QM/MM, DLPNO-CCSD(T), (RO)-DLPNO pert. Triples
   Tobias Risthaus        : Range-separated hybrids, TD-DFT gradient, RPA, STAB
   Michael Roemelt        : Original ROCIS implementation
   Masaaki Saitow         : Open-shell DLPNO-CCSD energy and density
   Barbara Sandhoefer     : DKH picture change effects
   Avijit Sen             : IP-ROCIS
   Kantharuban Sivalingam : CASSCF convergence, NEVPT2, FIC-MRCI
   Bernardo de Souza      : ESD, SOC TD-DFT
   Georgi Stoychev        : AutoAux, RI-MP2 NMR, DLPNO-MP2 response
   Willem Van den Heuvel  : Paramagnetic NMR
   Boris Wezisla          : Elementary symmetry handling
   Frank Wennmohs         : Technical directorship


 We gratefully acknowledge several colleagues who have allowed us to
 interface, adapt or use parts of their codes:
   Stefan Grimme, W. Hujo, H. Kruse, P. Pracht,  : VdW corrections, initial TS optimization,
                  C. Bannwarth, S. Ehlert          DFT functionals, gCP, sTDA/sTD-DF
   Ed Valeev, F. Pavosevic, A. Kumar             : LibInt (2-el integral package), F12 methods
   Garnet Chan, S. Sharma, J. Yang, R. Olivares  : DMRG
   Ulf Ekstrom                                   : XCFun DFT Library
   Mihaly Kallay                                 : mrcc  (arbitrary order and MRCC methods)
   Jiri Pittner, Ondrej Demel                    : Mk-CCSD
   Frank Weinhold                                : gennbo (NPA and NBO analysis)
   Christopher J. Cramer and Donald G. Truhlar   : smd solvation model
   Lars Goerigk                                  : TD-DFT with DH, B97 family of functionals
   V. Asgeirsson, H. Jonsson                     : NEB implementation
   FAccTs GmbH                                   : IRC, NEB, NEB-TS, DLPNO-Multilevel, CI-OPT
                                                   MM, QMMM, 2- and 3-layer-ONIOM, Crystal-QMMM,
                                                   LR-CPCM, SF, NACMEs, symmetry and pop. for TD-DFT,
                                                   nearIR, NL-DFT gradient (VV10), updates on ESD,
                                                   ML-optimized integration grids
   S Lehtola, MJT Oliveira, MAL Marques          : LibXC Library
   Liviu Ungur et al                             : ANISO software


 Your calculation uses the libint2 library for the computation of 2-el integrals
 For citations please refer to: http://libint.valeyev.net

 Your ORCA version has been built with support for libXC version: 5.1.0
 For citations please refer to: https://tddft.org/programs/libxc/

 This ORCA versions uses:
   CBLAS   interface :  Fast vector & matrix operations
   LAPACKE interface :  Fast linear algebra routines
   SCALAPACK package :  Parallel linear algebra routines
   Shared memory     :  Shared parallel matrices
   BLAS/LAPACK       :  OpenBLAS 0.3.15  USE64BITINT DYNAMIC_ARCH NO_AFFINITY Zen SINGLE_THREADED
        Core in use  :  Zen
   Copyright (c) 2011-2014, The OpenBLAS Project


Your calculation utilizes the atom-pairwise dispersion correction
based on tight binding partial charges (D4)
Cite in your paper:
E.Caldeweyher, C.Bannwarth, S.Grimme, J.Chem.Phys., (2017), 147, 034112.
E.Caldeweyher, S.Ehlert, A.Hansen, H.Neugebauer, S.Grimme, J.Chem.Phys., (2018), in progress.
   

================================================================================

----- Orbital basis set information -----
Your calculation utilizes the basis: pcJ-0
   F. Jensen, Theor. Chem. Acc. 126, 371 (2010).

----- AuxJ basis set information -----
Your calculation utilizes the auxiliary basis: def2/J
   F. Weigend, Phys. Chem. Chem. Phys. 8, 1057 (2006).

================================================================================
                                        WARNINGS
                       Please study these warnings very carefully!
================================================================================


INFO   : the flag for use of the SHARK integral package has been found!

================================================================================
                                       INPUT FILE
================================================================================
NAME = inpJ
|  1> ! pbe0
|  2> ! D4
|  3> ! pcJ-0
|  4> ! def2/J RIJCOSX
|  5> ! DEFGRID2
|  6> ! scfconv7
|  7> ! smallprint printgap noloewdin
|  8> ! NOSOSCF
|  9> %MaxCore 4000
| 10> %output
| 11>        print[P_BondOrder_M] 1
| 12>        print[P_Mayer] 1
| 13>        print[P_basis] 2
| 14> end
| 15> %pal
| 16>     nprocs 4
| 17> end
| 18> ! CPCM(chloroform)
| 19> *xyz 0 1
| 20> C   -5.0234418400   0.2991997900   0.3423899600
| 21> C   -6.4308484400  -0.1370136400   0.0094722500
| 22> C   -6.9847601700   0.6122833400  -1.2084822400
| 23> H   -7.0950027100   0.0888144100   0.8611244100
| 24> H   -6.4694997300  -1.2175223000  -0.1671469000
| 25> C   -4.8510591200   1.7641728200   0.4439410500
| 26> C   -5.4498126400   2.5454699800  -0.7038783700
| 27> C   -6.8961790600   2.1182994500  -0.9891593000
| 28> H   -4.8475965600   2.3545012800  -1.6051776100
| 29> H   -5.3978651000   3.6197530200  -0.4978809300
| 30> H   -7.2804909500   2.6436508400  -1.8713654400
| 31> H   -7.5357727700   2.3877863000  -0.1350438400
| 32> O   -8.3226469500   0.1948606600  -1.5098073800
| 33> H   -6.3961666500   0.3379559200  -2.0952164300
| 34> C   -4.0284347200  -0.6090240300   0.4792191600
| 35> C   -4.2576169500   2.3651915300   1.4816043000
| 36> H   -3.8554685500   1.7929420700   2.3129718100
| 37> H   -4.1707987100   3.4482814200   1.5260510400
| 38> C   -2.6295845000  -0.3230259800   0.6994567800
| 39> H   -4.3137878200  -1.6544725100   0.3702634300
| 40> C   -1.6490928100  -1.2280763900   0.9071876700
| 41> H   -2.3509795300   0.7281579000   0.6821908900
| 42> C   -1.8359981500  -2.7209154000   1.0086633100
| 43> C   -0.8995339000  -3.4820338300   0.0511036500
| 44> H   -2.8722681500  -3.0229176700   0.8338766300
| 45> H   -1.5888586500  -3.0206767600   2.0398148900
| 46> C    0.5648375200  -3.0387397800   0.1772838800
| 47> H   -1.2439936600  -3.3333007300  -0.9800420400
| 48> H   -0.9758207500  -4.5575472500   0.2529181800
| 49> C    0.7173819300  -1.5197835000   0.0176997700
| 50> H    1.1644561000  -3.5794506000  -0.5623584900
| 51> H    0.9453168700  -3.3238984700   1.1697860500
| 52> C   -0.2111723000  -0.8426292100   1.0749196800
| 53> H    0.1135046500  -1.2712565000   2.0413310500
| 54> C    0.2182285500   0.6215765500   1.0682900500
| 55> H   -8.8773439500   0.4253716200  -0.7525572100
| 56> C    1.7476881700   0.5500573800   0.8350484600
| 57> H   -0.0472898900   1.1316437500   2.0003073200
| 58> H   -0.2688284300   1.1664038900   0.2518917800
| 59> C    2.0848880300  -0.9216597700   0.4505618500
| 60> H    2.3119497300   0.8561471500   1.7215711900
| 61> H    2.0530817500   1.2261777900   0.0277467700
| 62> H    2.3846754300  -1.4635142200   1.3626112000
| 63> C    3.2731747700  -0.9912383000  -0.5301444700
| 64> C    0.3492312100  -1.0743152600  -1.4038066000
| 65> H   -0.7145956400  -1.2295589500  -1.6079390500
| 66> H    0.9222729400  -1.6398617100  -2.1468997700
| 67> H    0.5598996300  -0.0116110000  -1.5601818200
| 68> H    3.0063419400  -0.4279183700  -1.4367781600
| 69> C    3.6506595900  -2.4244121400  -0.9349173400
| 70> C    4.4717076700  -0.3235990400   0.0895216300
| 71> C    5.0960304600   0.7480028300  -0.3969193300
| 72> H    4.8455343900  -0.7842453500   1.0097806300
| 73> H    4.7091248500   1.2076626200  -1.3102839000
| 74> C    6.2868083200   1.4163993600   0.2305367800
| 75> C    5.9428679500   2.8681114400   0.5964266500
| 76> C    7.5608605900   1.3298972600  -0.6517448900
| 77> H    6.5196456700   0.8790893000   1.1622832200
| 78> H    8.3466636800   1.8683256900  -0.0994144000
| 79> C    7.4073238700   2.0007590200  -2.0196268000
| 80> C    8.0131371000  -0.1216144200  -0.8203267900
| 81> H    5.1436774100   2.8947811500   1.3446599300
| 82> H    5.5949553900   3.4287484600  -0.2780708200
| 83> H    6.8176195400   3.3863454000   1.0068309700
| 84> H    8.3585197000   1.9703130300  -2.5624787500
| 85> H    7.1066600700   3.0499803700  -1.9358102500
| 86> H    6.6622600600   1.4805146800  -2.6328855600
| 87> H    7.2688725600  -0.6949638200  -1.3857092700
| 88> H    8.1465202400  -0.6123143000   0.1507893600
| 89> H    8.9636553900  -0.1732172300  -1.3630123900
| 90> H    4.5779135100  -2.4208504600  -1.5180276600
| 91> H    2.8728804400  -2.8908588500  -1.5447503800
| 92> H    3.8097588100  -3.0497900100  -0.0479075500
| 93> *
| 94> %eprnmr
| 95>  Nuclei = all H { ssfc }
| 96>  SpinSpinRThresh 8.0
| 97> end
| 98> 
| 99>                          ****END OF INPUT****
================================================================================

                       ****************************
                       * Single Point Calculation *
                       ****************************

---------------------------------
CARTESIAN COORDINATES (ANGSTROEM)
---------------------------------
  C     -5.023442    0.299200    0.342390
  C     -6.430848   -0.137014    0.009472
  C     -6.984760    0.612283   -1.208482
  H     -7.095003    0.088814    0.861124
  H     -6.469500   -1.217522   -0.167147
  C     -4.851059    1.764173    0.443941
  C     -5.449813    2.545470   -0.703878
  C     -6.896179    2.118299   -0.989159
  H     -4.847597    2.354501   -1.605178
  H     -5.397865    3.619753   -0.497881
  H     -7.280491    2.643651   -1.871365
  H     -7.535773    2.387786   -0.135044
  O     -8.322647    0.194861   -1.509807
  H     -6.396167    0.337956   -2.095216
  C     -4.028435   -0.609024    0.479219
  C     -4.257617    2.365192    1.481604
  H     -3.855469    1.792942    2.312972
  H     -4.170799    3.448281    1.526051
  C     -2.629584   -0.323026    0.699457
  H     -4.313788   -1.654473    0.370263
  C     -1.649093   -1.228076    0.907188
  H     -2.350980    0.728158    0.682191
  C     -1.835998   -2.720915    1.008663
  C     -0.899534   -3.482034    0.051104
  H     -2.872268   -3.022918    0.833877
  H     -1.588859   -3.020677    2.039815
  C      0.564838   -3.038740    0.177284
  H     -1.243994   -3.333301   -0.980042
  H     -0.975821   -4.557547    0.252918
  C      0.717382   -1.519783    0.017700
  H      1.164456   -3.579451   -0.562358
  H      0.945317   -3.323898    1.169786
  C     -0.211172   -0.842629    1.074920
  H      0.113505   -1.271256    2.041331
  C      0.218229    0.621577    1.068290
  H     -8.877344    0.425372   -0.752557
  C      1.747688    0.550057    0.835048
  H     -0.047290    1.131644    2.000307
  H     -0.268828    1.166404    0.251892
  C      2.084888   -0.921660    0.450562
  H      2.311950    0.856147    1.721571
  H      2.053082    1.226178    0.027747
  H      2.384675   -1.463514    1.362611
  C      3.273175   -0.991238   -0.530144
  C      0.349231   -1.074315   -1.403807
  H     -0.714596   -1.229559   -1.607939
  H      0.922273   -1.639862   -2.146900
  H      0.559900   -0.011611   -1.560182
  H      3.006342   -0.427918   -1.436778
  C      3.650660   -2.424412   -0.934917
  C      4.471708   -0.323599    0.089522
  C      5.096030    0.748003   -0.396919
  H      4.845534   -0.784245    1.009781
  H      4.709125    1.207663   -1.310284
  C      6.286808    1.416399    0.230537
  C      5.942868    2.868111    0.596427
  C      7.560861    1.329897   -0.651745
  H      6.519646    0.879089    1.162283
  H      8.346664    1.868326   -0.099414
  C      7.407324    2.000759   -2.019627
  C      8.013137   -0.121614   -0.820327
  H      5.143677    2.894781    1.344660
  H      5.594955    3.428748   -0.278071
  H      6.817620    3.386345    1.006831
  H      8.358520    1.970313   -2.562479
  H      7.106660    3.049980   -1.935810
  H      6.662260    1.480515   -2.632886
  H      7.268873   -0.694964   -1.385709
  H      8.146520   -0.612314    0.150789
  H      8.963655   -0.173217   -1.363012
  H      4.577914   -2.420850   -1.518028
  H      2.872880   -2.890859   -1.544750
  H      3.809759   -3.049790   -0.047908

----------------------------
CARTESIAN COORDINATES (A.U.)
----------------------------
  NO LB      ZA    FRAG     MASS         X           Y           Z
   0 C     6.0000    0    12.011   -9.492929    0.565406    0.647023
   1 C     6.0000    0    12.011  -12.152542   -0.258918    0.017900
   2 C     6.0000    0    12.011  -13.199284    1.157048   -2.283700
   3 H     1.0000    0     1.008  -13.407612    0.167835    1.627289
   4 H     1.0000    0     1.008  -12.225583   -2.300784   -0.315862
   5 C     6.0000    0    12.011   -9.167173    3.333803    0.838927
   6 C     6.0000    0    12.011  -10.298653    4.810241   -1.330137
   7 C     6.0000    0    12.011  -13.031890    4.003006   -1.869240
   8 H     1.0000    0     1.008   -9.160630    4.449363   -3.033346
   9 H     1.0000    0     1.008  -10.200487    6.840342   -0.940859
  10 H     1.0000    0     1.008  -13.758134    4.995776   -3.536368
  11 H     1.0000    0     1.008  -14.240547    4.512262   -0.255196
  12 O     8.0000    0    15.999  -15.727523    0.368233   -2.853122
  13 H     1.0000    0     1.008  -12.087003    0.638644   -3.959385
  14 C     6.0000    0    12.011   -7.612638   -1.150889    0.905593
  15 C     6.0000    0    12.011   -8.045730    4.469564    2.799826
  16 H     1.0000    0     1.008   -7.285780    3.388169    4.370883
  17 H     1.0000    0     1.008   -7.881667    6.516308    2.883819
  18 C     6.0000    0    12.011   -4.969195   -0.610431    1.321782
  19 H     1.0000    0     1.008   -8.151878   -3.126500    0.699696
  20 C     6.0000    0    12.011   -3.116334   -2.320728    1.714336
  21 H     1.0000    0     1.008   -4.442707    1.376019    1.289154
  22 C     6.0000    0    12.011   -3.469534   -5.141785    1.906097
  23 C     6.0000    0    12.011   -1.699873   -6.580090    0.096572
  24 H     1.0000    0     1.008   -5.427800   -5.712487    1.575798
  25 H     1.0000    0     1.008   -3.002508   -5.708252    3.854692
  26 C     6.0000    0    12.011    1.067388   -5.742386    0.335018
  27 H     1.0000    0     1.008   -2.350807   -6.299026   -1.852011
  28 H     1.0000    0     1.008   -1.844034   -8.612516    0.477946
  29 C     6.0000    0    12.011    1.355655   -2.871975    0.033448
  30 H     1.0000    0     1.008    2.200503   -6.764181   -1.062704
  31 H     1.0000    0     1.008    1.786390   -6.281258    2.210575
  32 C     6.0000    0    12.011   -0.399058   -1.592338    2.031304
  33 H     1.0000    0     1.008    0.214493   -2.402327    3.857557
  34 C     6.0000    0    12.011    0.412392    1.174609    2.018776
  35 H     1.0000    0     1.008  -16.775749    0.803836   -1.422127
  36 C     6.0000    0    12.011    3.302652    1.039458    1.578013
  37 H     1.0000    0     1.008   -0.089365    2.138497    3.780033
  38 H     1.0000    0     1.008   -0.508012    2.204184    0.476006
  39 C     6.0000    0    12.011    3.939867   -1.741685    0.851439
  40 H     1.0000    0     1.008    4.368952    1.617884    3.253298
  41 H     1.0000    0     1.008    3.879762    2.317140    0.052434
  42 H     1.0000    0     1.008    4.506383   -2.765641    2.574962
  43 C     6.0000    0    12.011    6.185404   -1.873169   -1.001828
  44 C     6.0000    0    12.011    0.659951   -2.030162   -2.652810
  45 H     1.0000    0     1.008   -1.350390   -2.323530   -3.038564
  46 H     1.0000    0     1.008    1.742843   -3.098890   -4.057053
  47 H     1.0000    0     1.008    1.058057   -0.021942   -2.948316
  48 H     1.0000    0     1.008    5.681163   -0.808649   -2.715117
  49 C     6.0000    0    12.011    6.898747   -4.581475   -1.766738
  50 C     6.0000    0    12.011    8.450303   -0.611514    0.169171
  51 C     6.0000    0    12.011    9.630102    1.413520   -0.750069
  52 H     1.0000    0     1.008    9.156733   -1.482009    1.908209
  53 H     1.0000    0     1.008    8.898956    2.282152   -2.476078
  54 C     6.0000    0    12.011   11.880346    2.676607    0.435651
  55 C     6.0000    0    12.011   11.230393    5.419945    1.127083
  56 C     6.0000    0    12.011   14.287956    2.513142   -1.231619
  57 H     1.0000    0     1.008   12.320345    1.661238    2.196397
  58 H     1.0000    0     1.008   15.772908    3.530624   -0.187866
  59 C     6.0000    0    12.011   13.997813    3.780887   -3.816542
  60 C     6.0000    0    12.011   15.142635   -0.229818   -1.550193
  61 H     1.0000    0     1.008    9.720142    5.470344    2.541039
  62 H     1.0000    0     1.008   10.572933    6.479396   -0.525478
  63 H     1.0000    0     1.008   12.883434    6.399265    1.902635
  64 H     1.0000    0     1.008   15.795313    3.723352   -4.842383
  65 H     1.0000    0     1.008   13.429641    5.763628   -3.658151
  66 H     1.0000    0     1.008   12.589847    2.797767   -4.975433
  67 H     1.0000    0     1.008   13.736178   -1.313291   -2.618611
  68 H     1.0000    0     1.008   15.394692   -1.157106    0.284951
  69 H     1.0000    0     1.008   16.938854   -0.327333   -2.575720
  70 H     1.0000    0     1.008    8.651003   -4.574744   -2.868657
  71 H     1.0000    0     1.008    5.428957   -5.462932   -2.919155
  72 H     1.0000    0     1.008    7.199401   -5.763268   -0.090532

--------------------------------
INTERNAL COORDINATES (ANGSTROEM)
--------------------------------
 C      0   0   0     0.000000000000     0.00000000     0.00000000
 C      1   0   0     1.510599118187     0.00000000     0.00000000
 C      2   1   0     1.533517951828   111.74458098     0.00000000
 H      2   1   3     1.103363314670   109.36609705   241.47555934
 H      2   1   3     1.095530561281   110.68378790   122.89806712
 C      1   2   3     1.478571744848   114.19681046    50.46548430
 C      6   1   2     1.512091416174   114.43405189   312.08157342
 C      3   2   1     1.524478169289   110.33111512   305.02087585
 H      7   6   1     1.100669601386   108.37851059   289.94867690
 H      7   6   1     1.095087915297   110.20046737   172.74435927
 H      8   3   2     1.096347292250   109.70910861   179.15036336
 H      8   3   2     1.100552813456   108.64983135   296.60787339
 O      3   2   1     1.433519992840   111.20917754   180.30720556
 H      3   2   1     1.099088435416   108.98865256    65.11355207
 C      1   2   3     1.354116651562   120.87683607   232.68483930
 C      6   1   2     1.337961927450   123.37052338   129.88049171
 H     16   6   1     1.086445910654   121.40216937     0.67385536
 H     16   6   1     1.087472587845   120.96421129   181.33244716
 C     15   1   2     1.444673468941   126.44990871   175.24804708
 H     15   1   2     1.089155758886   116.17888526   357.93830610
 C     19  15   1     1.350419313199   126.42768960   176.18907578
 H     19  15   1     1.087615000742   115.90958305   355.43081430
 C     21  19  15     1.507912206135   125.72224876   357.20050970
 C     23  21  19     1.540515192549   111.83599682   127.59027896
 H     23  21  19     1.093440106952   112.34270435     3.46301499
 H     23  21  19     1.101911242499   107.72764243   246.25924492
 C     24  23  21     1.535192079487   112.71167210    50.71480367
 H     24  23  21     1.097285512207   109.04554189   288.60191753
 H     24  23  21     1.096940246596   109.13421755   172.64208524
 C     27  24  23     1.534915328524   111.83934471   306.35029681
 H     27  24  23     1.094980122123   108.91929118   182.85088833
 H     27  24  23     1.100518319572   109.21312869    66.34881743
 C     21  19  15     1.498105119418   122.79829605   177.56789738
 H     33  21  19     1.105932824207   106.25442568   124.38183428
 C     33  21  19     1.525885824560   121.09834418     2.21445852
 H     13   3   2     0.966567061540   107.54626235    62.71527181
 C     35  33  21     1.548794163275   103.54691146   196.51543665
 H     35  33  21     1.095136878237   112.02451143    74.56351766
 H     35  33  21     1.095704096660   110.81095640   314.96693338
 C     30  27  24     1.554089608172   116.06315342   166.24588923
 H     37  35  33     1.094533967586   111.97499494   249.05680333
 H     37  35  33     1.096421482004   110.94479097   130.49347261
 H     40  30  27     1.102412240053   106.29321129   320.85031450
 C     40  30  27     1.542287727496   118.91379619    81.63537942
 C     30  27  24     1.534489252304   111.08521150   294.19762522
 H     45  30  27     1.094302621403   111.39884819    66.32241689
 H     45  30  27     1.095630900773   110.66863931   306.17618051
 H     45  30  27     1.094611683127   111.59280646   186.29104360
 H     44  40  30     1.100233498192   108.30234886    61.40944587
 C     44  40  30     1.536334312993   113.51101870   300.64034131
 C     44  40  30     1.505393426771   109.36970280   178.60635813
 C     51  44  40     1.332191548339   125.41933233   241.67675871
 H     51  44  40     1.094905505778   115.54451459    62.31788092
 H     52  51  44     1.093260221230   118.51642711     1.31473833
 C     52  51  44     1.502799721573   125.21530755   179.56709758
 C     55  52  51     1.536111434207   110.02113353   241.10961279
 C     55  52  51     1.552131677795   112.84812306   115.44749294
 H     55  52  51     1.100484784350   107.69778170   358.45761601
 H     57  55  52     1.101117904981   105.86687850   178.78918649
 C     57  55  52     1.531251104530   113.64476974    60.68628841
 C     57  55  52     1.529660111163   110.99147267   295.68253292
 H     56  55  52     1.095111790621   110.43594038    62.85488125
 H     56  55  52     1.095492055031   111.38394948   303.44324028
 H     56  55  52     1.096443563244   110.92868027   183.01160545
 H     60  57  55     1.095622519363   110.08327819   175.86364059
 H     60  57  55     1.094664047085   112.27590507    55.96676476
 H     60  57  55     1.096294012111   111.09711108   294.74943320
 H     61  57  55     1.096501978417   110.62875644    65.58801270
 H     61  57  55     1.096195243129   111.29149792   305.79710892
 H     61  57  55     1.095744281332   110.83970117   185.34729358
 H     50  44  40     1.095367592642   110.19498112   187.69360891
 H     50  44  40     1.092890331241   111.73386080    67.79102702
 H     50  44  40     1.096903099479   110.75874392   307.17533060

---------------------------
INTERNAL COORDINATES (A.U.)
---------------------------
 C      0   0   0     0.000000000000     0.00000000     0.00000000
 C      1   0   0     2.854618631517     0.00000000     0.00000000
 C      2   1   0     2.897928950407   111.74458098     0.00000000
 H      2   1   3     2.085054490941   109.36609705   241.47555934
 H      2   1   3     2.070252732162   110.68378790   122.89806712
 C      1   2   3     2.794095667116   114.19681046    50.46548430
 C      6   1   2     2.857438666021   114.43405189   312.08157342
 C      3   2   1     2.880846237098   110.33111512   305.02087585
 H      7   6   1     2.079964110551   108.37851059   289.94867690
 H      7   6   1     2.069416252479   110.20046737   172.74435927
 H      8   3   2     2.071796130019   109.70910861   179.15036336
 H      8   3   2     2.079743413348   108.64983135   296.60787339
 O      3   2   1     2.708960193969   111.20917754   180.30720556
 H      3   2   1     2.076976139896   108.98865256    65.11355207
 C      1   2   3     2.558909624836   120.87683607   232.68483930
 C      6   1   2     2.528381620493   123.37052338   129.88049171
 H     16   6   1     2.053085230454   121.40216937     0.67385536
 H     16   6   1     2.055025369173   120.96421129   181.33244716
 C     15   1   2     2.730037209240   126.44990871   175.24804708
 H     15   1   2     2.058206101477   116.17888526   357.93830610
 C     19  15   1     2.551922667904   126.42768960   176.18907578
 H     19  15   1     2.055294490546   115.90958305   355.43081430
 C     21  19  15     2.849541103593   125.72224876   357.20050970
 C     23  21  19     2.911151819062   111.83599682   127.59027896
 H     23  21  19     2.066302345984   112.34270435     3.46301499
 H     23  21  19     2.082310472212   107.72764243   246.25924492
 C     24  23  21     2.901092593196   112.71167210    50.71480367
 H     24  23  21     2.073569108792   109.04554189   288.60191753
 H     24  23  21     2.072916651343   109.13421755   172.64208524
 C     27  24  23     2.900569609668   111.83934471   306.35029681
 H     27  24  23     2.069212552901   108.91929118   182.85088833
 H     27  24  23     2.079678229354   109.21312869    66.34881743
 C     21  19  15     2.831008395526   122.79829605   177.56789738
 H     33  21  19     2.089910160266   106.25442568   124.38183428
 C     33  21  19     2.883506320050   121.09834418     2.21445852
 H     13   3   2     1.826547036380   107.54626235    62.71527181
 C     35  33  21     2.926796806405   103.54691146   196.51543665
 H     35  33  21     2.069508779025   112.02451143    74.56351766
 H     35  33  21     2.070580666503   110.81095640   314.96693338
 C     30  27  24     2.936803747018   116.06315342   166.24588923
 H     37  35  33     2.068369443011   111.97499494   249.05680333
 H     37  35  33     2.071936328336   110.94479097   130.49347261
 H     40  30  27     2.083257220383   106.29321129   320.85031450
 C     40  30  27     2.914501424675   118.91379619    81.63537942
 C     30  27  24     2.899764442300   111.08521150   294.19762522
 H     45  30  27     2.067932262083   111.39884819    66.32241689
 H     45  30  27     2.070442346323   110.66863931   306.17618051
 H     45  30  27     2.068516304100   111.59280646   186.29104360
 H     44  40  30     2.079139994949   108.30234886    61.40944587
 C     44  40  30     2.903251101702   113.51101870   300.64034131
 C     44  40  30     2.844781300402   109.36970280   178.60635813
 C     51  44  40     2.517477184286   125.41933233   241.67675871
 H     51  44  40     2.069071548443   115.54451459    62.31788092
 H     52  51  44     2.065962411235   118.51642711     1.31473833
 C     52  51  44     2.839879907905   125.21530755   179.56709758
 C     55  52  51     2.902829921837   110.02113353   241.10961279
 C     55  52  51     2.933103794816   112.84812306   115.44749294
 H     55  52  51     2.079614856968   107.69778170   358.45761601
 H     57  55  52     2.080811281571   105.86687850   178.78918649
 C     57  55  52     2.893645229826   113.64476974    60.68628841
 C     57  55  52     2.890638688081   110.99147267   295.68253292
 H     56  55  52     2.069461370301   110.43594038    62.85488125
 H     56  55  52     2.070179965896   111.38394948   303.44324028
 H     56  55  52     2.071978055832   110.92868027   183.01160545
 H     60  57  55     2.070426507753   110.08327819   175.86364059
 H     60  57  55     2.068615257640   112.27590507    55.96676476
 H     60  57  55     2.071695445148   111.09711108   294.74943320
 H     61  57  55     2.072088444511   110.62875644    65.58801270
 H     61  57  55     2.071508798821   111.29149792   305.79710892
 H     61  57  55     2.070656604528   110.83970117   185.34729358
 H     50  44  40     2.069944766066   110.19498112   187.69360891
 H     50  44  40     2.065263420456   111.73386080    67.79102702
 H     50  44  40     2.072846453464   110.75874392   307.17533060

---------------------
BASIS SET INFORMATION
---------------------
There are 3 groups of distinct atoms

 Group   1 Type C   : 7s4p contracted to 4s3p pattern {4111/211}
 Group   2 Type H   : 5s contracted to 3s pattern {311}
 Group   3 Type O   : 7s4p contracted to 4s3p pattern {4111/211}

Atom   0C    basis set group =>   1
Atom   1C    basis set group =>   1
Atom   2C    basis set group =>   1
Atom   3H    basis set group =>   2
Atom   4H    basis set group =>   2
Atom   5C    basis set group =>   1
Atom   6C    basis set group =>   1
Atom   7C    basis set group =>   1
Atom   8H    basis set group =>   2
Atom   9H    basis set group =>   2
Atom  10H    basis set group =>   2
Atom  11H    basis set group =>   2
Atom  12O    basis set group =>   3
Atom  13H    basis set group =>   2
Atom  14C    basis set group =>   1
Atom  15C    basis set group =>   1
Atom  16H    basis set group =>   2
Atom  17H    basis set group =>   2
Atom  18C    basis set group =>   1
Atom  19H    basis set group =>   2
Atom  20C    basis set group =>   1
Atom  21H    basis set group =>   2
Atom  22C    basis set group =>   1
Atom  23C    basis set group =>   1
Atom  24H    basis set group =>   2
Atom  25H    basis set group =>   2
Atom  26C    basis set group =>   1
Atom  27H    basis set group =>   2
Atom  28H    basis set group =>   2
Atom  29C    basis set group =>   1
Atom  30H    basis set group =>   2
Atom  31H    basis set group =>   2
Atom  32C    basis set group =>   1
Atom  33H    basis set group =>   2
Atom  34C    basis set group =>   1
Atom  35H    basis set group =>   2
Atom  36C    basis set group =>   1
Atom  37H    basis set group =>   2
Atom  38H    basis set group =>   2
Atom  39C    basis set group =>   1
Atom  40H    basis set group =>   2
Atom  41H    basis set group =>   2
Atom  42H    basis set group =>   2
Atom  43C    basis set group =>   1
Atom  44C    basis set group =>   1
Atom  45H    basis set group =>   2
Atom  46H    basis set group =>   2
Atom  47H    basis set group =>   2
Atom  48H    basis set group =>   2
Atom  49C    basis set group =>   1
Atom  50C    basis set group =>   1
Atom  51C    basis set group =>   1
Atom  52H    basis set group =>   2
Atom  53H    basis set group =>   2
Atom  54C    basis set group =>   1
Atom  55C    basis set group =>   1
Atom  56C    basis set group =>   1
Atom  57H    basis set group =>   2
Atom  58H    basis set group =>   2
Atom  59C    basis set group =>   1
Atom  60C    basis set group =>   1
Atom  61H    basis set group =>   2
Atom  62H    basis set group =>   2
Atom  63H    basis set group =>   2
Atom  64H    basis set group =>   2
Atom  65H    basis set group =>   2
Atom  66H    basis set group =>   2
Atom  67H    basis set group =>   2
Atom  68H    basis set group =>   2
Atom  69H    basis set group =>   2
Atom  70H    basis set group =>   2
Atom  71H    basis set group =>   2
Atom  72H    basis set group =>   2

-------------------------
BASIS SET IN INPUT FORMAT
-------------------------

 # Basis set for element : H 
 NewGTO H 
 S 3 
   1    1357.7500000000      0.0012928364
   2      54.3100000000      0.0588280685
   3       4.3448000000      0.9761499708
 S 1 
   1       0.6604910000      1.0000000000
 S 1 
   1       0.1366870000      1.0000000000
  end;

 # Basis set for element : C 
 NewGTO C 
 S 4 
   1  139534.0000000000      0.0001655246
   2    5581.3600000000      0.0074486101
   3     446.5090000000      0.1285821065
   4      67.4620000000      0.9218029311
 S 1 
   1      15.0674000000      1.0000000000
 S 1 
   1       3.9387600000      1.0000000000
 S 1 
   1       0.2999150000      1.0000000000
 P 2 
   1      28.3900000000      0.0816325586
   2       4.3676900000      0.9660360576
 P 1 
   1       0.8698170000      1.0000000000
 P 1 
   1       0.1889340000      1.0000000000
  end;

 # Basis set for element : O 
 NewGTO O 
 S 4 
   1  253789.0000000000      0.0001641076
   2   10151.6000000000      0.0074010921
   3     812.1250000000      0.1277711901
   4     122.6930000000      0.9223372164
 S 1 
   1      27.5608000000      1.0000000000
 S 1 
   1       7.3172600000      1.0000000000
 S 1 
   1       0.5792400000      1.0000000000
 P 2 
   1      53.4157000000      0.0793786106
   2       8.2177900000      0.9670506337
 P 1 
   1       1.6754400000      1.0000000000
 P 1 
   1       0.3506720000      1.0000000000
  end;

---------------------------------
AUXILIARY/J BASIS SET INFORMATION
---------------------------------
There are 3 groups of distinct atoms

 Group   1 Type C   : 12s5p4d2f1g contracted to 6s4p3d1f1g pattern {711111/2111/211/2/1}
 Group   2 Type H   : 5s2p1d contracted to 3s1p1d pattern {311/2/1}
 Group   3 Type O   : 12s5p4d2f1g contracted to 6s4p3d1f1g pattern {711111/2111/211/2/1}

Atom   0C    basis set group =>   1
Atom   1C    basis set group =>   1
Atom   2C    basis set group =>   1
Atom   3H    basis set group =>   2
Atom   4H    basis set group =>   2
Atom   5C    basis set group =>   1
Atom   6C    basis set group =>   1
Atom   7C    basis set group =>   1
Atom   8H    basis set group =>   2
Atom   9H    basis set group =>   2
Atom  10H    basis set group =>   2
Atom  11H    basis set group =>   2
Atom  12O    basis set group =>   3
Atom  13H    basis set group =>   2
Atom  14C    basis set group =>   1
Atom  15C    basis set group =>   1
Atom  16H    basis set group =>   2
Atom  17H    basis set group =>   2
Atom  18C    basis set group =>   1
Atom  19H    basis set group =>   2
Atom  20C    basis set group =>   1
Atom  21H    basis set group =>   2
Atom  22C    basis set group =>   1
Atom  23C    basis set group =>   1
Atom  24H    basis set group =>   2
Atom  25H    basis set group =>   2
Atom  26C    basis set group =>   1
Atom  27H    basis set group =>   2
Atom  28H    basis set group =>   2
Atom  29C    basis set group =>   1
Atom  30H    basis set group =>   2
Atom  31H    basis set group =>   2
Atom  32C    basis set group =>   1
Atom  33H    basis set group =>   2
Atom  34C    basis set group =>   1
Atom  35H    basis set group =>   2
Atom  36C    basis set group =>   1
Atom  37H    basis set group =>   2
Atom  38H    basis set group =>   2
Atom  39C    basis set group =>   1
Atom  40H    basis set group =>   2
Atom  41H    basis set group =>   2
Atom  42H    basis set group =>   2
Atom  43C    basis set group =>   1
Atom  44C    basis set group =>   1
Atom  45H    basis set group =>   2
Atom  46H    basis set group =>   2
Atom  47H    basis set group =>   2
Atom  48H    basis set group =>   2
Atom  49C    basis set group =>   1
Atom  50C    basis set group =>   1
Atom  51C    basis set group =>   1
Atom  52H    basis set group =>   2
Atom  53H    basis set group =>   2
Atom  54C    basis set group =>   1
Atom  55C    basis set group =>   1
Atom  56C    basis set group =>   1
Atom  57H    basis set group =>   2
Atom  58H    basis set group =>   2
Atom  59C    basis set group =>   1
Atom  60C    basis set group =>   1
Atom  61H    basis set group =>   2
Atom  62H    basis set group =>   2
Atom  63H    basis set group =>   2
Atom  64H    basis set group =>   2
Atom  65H    basis set group =>   2
Atom  66H    basis set group =>   2
Atom  67H    basis set group =>   2
Atom  68H    basis set group =>   2
Atom  69H    basis set group =>   2
Atom  70H    basis set group =>   2
Atom  71H    basis set group =>   2
Atom  72H    basis set group =>   2

-------------------------------------
AUXILIARY/J BASIS SET IN INPUT FORMAT
-------------------------------------

 # Auxiliary/J basis set for element : H 
 NewAuxJGTO H 
 S 3 
   1      15.6752927000      0.1007184237
   2       3.6063578000      0.3404257499
   3       1.2080016000      0.6491996172
 S 1 
   1       0.4726794000      1.0000000000
 S 1 
   1       0.2018100000      1.0000000000
 P 2 
   1       2.0281365000      0.5596620919
   2       0.5358730000      0.5596620919
 D 1 
   1       2.2165124000      1.0000000000
  end;

 # Auxiliary/J basis set for element : C 
 NewAuxJGTO C 
 S 7 
   1    1861.0916331000      0.0134602335
   2     642.9939764000      0.0299160374
   3     235.1105725000      0.1008649584
   4      90.7028894000      0.2370970548
   5      36.7794552000      0.3924037254
   6      15.6046273000      0.3195862154
   7       6.8907294000      0.0530104441
 S 1 
   1       3.1478850000     -1.0000000000
 S 1 
   1       1.4777287000      1.0000000000
 S 1 
   1       0.7076466000      1.0000000000
 S 1 
   1       0.3430122000      1.0000000000
 S 1 
   1       0.1669453000      1.0000000000
 P 2 
   1      13.5472892000     -0.6769313712
   2       5.4669419000     -0.3779500978
 P 1 
   1       2.1751721000      1.0000000000
 P 1 
   1       0.8582194000      1.0000000000
 P 1 
   1       0.3376720000      1.0000000000
 D 2 
   1       5.9287253000     -0.3533329857
   2       1.9809209000     -0.7456525731
 D 1 
   1       0.8055417000     -1.0000000000
 D 1 
   1       0.3531244000     -1.0000000000
 F 2 
   1       1.6755626000      0.6311076882
   2       0.5997536000      0.4968166032
 G 1 
   1       1.0024600000     -1.0000000000
  end;

 # Auxiliary/J basis set for element : O 
 NewAuxJGTO O 
 S 7 
   1    2876.8216605000      0.0168151159
   2    1004.7443032000      0.0340137548
   3     369.7579954000      0.1194951309
   4     142.9442404000      0.2664627624
   5      57.8366425000      0.4202764046
   6      24.3864983000      0.2765077335
   7      10.6622662000      0.0057008815
 S 1 
   1       4.8070437000     -1.0000000000
 S 1 
   1       2.2210770000      1.0000000000
 S 1 
   1       1.0447795000      1.0000000000
 S 1 
   1       0.4968425000      1.0000000000
 S 1 
   1       0.2371384000      1.0000000000
 P 2 
   1      64.2613382000     -0.2731534179
   2      16.3006076000     -0.8168011598
 P 1 
   1       4.3550542000      1.0000000000
 P 1 
   1       1.2019554000      1.0000000000
 P 1 
   1       0.3354196000      1.0000000000
 D 2 
   1       9.2146611000     -0.4661230638
   2       2.8435251000     -0.6600908911
 D 1 
   1       0.9955759000     -1.0000000000
 D 1 
   1       0.3649441000     -1.0000000000
 F 2 
   1       2.6420115000      0.5931563945
   2       0.7345613000      0.5931563945
 G 1 
   1       1.3931000000     -1.0000000000
  end;



           ************************************************************
           *        Program running with 4 parallel MPI-processes     *
           *              working on a common directory               *
           ************************************************************
------------------------------------------------------------------------------
                           ORCA GTO INTEGRAL CALCULATION
                           -- RI-GTO INTEGRALS CHOSEN --
------------------------------------------------------------------------------
------------------------------------------------------------------------------
                   ___                                                        
                  /   \      - P O W E R E D   B Y -                         
                 /     \                                                     
                 |  |  |   _    _      __       _____    __    __             
                 |  |  |  | |  | |    /  \     |  _  \  |  |  /  |          
                  \  \/   | |  | |   /    \    | | | |  |  | /  /          
                 / \  \   | |__| |  /  /\  \   | |_| |  |  |/  /          
                |  |  |   |  __  | /  /__\  \  |    /   |      \           
                |  |  |   | |  | | |   __   |  |    \   |  |\   \          
                \     /   | |  | | |  |  |  |  | |\  \  |  | \   \       
                 \___/    |_|  |_| |__|  |__|  |_| \__\ |__|  \__/        
                                                                              
                      - O R C A' S   B I G   F R I E N D -                    
                                      &                                       
                       - I N T E G R A L  F E E D E R -                       
                                                                              
 v1 FN, 2020, v2 2021                                                         
------------------------------------------------------------------------------


Reading SHARK input file inpJ.SHARKINP.tmp ... ok
----------------------
SHARK INTEGRAL PACKAGE
----------------------

Number of atoms                             ...     73
Number of basis functions                   ...    509
Number of shells                            ...    335
Maximum angular momentum                    ...      1
Integral batch strategy                     ... SHARK/LIBINT Hybrid
RI-J (if used) integral strategy            ... SPLIT-RIJ (Revised 2003 algorithm where possible)
Printlevel                                  ...      1
Contraction scheme used                     ... SEGMENTED contraction
Coulomb Range Separation                    ... NOT USED
Exchange Range Separation                   ... NOT USED
Finite Nucleus Model                        ... NOT USED
Auxiliary Coulomb fitting basis             ... AVAILABLE
   # of basis functions in Aux-J            ...   1905
   # of shells in Aux-J                     ...    655
   Maximum angular momentum in Aux-J        ...      4
Auxiliary J/K fitting basis                 ... NOT available
Auxiliary Correlation fitting basis         ... NOT available
Auxiliary 'external' fitting basis          ... NOT available
Integral threshold                          ...     3.000000e-11
Primitive cut-off                           ...     1.000000e-12
Primitive pair pre-selection threshold      ...     1.000000e-12

Calculating pre-screening integrals         ... done (  0.0 sec) Dimension = 335
Organizing shell pair data                  ... done (  0.1 sec)
Shell pair information
Total number of shell pairs                 ...     56280
Shell pairs after pre-screening             ...     21563
Total number of primitive shell pairs       ...    145865
Primitive shell pairs kept                  ...     37094
          la=0 lb=0:  10859 shell pairs
          la=1 lb=0:   8865 shell pairs
          la=1 lb=1:   1839 shell pairs

Calculating one electron integrals          ... done (  0.0 sec)
Calculating RI/J V-Matrix + Cholesky decomp.... done (  0.2 sec)
Calculating Nuclear repulsion               ... done (  0.0 sec) ENN=   2758.696134257779 Eh

SHARK setup successfully completed in   0.4 seconds

Maximum memory used throughout the entire GTOINT-calculation: 46.1 MB


           ************************************************************
           *        Program running with 4 parallel MPI-processes     *
           *              working on a common directory               *
           ************************************************************
-------------------------------------------------------------------------------
                                 ORCA SCF
-------------------------------------------------------------------------------

------------
SCF SETTINGS
------------
Hamiltonian:
 Density Functional     Method          .... DFT(GTOs)
 Exchange Functional    Exchange        .... PBE
   PBE kappa parameter   XKappa         ....  0.804000
   PBE mue parameter    XMuePBE         ....  0.219520
 Correlation Functional Correlation     .... PBE
   PBE beta parameter  CBetaPBE         ....  0.066725
 LDA part of GGA corr.  LDAOpt          .... PW91-LDA
 Gradients option       PostSCFGGA      .... off
 Hybrid DFT is turned on
   Fraction HF Exchange ScalHFX         ....  0.250000
   Scaling of DF-GGA-X  ScalDFX         ....  0.750000
   Scaling of DF-GGA-C  ScalDFC         ....  1.000000
   Scaling of DF-LDA-C  ScalLDAC        ....  1.000000
   Perturbative correction              ....  0.000000
   Density functional embedding theory  .... OFF
   NL short-range parameter             ....  6.900000
 RI-approximation to the Coulomb term is turned on
   Number of AuxJ basis functions       .... 1905
   RIJ-COSX (HFX calculated with COS-X)).... on


General Settings:
 Integral files         IntName         .... inpJ
 Hartree-Fock type      HFTyp           .... RHF
 Total Charge           Charge          ....    0
 Multiplicity           Mult            ....    1
 Number of Electrons    NEL             ....  220
 Basis Dimension        Dim             ....  509
 Nuclear Repulsion      ENuc            ....   2758.6961342578 Eh

Convergence Acceleration:
 DIIS                   CNVDIIS         .... on
   Start iteration      DIISMaxIt       ....    12
   Startup error        DIISStart       ....  0.200000
   # of expansion vecs  DIISMaxEq       ....     5
   Bias factor          DIISBfac        ....   1.050
   Max. coefficient     DIISMaxC        ....  10.000
 Trust-Rad. Augm. Hess. CNVTRAH         .... auto
   Auto Start mean grad. ratio tolernc. ....  1.125000
   Auto Start start iteration           ....    20
   Auto Start num. interpolation iter.  ....    10
   Max. Number of Micro iterations      ....    16
   Max. Number of Macro iterations      .... Maxiter - #DIIS iter
   Number of Davidson start vectors     ....     2
   Converg. threshold I  (grad. norm)   ....   1.000e-04
   Converg. threshold II (energy diff.) ....   1.000e-07
   Grad. Scal. Fac. for Micro threshold ....   0.100
   Minimum threshold for Micro iter.    ....   0.010
   NR start threshold (gradient norm)   ....   0.001
   Initial trust radius                 ....   0.400
   Minimum AH scaling param. (alpha)    ....   1.000
   Maximum AH scaling param. (alpha)    .... 1000.000
   Orbital update algorithm             .... Taylor
   White noise on init. David. guess    .... on
   Maximum white noise                  ....   0.010
   Quad. conv. algorithm                .... NR
 SOSCF                  CNVSOSCF        .... off
 Level Shifting         CNVShift        .... on
   Level shift para.    LevelShift      ....    0.2500
   Turn off err/grad.   ShiftErr        ....    0.0010
 Zerner damping         CNVZerner       .... off
 Static damping         CNVDamp         .... on
   Fraction old density DampFac         ....    0.7000
   Max. Damping (<1)    DampMax         ....    0.9800
   Min. Damping (>=0)   DampMin         ....    0.0000
   Turn off err/grad.   DampErr         ....    0.1000
 Fernandez-Rico         CNVRico         .... off

SCF Procedure:
 Maximum # iterations   MaxIter         ....   125
 SCF integral mode      SCFMode         .... Direct
   Integral package                     .... SHARK and LIBINT hybrid scheme
 Reset frequency        DirectResetFreq ....    20
 Integral Threshold     Thresh          ....  3.000e-11 Eh
 Primitive CutOff       TCut            ....  1.000e-12 Eh

Convergence Tolerance:
 Convergence Check Mode ConvCheckMode   .... Total+1el-Energy
 Convergence forced     ConvForced      .... 0
 Energy Change          TolE            ....  1.000e-07 Eh
 1-El. energy change                    ....  1.000e-04 Eh
 DIIS Error             TolErr          ....  1.000e-07


Diagonalization of the overlap matrix:
Smallest eigenvalue                        ... 7.553e-03
Time for diagonalization                   ...    0.037 sec
Threshold for overlap eigenvalues          ... 1.000e-08
Number of eigenvalues below threshold      ... 0
Time for construction of square roots      ...    0.030 sec
Total time needed                          ...    0.068 sec

Time for model grid setup =    0.737 sec

------------------------------
INITIAL GUESS: MODEL POTENTIAL
------------------------------
Loading Hartree-Fock densities                     ... done
Calculating cut-offs                               ... done
Initializing the effective Hamiltonian             ... done
Setting up the integral package (SHARK)            ... done
Starting the Coulomb interaction                   ... done (   0.5 sec)
Reading the grid                                   ... done
Mapping shells                                     ... done
Starting the XC term evaluation                    ... done (   0.2 sec)
  promolecular density results
     # of electrons  =    219.986529426
     EX              =   -164.428545468
     EC              =     -7.321154660
     EX+EC           =   -171.749700127
Transforming the Hamiltonian                       ... done (   0.0 sec)
Diagonalizing the Hamiltonian                      ... done (   0.0 sec)
Back transforming the eigenvectors                 ... done (   0.0 sec)
Now organizing SCF variables                       ... done
                      ------------------
                      INITIAL GUESS DONE (   1.4 sec)
                      ------------------
-------------------
DFT GRID GENERATION
-------------------

General Integration Accuracy     IntAcc      ... 4.388
Radial Grid Type                 RadialGrid  ... OptM3 with GC (2021)
Angular Grid (max. ang.)         AngularGrid ... 4 (Lebedev-302)
Angular grid pruning method      GridPruning ... 4 (adaptive)
Weight generation scheme         WeightScheme... Becke
Basis function cutoff            BFCut       ... 1.0000e-11
Integration weight cutoff        WCut        ... 1.0000e-14
Angular grids for H and He will be reduced by one unit
Partially contracted basis set               ... off
Rotationally invariant grid construction     ... off

Total number of grid points                  ...   309954
Total number of batches                      ...     4876
Average number of points per batch           ...       63
Average number of grid points per atom       ...     4246
Time for grid setup =    2.775 sec

--------------------
COSX GRID GENERATION
--------------------

GRIDX 1
-------
General Integration Accuracy     IntAcc      ... 3.816
Radial Grid Type                 RadialGrid  ... OptM3 with GC (2021)
Angular Grid (max. ang.)         AngularGrid ... 1 (Lebedev-50)
Angular grid pruning method      GridPruning ... 4 (adaptive)
Weight generation scheme         WeightScheme... Becke
Basis function cutoff            BFCut       ... 1.0000e-11
Integration weight cutoff        WCut        ... 1.0000e-14
Angular grids for H and He will be reduced by one unit
Partially contracted basis set               ... on
Rotationally invariant grid construction     ... off

Total number of grid points                  ...    39433
Total number of batches                      ...      660
Average number of points per batch           ...       59
Average number of grid points per atom       ...      540
UseSFitting                                  ... on

GRIDX 2
-------
General Integration Accuracy     IntAcc      ... 4.020
Radial Grid Type                 RadialGrid  ... OptM3 with GC (2021)
Angular Grid (max. ang.)         AngularGrid ... 2 (Lebedev-110)
Angular grid pruning method      GridPruning ... 4 (adaptive)
Weight generation scheme         WeightScheme... Becke
Basis function cutoff            BFCut       ... 1.0000e-11
Integration weight cutoff        WCut        ... 1.0000e-14
Angular grids for H and He will be reduced by one unit
Partially contracted basis set               ... on
Rotationally invariant grid construction     ... off

Total number of grid points                  ...    81479
Total number of batches                      ...     1310
Average number of points per batch           ...       62
Average number of grid points per atom       ...     1116
UseSFitting                                  ... on

GRIDX 3
-------
General Integration Accuracy     IntAcc      ... 4.338
Radial Grid Type                 RadialGrid  ... OptM3 with GC (2021)
Angular Grid (max. ang.)         AngularGrid ... 3 (Lebedev-194)
Angular grid pruning method      GridPruning ... 4 (adaptive)
Weight generation scheme         WeightScheme... Becke
Basis function cutoff            BFCut       ... 1.0000e-11
Integration weight cutoff        WCut        ... 1.0000e-14
Angular grids for H and He will be reduced by one unit
Partially contracted basis set               ... on
Rotationally invariant grid construction     ... off

Total number of grid points                  ...   176452
Total number of batches                      ...     2795
Average number of points per batch           ...       63
Average number of grid points per atom       ...     2417
UseSFitting                                  ... on

Time for X-Grid setup             =    2.736 sec


--------------------
CPCM SOLVATION MODEL
--------------------
CPCM parameters:
  Epsilon                                         ...       4.9000
  Refrac                                          ...       1.4500
  Rsolv                                           ...       1.3000
  Surface type                                    ... GAUSSIAN VDW
  Epsilon function type                           ...         CPCM
Radii:
 Radius for C  used is    3.8550 Bohr (=   2.0400 Ang.)
 Radius for H  used is    2.4944 Bohr (=   1.3200 Ang.)
 Radius for O  used is    3.4469 Bohr (=   1.8240 Ang.)
Calculating surface                               ...        done! (  0.0s)
GEPOL surface points                              ...         3676
GEPOL Volume                                      ...    3605.9166
GEPOL Surface-area                                ...    1803.6052
Calculating surface distance matrix               ...        done! (  0.1s)
Performing Cholesky decomposition & store         ...        done! (  0.5s)
Overall time for CPCM initialization              ...                 0.6s
--------------
SCF ITERATIONS
--------------
ITER       Energy         Delta-E        Max-DP      RMS-DP      [F,P]     Damp
               ***  Starting incremental Fock matrix formation  ***

  HOMO= 109 E= -3.883 eV LUMO=  7.791 eV gap=  11.673 eV
  0  -1165.0092086803   0.000000000000 0.09772324  0.00105832  0.1934155 0.7000

  HOMO= 109 E= -4.733 eV LUMO=  7.094 eV gap=  11.828 eV
  1  -1165.2279202242  -0.218711543866 0.06553348  0.00078012  0.0940595 0.7000
                               ***Turning on DIIS***

  HOMO= 109 E= -5.333 eV LUMO=  6.537 eV gap=  11.870 eV
  2  -1165.3290082337  -0.101088009544 0.10349444  0.00138462  0.0376744 0.0000

  HOMO= 109 E= -5.901 eV LUMO=  5.993 eV gap=  11.894 eV
  3  -1165.4735545505  -0.144546316753 0.05173457  0.00056851  0.0453161 0.0000

  HOMO= 109 E= -5.980 eV LUMO=  5.914 eV gap=  11.894 eV
  4  -1165.5090929632  -0.035538412752 0.01163896  0.00013488  0.0062010 0.0000

  HOMO= 109 E= -5.927 eV LUMO=  5.974 eV gap=  11.901 eV
  5  -1165.5099658388  -0.000872875589 0.00282831  0.00003821  0.0044242 0.0000

  HOMO= 109 E= -5.914 eV LUMO=  5.988 eV gap=  11.902 eV
  6  -1165.5100435437  -0.000077704916 0.00115602  0.00001159  0.0010570 0.0000

  HOMO= 109 E= -5.915 eV LUMO= -0.816 eV gap=   5.099 eV
  7  -1165.5100483415  -0.000004797785 0.00051079  0.00000595  0.0002321 0.0000
               *** Restarting incremental Fock matrix formation ***
                                   *** Resetting DIIS ***

  HOMO= 109 E= -5.915 eV LUMO= -0.815 eV gap=   5.100 eV
  8  -1165.5101817893  -0.000133447792 0.00041253  0.00000278  0.0001132 0.0000

  HOMO= 109 E= -5.915 eV LUMO= -0.815 eV gap=   5.100 eV
  9  -1165.5101818502  -0.000000060842 0.00013073  0.00000124  0.0001459 0.0000

  HOMO= 109 E= -5.915 eV LUMO= -0.815 eV gap=   5.100 eV
 10  -1165.5101819620  -0.000000111849 0.00006459  0.00000040  0.0000403 0.0000

  HOMO= 109 E= -5.915 eV LUMO= -0.815 eV gap=   5.100 eV
 11  -1165.5101819985  -0.000000036481 0.00002453  0.00000017  0.0000215 0.0000

  HOMO= 109 E= -5.915 eV LUMO= -0.815 eV gap=   5.100 eV
 12  -1165.5101819733   0.000000025246 0.00000723  0.00000005  0.0000037 0.0000
                 **** Energy Check signals convergence ****

               *****************************************************
               *                     SUCCESS                       *
               *           SCF CONVERGED AFTER  13 CYCLES          *
               *****************************************************

Old exchange energy                            =    -42.067038612 Eh
New exchange energy                            =    -42.067085516 Eh
Exchange energy change after final integration =     -0.000046904 Eh
Total energy after final integration           =  -1165.510228876 Eh
Final COS-X integration done in                =    13.297 sec

----------------
TOTAL SCF ENERGY
----------------

Total Energy       :        -1165.51022888 Eh          -31715.14569 eV

Components:
Nuclear Repulsion  :         2758.69613426 Eh           75067.93819 eV
Electronic Energy  :        -3924.20636313 Eh         -106783.08389 eV
One Electron Energy:        -7059.47476751 Eh         -192098.07450 eV
Two Electron Energy:         3135.26840438 Eh           85314.99061 eV
Max COSX asymmetry :            0.00000229 Eh               0.00006 eV
CPCM Dielectric    :           -0.01536751 Eh              -0.41817 eV

Virial components:
Potential Energy   :        -2322.41056441 Eh          -63196.00428 eV
Kinetic Energy     :         1156.90033553 Eh           31480.85859 eV
Virial Ratio       :            2.00744221


DFT components:
N(Alpha)           :      110.000201793999 electrons
N(Beta)            :      110.000201793999 electrons
N(Total)           :      220.000403587997 electrons
E(X)               :     -125.744316469095 Eh       
E(C)               :       -7.324755311789 Eh       
E(XC)              :     -133.069071780884 Eh       
DFET-embed. en.    :        0.000000000000 Eh       
CPCM Solvation Model Properties:
Surface-charge          :           -0.03463250
Charge-correction       :           -0.00005769 Eh              -0.00157 eV
Free-energy (cav+disp)  :  This term is not implemented in the current solvation scheme

---------------
SCF CONVERGENCE
---------------

  Last Energy change         ...    4.5929e-10  Tolerance :   1.0000e-07
  Last MAX-Density change    ...    0.0000e+00  Tolerance :   1.0000e-05
  Last RMS-Density change    ...    0.0000e+00  Tolerance :   1.0000e-06
  Last DIIS Error            ...    2.5723e-06  Tolerance :   1.0000e-07

             **** THE GBW FILE WAS UPDATED (inpJ.gbw) ****
             **** DENSITY inpJ.scfp WAS UPDATED ****
             **** ENERGY FILE WAS UPDATED (inpJ.en.tmp) ****
             **** THE GBW FILE WAS UPDATED (inpJ.gbw) ****
             **** DENSITY inpJ.scfp WAS UPDATED ****
----------------
ORBITAL ENERGIES
----------------

  NO   OCC          E(Eh)            E(eV) 
   0   2.0000     -19.214995      -522.8666 
   1   2.0000     -10.301280      -280.3121 
   2   2.0000     -10.269410      -279.4449 
   3   2.0000     -10.266606      -279.3685 
   4   2.0000     -10.261616      -279.2328 
   5   2.0000     -10.256056      -279.0815 
   6   2.0000     -10.253260      -279.0054 
   7   2.0000     -10.249943      -278.9151 
   8   2.0000     -10.249172      -278.8941 
   9   2.0000     -10.249161      -278.8938 
  10   2.0000     -10.248135      -278.8659 
  11   2.0000     -10.245967      -278.8069 
  12   2.0000     -10.245135      -278.7843 
  13   2.0000     -10.244716      -278.7729 
  14   2.0000     -10.244661      -278.7714 
  15   2.0000     -10.243818      -278.7485 
  16   2.0000     -10.243131      -278.7298 
  17   2.0000     -10.242894      -278.7233 
  18   2.0000     -10.241857      -278.6951 
  19   2.0000     -10.240963      -278.6708 
  20   2.0000     -10.239099      -278.6201 
  21   2.0000     -10.233752      -278.4745 
  22   2.0000     -10.233579      -278.4698 
  23   2.0000     -10.232462      -278.4394 
  24   2.0000     -10.226633      -278.2808 
  25   2.0000     -10.226000      -278.2636 
  26   2.0000     -10.223680      -278.2005 
  27   2.0000     -10.222290      -278.1627 
  28   2.0000     -10.220153      -278.1045 
  29   2.0000      -1.045775       -28.4570 
  30   2.0000      -0.900507       -24.5040 
  31   2.0000      -0.883503       -24.0414 
  32   2.0000      -0.859669       -23.3928 
  33   2.0000      -0.845505       -23.0074 
  34   2.0000      -0.822110       -22.3708 
  35   2.0000      -0.813535       -22.1374 
  36   2.0000      -0.794823       -21.6282 
  37   2.0000      -0.794649       -21.6235 
  38   2.0000      -0.776599       -21.1323 
  39   2.0000      -0.757299       -20.6072 
  40   2.0000      -0.741166       -20.1682 
  41   2.0000      -0.735138       -20.0041 
  42   2.0000      -0.713549       -19.4167 
  43   2.0000      -0.702008       -19.1026 
  44   2.0000      -0.698949       -19.0194 
  45   2.0000      -0.693337       -18.8667 
  46   2.0000      -0.668804       -18.1991 
  47   2.0000      -0.656130       -17.8542 
  48   2.0000      -0.630448       -17.1554 
  49   2.0000      -0.621565       -16.9136 
  50   2.0000      -0.619297       -16.8519 
  51   2.0000      -0.607433       -16.5291 
  52   2.0000      -0.596596       -16.2342 
  53   2.0000      -0.582866       -15.8606 
  54   2.0000      -0.563251       -15.3268 
  55   2.0000      -0.550086       -14.9686 
  56   2.0000      -0.540161       -14.6985 
  57   2.0000      -0.529616       -14.4116 
  58   2.0000      -0.514960       -14.0128 
  59   2.0000      -0.509266       -13.8578 
  60   2.0000      -0.497777       -13.5452 
  61   2.0000      -0.491490       -13.3741 
  62   2.0000      -0.479840       -13.0571 
  63   2.0000      -0.475831       -12.9480 
  64   2.0000      -0.473692       -12.8898 
  65   2.0000      -0.467811       -12.7298 
  66   2.0000      -0.464084       -12.6284 
  67   2.0000      -0.458300       -12.4710 
  68   2.0000      -0.456831       -12.4310 
  69   2.0000      -0.452782       -12.3208 
  70   2.0000      -0.448765       -12.2115 
  71   2.0000      -0.439268       -11.9531 
  72   2.0000      -0.433258       -11.7896 
  73   2.0000      -0.430543       -11.7157 
  74   2.0000      -0.430054       -11.7024 
  75   2.0000      -0.421890       -11.4802 
  76   2.0000      -0.416528       -11.3343 
  77   2.0000      -0.413595       -11.2545 
  78   2.0000      -0.407662       -11.0930 
  79   2.0000      -0.402718       -10.9585 
  80   2.0000      -0.402030       -10.9398 
  81   2.0000      -0.398808       -10.8521 
  82   2.0000      -0.396485       -10.7889 
  83   2.0000      -0.389243       -10.5918 
  84   2.0000      -0.387513       -10.5448 
  85   2.0000      -0.385047       -10.4777 
  86   2.0000      -0.377492       -10.2721 
  87   2.0000      -0.371308       -10.1038 
  88   2.0000      -0.367432        -9.9983 
  89   2.0000      -0.366520        -9.9735 
  90   2.0000      -0.363325        -9.8866 
  91   2.0000      -0.357899        -9.7389 
  92   2.0000      -0.350401        -9.5349 
  93   2.0000      -0.343209        -9.3392 
  94   2.0000      -0.340786        -9.2733 
  95   2.0000      -0.339817        -9.2469 
  96   2.0000      -0.337456        -9.1826 
  97   2.0000      -0.332444        -9.0463 
  98   2.0000      -0.330620        -8.9966 
  99   2.0000      -0.328670        -8.9436 
 100   2.0000      -0.326077        -8.8730 
 101   2.0000      -0.324497        -8.8300 
 102   2.0000      -0.316111        -8.6018 
 103   2.0000      -0.315682        -8.5901 
 104   2.0000      -0.311465        -8.4754 
 105   2.0000      -0.298863        -8.1325 
 106   2.0000      -0.279883        -7.6160 
 107   2.0000      -0.274634        -7.4732 
 108   2.0000      -0.257859        -7.0167 
 109   2.0000      -0.217366        -5.9148 
 110   0.0000      -0.029952        -0.8150 
 111   0.0000       0.021286         0.5792 
 112   0.0000       0.026761         0.7282 
 113   0.0000       0.080465         2.1896 
 114   0.0000       0.089251         2.4286 
 115   0.0000       0.101597         2.7646 
 116   0.0000       0.104190         2.8351 
 117   0.0000       0.107940         2.9372 
 118   0.0000       0.109637         2.9834 
 119   0.0000       0.116210         3.1622 
 120   0.0000       0.118640         3.2284 
 121   0.0000       0.120555         3.2805 
 122   0.0000       0.122677         3.3382 
 123   0.0000       0.129091         3.5127 
 124   0.0000       0.134218         3.6523 
 125   0.0000       0.137059         3.7296 
 126   0.0000       0.140774         3.8307 
 127   0.0000       0.141167         3.8414 
 128   0.0000       0.143378         3.9015 
 129   0.0000       0.148940         4.0529 
 130   0.0000       0.154992         4.2175 
 131   0.0000       0.159801         4.3484 
 132   0.0000       0.161760         4.4017 
 133   0.0000       0.165211         4.4956 
 134   0.0000       0.166301         4.5253 
 135   0.0000       0.168515         4.5855 
 136   0.0000       0.169430         4.6104 
 137   0.0000       0.174576         4.7505 
 138   0.0000       0.176339         4.7984 
 139   0.0000       0.181993         4.9523 
 140   0.0000       0.184227         5.0131 
 141   0.0000       0.186381         5.0717 
 142   0.0000       0.188851         5.1389 
 143   0.0000       0.189648         5.1606 
 144   0.0000       0.192283         5.2323 
 145   0.0000       0.196185         5.3385 
 146   0.0000       0.201336         5.4786 
 147   0.0000       0.201623         5.4864 
 148   0.0000       0.204843         5.5741 
 149   0.0000       0.210415         5.7257 
 150   0.0000       0.218868         5.9557 
 151   0.0000       0.220251         5.9933 
 152   0.0000       0.223408         6.0792 
 153   0.0000       0.224075         6.0974 
 154   0.0000       0.234427         6.3791 
 155   0.0000       0.236884         6.4459 
 156   0.0000       0.242448         6.5973 
 157   0.0000       0.244326         6.6484 
 158   0.0000       0.247081         6.7234 
 159   0.0000       0.250472         6.8157 
 160   0.0000       0.255834         6.9616 
 161   0.0000       0.258191         7.0257 
 162   0.0000       0.261585         7.1181 
 163   0.0000       0.265962         7.2372 
 164   0.0000       0.268727         7.3124 
 165   0.0000       0.273653         7.4465 
 166   0.0000       0.275590         7.4992 
 167   0.0000       0.281613         7.6631 
 168   0.0000       0.287119         7.8129 
 169   0.0000       0.291858         7.9419 
 170   0.0000       0.295773         8.0484 
 171   0.0000       0.298349         8.1185 
 172   0.0000       0.306145         8.3306 
 173   0.0000       0.307214         8.3597 
 174   0.0000       0.312837         8.5127 
 175   0.0000       0.319063         8.6821 
 176   0.0000       0.325249         8.8505 
 177   0.0000       0.337979         9.1969 
 178   0.0000       0.355716         9.6795 
 179   0.0000       0.360255         9.8030 
 180   0.0000       0.367548        10.0015 
 181   0.0000       0.375643        10.2218 
 182   0.0000       0.379322        10.3219 
 183   0.0000       0.404514        11.0074 
 184   0.0000       0.419505        11.4153 
 185   0.0000       0.459851        12.5132 
 186   0.0000       0.465756        12.6739 
 187   0.0000       0.490764        13.3544 
 188   0.0000       0.503585        13.7033 
 189   0.0000       0.512955        13.9582 
 190   0.0000       0.521165        14.1816 
 191   0.0000       0.524828        14.2813 
 192   0.0000       0.543065        14.7776 
 193   0.0000       0.548907        14.9365 
 194   0.0000       0.561078        15.2677 
 195   0.0000       0.572240        15.5714 
 196   0.0000       0.575710        15.6659 
 197   0.0000       0.583406        15.8753 
 198   0.0000       0.588327        16.0092 
 199   0.0000       0.594780        16.1848 
 200   0.0000       0.604990        16.4626 
 201   0.0000       0.614900        16.7323 
 202   0.0000       0.618033        16.8175 
 203   0.0000       0.626717        17.0538 
 204   0.0000       0.628045        17.0900 
 205   0.0000       0.640870        17.4390 
 206   0.0000       0.647507        17.6196 
 207   0.0000       0.650857        17.7107 
 208   0.0000       0.660207        17.9651 
 209   0.0000       0.665892        18.1198 
 210   0.0000       0.668018        18.1777 
 211   0.0000       0.680037        18.5048 
 212   0.0000       0.691467        18.8158 
 213   0.0000       0.699733        19.0407 
 214   0.0000       0.705189        19.1892 
 215   0.0000       0.709264        19.3000 
 216   0.0000       0.712236        19.3809 
 217   0.0000       0.716602        19.4997 
 218   0.0000       0.722988        19.6735 
 219   0.0000       0.726256        19.7624 
 220   0.0000       0.728435        19.8217 
 221   0.0000       0.731324        19.9003 
 222   0.0000       0.735337        20.0095 
 223   0.0000       0.740475        20.1493 
 224   0.0000       0.747105        20.3298 
 225   0.0000       0.749264        20.3885 
 226   0.0000       0.751386        20.4462 
 227   0.0000       0.757577        20.6147 
 228   0.0000       0.761014        20.7082 
 229   0.0000       0.765834        20.8394 
 230   0.0000       0.769811        20.9476 
 231   0.0000       0.777611        21.1599 
 232   0.0000       0.779123        21.2010 
 233   0.0000       0.784701        21.3528 
 234   0.0000       0.787715        21.4348 
 235   0.0000       0.795552        21.6481 
 236   0.0000       0.798675        21.7331 
 237   0.0000       0.803293        21.8587 
 238   0.0000       0.815797        22.1990 
 239   0.0000       0.819381        22.2965 
 240   0.0000       0.824322        22.4310 
 241   0.0000       0.827471        22.5166 
 242   0.0000       0.838344        22.8125 
 243   0.0000       0.841438        22.8967 
 244   0.0000       0.845523        23.0078 
 245   0.0000       0.855925        23.2909 
 246   0.0000       0.861491        23.4424 
 247   0.0000       0.863817        23.5056 
 248   0.0000       0.865558        23.5530 
 249   0.0000       0.868761        23.6402 
 250   0.0000       0.871822        23.7235 
 251   0.0000       0.877093        23.8669 
 252   0.0000       0.877200        23.8698 
 253   0.0000       0.878861        23.9150 
 254   0.0000       0.882308        24.0088 
 255   0.0000       0.886531        24.1237 
 256   0.0000       0.889067        24.1927 
 257   0.0000       0.892559        24.2878 
 258   0.0000       0.892751        24.2930 
 259   0.0000       0.899905        24.4877 
 260   0.0000       0.901734        24.5374 
 261   0.0000       0.905954        24.6522 
 262   0.0000       0.915618        24.9152 
 263   0.0000       0.916759        24.9463 
 264   0.0000       0.918797        25.0017 
 265   0.0000       0.923443        25.1282 
 266   0.0000       0.928056        25.2537 
 267   0.0000       0.931126        25.3372 
 268   0.0000       0.934705        25.4346 
 269   0.0000       0.940672        25.5970 
 270   0.0000       0.942339        25.6424 
 271   0.0000       0.945426        25.7263 
 272   0.0000       0.949427        25.8352 
 273   0.0000       0.953032        25.9333 
 274   0.0000       0.957148        26.0453 
 275   0.0000       0.965049        26.2603 
 276   0.0000       0.966605        26.3027 
 277   0.0000       0.972297        26.4576 
 278   0.0000       0.973092        26.4792 
 279   0.0000       0.978926        26.6379 
 280   0.0000       0.989450        26.9243 
 281   0.0000       0.998429        27.1686 
 282   0.0000       1.001705        27.2578 
 283   0.0000       1.015359        27.6293 
 284   0.0000       1.016299        27.6549 
 285   0.0000       1.024461        27.8770 
 286   0.0000       1.032745        28.1024 
 287   0.0000       1.041484        28.3402 
 288   0.0000       1.059818        28.8391 
 289   0.0000       1.063145        28.9296 
 290   0.0000       1.072951        29.1965 
 291   0.0000       1.076902        29.3040 
 292   0.0000       1.082649        29.4604 
 293   0.0000       1.089020        29.6338 
 294   0.0000       1.096058        29.8253 
 295   0.0000       1.101012        29.9601 
 296   0.0000       1.124124        30.5890 
 297   0.0000       1.135791        30.9064 
 298   0.0000       1.139926        31.0190 
 299   0.0000       1.157150        31.4877 
 300   0.0000       1.159336        31.5471 
 301   0.0000       1.168985        31.8097 
 302   0.0000       1.181777        32.1578 
 303   0.0000       1.201923        32.7060 
 304   0.0000       1.231483        33.5104 
 305   0.0000       1.242392        33.8072 
 306   0.0000       1.255135        34.1540 
 307   0.0000       1.260461        34.2989 
 308   0.0000       1.275386        34.7050 
 309   0.0000       1.301481        35.4151 
 310   0.0000       1.333601        36.2891 
 311   0.0000       1.334953        36.3259 
 312   0.0000       1.371854        37.3300 
 313   0.0000       1.382069        37.6080 
 314   0.0000       1.406139        38.2630 
 315   0.0000       1.512269        41.1509 
 316   0.0000       1.525791        41.5189 
 317   0.0000       1.571597        42.7653 
 318   0.0000       1.605941        43.6999 
 319   0.0000       1.657489        45.1026 
 320   0.0000       6.207849       168.9242 
 321   0.0000       6.239751       169.7923 
 322   0.0000       6.261786       170.3919 
 323   0.0000       6.272510       170.6837 
 324   0.0000       6.282292       170.9499 
 325   0.0000       6.290775       171.1807 
 326   0.0000       6.300520       171.4459 
 327   0.0000       6.311336       171.7402 
 328   0.0000       6.313848       171.8085 
 329   0.0000       6.334257       172.3639 
 330   0.0000       6.342091       172.5771 
 331   0.0000       6.348406       172.7489 
 332   0.0000       6.356005       172.9557 
 333   0.0000       6.364271       173.1806 
 334   0.0000       6.384962       173.7437 
 335   0.0000       6.391198       173.9133 
 336   0.0000       6.395776       174.0379 
 337   0.0000       6.408422       174.3820 
 338   0.0000       6.420455       174.7095 
 339   0.0000       6.424533       174.8204 
 340   0.0000       6.430301       174.9774 
 341   0.0000       6.438975       175.2134 
 342   0.0000       6.452341       175.5771 
 343   0.0000       6.466142       175.9527 
 344   0.0000       6.468329       176.0122 
 345   0.0000       6.475719       176.2133 
 346   0.0000       6.479755       176.3231 
 347   0.0000       6.498470       176.8324 
 348   0.0000       6.502953       176.9544 
 349   0.0000       6.509931       177.1442 
 350   0.0000       6.520567       177.4337 
 351   0.0000       6.526033       177.5824 
 352   0.0000       6.533901       177.7965 
 353   0.0000       6.541161       177.9940 
 354   0.0000       6.544256       178.0783 
 355   0.0000       6.553750       178.3366 
 356   0.0000       6.556596       178.4140 
 357   0.0000       6.560268       178.5140 
 358   0.0000       6.573937       178.8859 
 359   0.0000       6.579570       179.0392 
 360   0.0000       6.583656       179.1504 
 361   0.0000       6.588157       179.2729 
 362   0.0000       6.589416       179.3071 
 363   0.0000       6.594056       179.4334 
 364   0.0000       6.603373       179.6869 
 365   0.0000       6.607318       179.7943 
 366   0.0000       6.607403       179.7966 
 367   0.0000       6.613441       179.9609 
 368   0.0000       6.616622       180.0474 
 369   0.0000       6.618952       180.1108 
 370   0.0000       6.620245       180.1460 
 371   0.0000       6.624589       180.2642 
 372   0.0000       6.629758       180.4049 
 373   0.0000       6.634126       180.5238 
 374   0.0000       6.641100       180.7135 
[...]
     69 H        0.000      0.000      0.000      0.000      0.000      0.000
     70 H        0.000      0.000      0.000      0.000      0.003      0.036
     71 H        0.000      0.000      0.000     -0.000      0.001      0.020
     72 H        0.000      0.000      0.000      0.000      0.001      0.010
                 25 H       27 H       28 H       30 H       31 H       33 H  
      3 H        2.486     -0.106      0.066      0.000      0.000      2.406
      4 H        0.111     -0.004      0.004      0.000      0.000      0.099
      8 H       -0.339      0.012      0.000      0.000      0.000     -0.310
      9 H        0.000      0.000      0.000      0.000      0.000      0.136
     10 H        0.000      0.000      0.000      0.000      0.000      0.000
     11 H        0.000      0.000      0.000      0.000      0.000      0.000
     13 H       -0.101      0.004     -0.004      0.000      0.000     -0.104
     16 H       -0.371      0.012     -0.006     -0.022     -0.001     -0.342
     17 H       -0.363      0.011      0.000      0.000      0.000     -0.318
     19 H        0.931     -0.048      0.022      0.086      0.006      1.142
     21 H       -2.829      0.197      0.638     -0.216     -0.026     -2.595
     24 H      -14.076      4.370      2.271      0.711     -0.509     -0.120
     25 H        0.000     13.013      5.277     -0.635     -0.351     -2.345
     27 H       13.013      0.000    -13.579      4.019     12.980      0.070
     28 H        5.277    -13.579      0.000      2.621      4.143      0.283
     30 H       -0.635      4.019      2.621      0.000    -12.941      0.017
     31 H       -0.351     12.980      4.143    -12.941      0.000     -0.325
     33 H       -2.345      0.070      0.283      0.017     -0.325      0.000
     35 H        0.000      0.000      0.000      0.000      0.000      0.000
     37 H        0.272      0.005     -0.036      0.512     -0.036      6.529
     38 H        0.190      0.001     -0.029     -0.013      0.125     12.151
     40 H       -0.013      0.019      0.146     -0.003     -0.033     -0.239
     41 H        0.014      0.022     -0.025      0.014      0.078     -0.419
     42 H       -0.018      0.013     -0.010     -0.259     -0.372     -0.206
     45 H       -0.019     -0.227      0.012     -0.208     -0.474     -0.190
     46 H        0.013      0.047      0.069     -0.337      0.025      0.935
     47 H       -0.057     -0.124     -0.144     -0.149      1.838     -0.466
     48 H       -0.015      0.030      0.022      0.029      0.010     -0.002
     52 H        0.001      0.001      0.002     -0.003      0.001      0.003
     53 H        0.000     -0.000      0.000      0.000     -0.002     -0.003
     57 H        0.000      0.000      0.000      0.000      0.000     -0.000
     58 H        0.000      0.000      0.000      0.000      0.000      0.000
     61 H        0.000      0.000      0.000      0.000      0.000     -0.000
     62 H        0.000      0.000      0.000      0.000      0.000     -0.000
     63 H        0.000      0.000      0.000      0.000      0.000      0.000
     64 H        0.000      0.000      0.000      0.000      0.000      0.000
     65 H        0.000      0.000      0.000      0.000      0.000      0.000
     66 H        0.000      0.000      0.000      0.000      0.000      0.000
     67 H        0.000      0.000      0.000      0.000      0.000      0.000
     68 H        0.000      0.000      0.000     -0.000      0.000      0.000
     69 H        0.000      0.000      0.000      0.000      0.000      0.000
     70 H        0.000     -0.010     -0.011      0.077     -0.044      0.004
     71 H        0.004     -0.010     -0.009     -0.449     -0.080      0.004
     72 H        0.000     -0.002     -0.004      0.071      0.012     -0.001
                 35 H       37 H       38 H       40 H       41 H       42 H  
      3 H       -0.076     -0.044     -0.038      0.000      0.000      0.000
      4 H       -0.166     -0.002     -0.002      0.000      0.000      0.000
      8 H        0.020      0.006      0.004      0.000      0.001      0.000
      9 H       -0.092     -0.002     -0.001      0.000     -0.000      0.000
     10 H       -0.180      0.000     -0.001      0.000      0.000      0.000
     11 H       -0.102     -0.000     -0.000      0.000      0.000      0.000
     13 H       13.765      0.002      0.001      0.000      0.000      0.000
     16 H        0.005      0.007      0.002     -0.001      0.001     -0.001
     17 H        0.007      0.005      0.004      0.000      0.002      0.000
     19 H       -0.004     -0.013      0.115      0.005     -0.009      0.006
     21 H       -0.004      0.045     -0.539     -0.011      0.059     -0.025
     24 H       -0.001     -0.053     -0.079     -0.019      0.067     -0.025
     25 H        0.000      0.272      0.190     -0.013      0.014     -0.018
     27 H        0.000      0.005      0.001      0.019      0.022      0.013
     28 H        0.000     -0.036     -0.029      0.146     -0.025     -0.010
     30 H        0.000      0.512     -0.013     -0.003      0.014     -0.259
     31 H        0.000     -0.036      0.125     -0.033      0.078     -0.372
     33 H        0.000      6.529     12.151     -0.239     -0.419     -0.206
     35 H        0.000      0.000      0.000      0.000      0.000      0.000
     37 H        0.000      0.000    -12.188      9.508      2.680     -0.263
     38 H        0.000    -12.188      0.000      6.645     11.615     -0.467
     40 H        0.000      9.508      6.645      0.000    -13.891      9.479
     41 H        0.000      2.680     11.615    -13.891      0.000      8.745
     42 H        0.000     -0.263     -0.467      9.479      8.745      0.000
     45 H        0.000      0.065      0.038     -0.084      0.006      1.117
     46 H        0.000     -0.172      0.007      0.050      0.045     -0.409
     47 H        0.000      0.060     -0.069     -0.111     -0.064     -0.088
     48 H        0.000      0.101     -0.009     -0.204     -0.435     10.376
     52 H        0.000     -0.000      0.003      0.067     -0.023     -0.275
     53 H        0.000      0.002      0.005     -0.115      0.020      0.089
     57 H        0.000      0.000      0.001      0.009     -0.002      0.033
     58 H        0.000      0.000      0.000      0.003     -0.001      0.001
     61 H        0.000      0.000     -0.000     -0.015      0.001      0.001
     62 H        0.000      0.000      0.000     -0.005      0.001     -0.000
     63 H        0.000     -0.001     -0.000      0.009      0.006     -0.023
     64 H        0.000      0.000      0.000     -0.000     -0.000      0.000
     65 H        0.000      0.000     -0.000      0.001     -0.000     -0.000
     66 H        0.000      0.000      0.000     -0.001     -0.000      0.000
     67 H        0.000      0.000     -0.000     -0.002     -0.000      0.001
     68 H        0.000      0.000      0.000     -0.000     -0.000     -0.000
     69 H        0.000      0.000      0.000     -0.002      0.000      0.001
     70 H        0.000      0.065      0.010     -0.022      0.010     -0.442
     71 H        0.000     -0.006      0.004      0.083      0.027     -0.194
     72 H        0.000     -0.020      0.037      0.026     -0.053     -0.343
                 45 H       46 H       47 H       48 H       52 H       53 H  
      3 H       -0.020      0.000      0.000      0.000      0.000      0.000
      4 H       -0.001     -0.001      0.001      0.000      0.000      0.000
      8 H        0.002      0.002     -0.003      0.000      0.000      0.000
      9 H       -0.001      0.000      0.001      0.000      0.000      0.000
     10 H       -0.001      0.000      0.000      0.000      0.000      0.000
     11 H       -0.000      0.000      0.000      0.000      0.000      0.000
     13 H        0.001      0.001     -0.001      0.000      0.000      0.000
     16 H        0.002      0.002     -0.004      0.000      0.000      0.000
     17 H        0.003      0.000     -0.004      0.000      0.000      0.000
     19 H       -0.009     -0.007      0.011      0.006      0.000      0.000
     21 H        0.032      0.015     -0.016     -0.016      0.001     -0.001
     24 H       -0.023     -0.017     -0.023      0.002      0.000      0.000
     25 H       -0.019      0.013     -0.057     -0.015      0.001      0.000
     27 H       -0.227      0.047     -0.124      0.030      0.001     -0.000
     28 H        0.012      0.069     -0.144      0.022      0.002      0.000
     30 H       -0.208     -0.337     -0.149      0.029     -0.003      0.000
     31 H       -0.474      0.025      1.838      0.010      0.001     -0.002
     33 H       -0.190      0.935     -0.466     -0.002      0.003     -0.003
     35 H        0.000      0.000      0.000      0.000      0.000      0.000
     37 H        0.065     -0.172      0.060      0.101     -0.000      0.002
     38 H        0.038      0.007     -0.069     -0.009      0.003      0.005
     40 H       -0.084      0.050     -0.111     -0.204      0.067     -0.115
     41 H        0.006      0.045     -0.064     -0.435     -0.023      0.020
     42 H        1.117     -0.409     -0.088     10.376     -0.275      0.089
     45 H        0.000    -12.826    -13.551     -0.107      0.239     -0.002
     46 H      -12.826      0.000    -12.945     -0.052      0.074     -0.002
     47 H      -13.551    -12.945      0.000     -0.169      0.071     -0.002
     48 H       -0.107     -0.052     -0.169      0.000      9.780     -0.614
     52 H        0.239      0.074      0.071      9.780      0.000     15.955
     53 H       -0.002     -0.002     -0.002     -0.614     15.955      0.000
     57 H        0.000      0.000     -0.000     -0.051     -0.628     10.275
     58 H        0.000      0.000      0.000      0.016      0.149     -0.371
     61 H       -0.000     -0.000     -0.000     -0.004      0.120     -0.167
     62 H        0.001      0.000      0.000      0.029      0.046     -0.322
     63 H        0.000      0.000      0.001      0.044     -0.359     -0.044
     64 H        0.000      0.000      0.000     -0.003      0.132     -0.021
     65 H        0.000      0.000      0.000     -0.000     -0.014     -0.000
     66 H       -0.000     -0.000     -0.000     -0.004      0.095     -0.059
     67 H        0.000     -0.000      0.000     -0.004      0.041      0.001
     68 H        0.000      0.000      0.000      0.003      0.008     -0.010
     69 H        0.000      0.000      0.000     -0.004      0.054     -0.046
     70 H       -0.028     -0.016     -0.011      2.280     -0.152      0.093
     71 H       -0.050     -0.202     -0.019      4.511     -0.084     -0.389
     72 H       -0.031     -0.036      0.034     12.632     -0.267      0.102
                 57 H       58 H       61 H       62 H       63 H       64 H  
      3 H        0.000      0.000      0.000      0.000      0.000      0.000
      4 H        0.000      0.000      0.000      0.000      0.000      0.000
      8 H        0.000      0.000      0.000      0.000      0.000      0.000
      9 H        0.000      0.000      0.000      0.000      0.000      0.000
     10 H        0.000      0.000      0.000      0.000      0.000      0.000
     11 H        0.000      0.000      0.000      0.000      0.000      0.000
     13 H        0.000      0.000      0.000      0.000      0.000      0.000
     16 H        0.000      0.000      0.000      0.000      0.000      0.000
     17 H        0.000      0.000      0.000      0.000      0.000      0.000
     19 H        0.000      0.000      0.000      0.000      0.000      0.000
     21 H        0.000      0.000     -0.000      0.000      0.000      0.000
     24 H        0.000      0.000      0.000      0.000      0.000      0.000
     25 H        0.000      0.000      0.000      0.000      0.000      0.000
     27 H        0.000      0.000      0.000      0.000      0.000      0.000
     28 H        0.000      0.000      0.000      0.000      0.000      0.000
     30 H        0.000      0.000      0.000      0.000      0.000      0.000
     31 H        0.000      0.000      0.000      0.000      0.000      0.000
     33 H       -0.000      0.000     -0.000     -0.000      0.000      0.000
     35 H        0.000      0.000      0.000      0.000      0.000      0.000
     37 H        0.000      0.000      0.000      0.000     -0.001      0.000
     38 H        0.001      0.000     -0.000      0.000     -0.000      0.000
     40 H        0.009      0.003     -0.015     -0.005      0.009     -0.000
     41 H       -0.002     -0.001      0.001      0.001      0.006     -0.000
     42 H        0.033      0.001      0.001     -0.000     -0.023      0.000
     45 H        0.000      0.000     -0.000      0.001      0.000      0.000
     46 H        0.000      0.000     -0.000      0.000      0.000      0.000
     47 H       -0.000      0.000     -0.000      0.000      0.001      0.000
     48 H       -0.051      0.016     -0.004      0.029      0.044     -0.003
     52 H       -0.628      0.149      0.120      0.046     -0.359      0.132
     53 H       10.275     -0.371     -0.167     -0.322     -0.044     -0.021
     57 H        0.000      2.995      4.785     12.972      2.455      0.504
     58 H        2.995      0.000     -0.239     -0.264     -0.324      3.840
     61 H        4.785     -0.239      0.000    -12.993    -12.511     -0.088
     62 H       12.972     -0.264    -12.993      0.000    -12.301     -0.080
     63 H        2.455     -0.324    -12.511    -12.301      0.000      0.045
     64 H        0.504      3.840     -0.088     -0.080      0.045      0.000
     65 H       -0.468      3.085     -0.108     -0.260      0.004    -13.170
     66 H       -0.540     13.339      0.054      0.032      0.037    -13.074
     67 H       -0.272     13.106     -0.051      0.032      0.026     -0.225
     68 H       -0.309      3.108      0.008      0.038      0.054     -0.018
     69 H       -0.063      3.708      0.576     -0.065      0.018     -0.234
     70 H       -0.002      0.031      0.001      0.001     -0.015      0.002
     71 H        0.069      0.112     -0.015     -0.010      0.013      0.003
     72 H        0.018     -0.011      0.002      0.002     -0.010     -0.001
                 65 H       66 H       67 H       68 H       69 H       70 H  
      3 H        0.000      0.000      0.000      0.000      0.000      0.000
      4 H        0.000      0.000      0.000      0.000      0.000      0.000
      8 H        0.000      0.000      0.000      0.000      0.000      0.000
      9 H        0.000      0.000      0.000      0.000      0.000      0.000
     10 H        0.000      0.000      0.000      0.000      0.000      0.000
     11 H        0.000      0.000      0.000      0.000      0.000      0.000
     13 H        0.000      0.000      0.000      0.000      0.000      0.000
     16 H        0.000      0.000      0.000      0.000      0.000      0.000
     17 H        0.000      0.000      0.000      0.000      0.000      0.000
     19 H        0.000      0.000      0.000      0.000      0.000      0.000
     21 H        0.000      0.000      0.000      0.000      0.000      0.003
     24 H        0.000      0.000      0.000      0.000      0.000      0.036
     25 H        0.000      0.000      0.000      0.000      0.000      0.000
     27 H        0.000      0.000      0.000      0.000      0.000     -0.010
     28 H        0.000      0.000      0.000      0.000      0.000     -0.011
     30 H        0.000      0.000      0.000     -0.000      0.000      0.077
     31 H        0.000      0.000      0.000      0.000      0.000     -0.044
     33 H        0.000      0.000      0.000      0.000      0.000      0.004
     35 H        0.000      0.000      0.000      0.000      0.000      0.000
     37 H        0.000      0.000      0.000      0.000      0.000      0.065
     38 H       -0.000      0.000     -0.000      0.000      0.000      0.010
     40 H        0.001     -0.001     -0.002     -0.000     -0.002     -0.022
     41 H       -0.000     -0.000     -0.000     -0.000      0.000      0.010
     42 H       -0.000      0.000      0.001     -0.000      0.001     -0.442
     45 H        0.000     -0.000      0.000      0.000      0.000     -0.028
     46 H        0.000     -0.000     -0.000      0.000      0.000     -0.016
     47 H        0.000     -0.000      0.000      0.000      0.000     -0.011
     48 H       -0.000     -0.004     -0.004      0.003     -0.004      2.280
     52 H       -0.014      0.095      0.041      0.008      0.054     -0.152
     53 H       -0.000     -0.059      0.001     -0.010     -0.046      0.093
     57 H       -0.468     -0.540     -0.272     -0.309     -0.063     -0.002
     58 H        3.085     13.339     13.106      3.108      3.708      0.031
     61 H       -0.108      0.054     -0.051      0.008      0.576      0.001
     62 H       -0.260      0.032      0.032      0.038     -0.065      0.001
     63 H        0.004      0.037      0.026      0.054      0.018     -0.015
     64 H      -13.170    -13.074     -0.225     -0.018     -0.234      0.002
     65 H        0.000    -12.014     -0.292      2.880     -0.061     -0.000
     66 H      -12.014      0.000     -0.322     -0.248     -0.191      0.001
     67 H       -0.292     -0.322      0.000    -12.463    -12.502     -0.024
     68 H        2.880     -0.248    -12.463      0.000    -12.360     -0.002
     69 H       -0.061     -0.191    -12.502    -12.360      0.000     -0.002
     70 H       -0.000      0.001     -0.024     -0.002     -0.002      0.000
     71 H        0.004     -0.003     -0.001      0.004      0.003    -13.277
     72 H       -0.001      0.001     -0.003      0.001      0.000    -12.536
                 71 H       72 H  
      3 H        0.000      0.000
      4 H        0.000      0.000
      8 H        0.000      0.000
      9 H        0.000      0.000
     10 H        0.000      0.000
     11 H        0.000      0.000
     13 H        0.000      0.000
     16 H        0.000      0.000
     17 H        0.000      0.000
     19 H       -0.000      0.000
     21 H        0.001      0.001
     24 H        0.020      0.010
     25 H        0.004      0.000
     27 H       -0.010     -0.002
     28 H       -0.009     -0.004
     30 H       -0.449      0.071
     31 H       -0.080      0.012
     33 H        0.004     -0.001
     35 H        0.000      0.000
     37 H       -0.006     -0.020
     38 H        0.004      0.037
     40 H        0.083      0.026
     41 H        0.027     -0.053
     42 H       -0.194     -0.343
     45 H       -0.050     -0.031
     46 H       -0.202     -0.036
     47 H       -0.019      0.034
     48 H        4.511     12.632
     52 H       -0.084     -0.267
     53 H       -0.389      0.102
     57 H        0.069      0.018
     58 H        0.112     -0.011
     61 H       -0.015      0.002
     62 H       -0.010      0.002
     63 H        0.013     -0.010
     64 H        0.003     -0.001
     65 H        0.004     -0.001
     66 H       -0.003      0.001
     67 H       -0.001     -0.003
     68 H        0.004      0.001
     69 H        0.003      0.000
     70 H      -13.277    -12.536
     71 H        0.000    -12.405
     72 H      -12.405      0.000

Maximum memory used throughout the entire EPRNMR-calculation: 972.1 MB

Timings for individual modules:

Sum of individual times         ...      399.779 sec (=   6.663 min)
GTO integral calculation        ...        0.593 sec (=   0.010 min)   0.1 %
SCF iterations                  ...      101.171 sec (=   1.686 min)  25.3 %
EPR/NMR calculation             ...      298.015 sec (=   4.967 min)  74.5 %
                             ****ORCA TERMINATED NORMALLY****
TOTAL RUN TIME: 0 days 0 hours 6 minutes 40 seconds 222 msec
