
                                 *****************
                                 * O   R   C   A *
                                 *****************

                                            #,                                       
                                            ###                                      
                                            ####                                     
                                            #####                                    
                                            ######                                   
                                           ########,                                 
                                     ,,################,,,,,                         
                               ,,#################################,,                 
                          ,,##########################################,,             
                       ,#########################################, ''#####,          
                    ,#############################################,,   '####,        
                  ,##################################################,,,,####,       
                ,###########''''           ''''###############################       
              ,#####''   ,,,,##########,,,,          '''####'''          '####       
            ,##' ,,,,###########################,,,                        '##       
           ' ,,###''''                  '''############,,,                           
         ,,##''                                '''############,,,,        ,,,,,,###''
      ,#''                                            '''#######################'''  
     '                                                          ''''####''''         
             ,#######,   #######,   ,#######,      ##                                
            ,#'     '#,  ##    ##  ,#'     '#,    #''#        ######   ,####,        
            ##       ##  ##   ,#'  ##            #'  '#       #        #'  '#        
            ##       ##  #######   ##           ,######,      #####,   #    #        
            '#,     ,#'  ##    ##  '#,     ,#' ,#      #,         ##   #,  ,#        
             '#######'   ##     ##  '#######'  #'      '#     #####' # '####'        



                  #######################################################
                  #                        -***-                        #
                  #          Department of theory and spectroscopy      #
                  #    Directorship and core code : Frank Neese         #
                  #        Max Planck Institute fuer Kohlenforschung    #
                  #                Kaiser Wilhelm Platz 1               #
                  #                 D-45470 Muelheim/Ruhr               #
                  #                      Germany                        #
                  #                                                     #
                  #                  All rights reserved                #
                  #                        -***-                        #
                  #######################################################


                         Program Version 5.0.2 -  RELEASE  -


 With contributions from (in alphabetic order):
   Daniel Aravena         : Magnetic Suceptibility
   Michael Atanasov       : Ab Initio Ligand Field Theory (pilot matlab implementation)
   Alexander A. Auer      : GIAO ZORA, VPT2 properties, NMR spectrum
   Ute Becker             : Parallelization
   Giovanni Bistoni       : ED, misc. LED, open-shell LED, HFLD
   Martin Brehm           : Molecular dynamics
   Dmytro Bykov           : SCF Hessian
   Vijay G. Chilkuri      : MRCI spin determinant printing, contributions to CSF-ICE
   Dipayan Datta          : RHF DLPNO-CCSD density
   Achintya Kumar Dutta   : EOM-CC, STEOM-CC
   Dmitry Ganyushin       : Spin-Orbit,Spin-Spin,Magnetic field MRCI
   Miquel Garcia          : C-PCM and meta-GGA Hessian, CC/C-PCM, Gaussian charge scheme
   Yang Guo               : DLPNO-NEVPT2, F12-NEVPT2, CIM, IAO-localization
   Andreas Hansen         : Spin unrestricted coupled pair/coupled cluster methods
   Benjamin Helmich-Paris : MC-RPA, TRAH-SCF, COSX integrals
   Lee Huntington         : MR-EOM, pCC
   Robert Izsak           : Overlap fitted RIJCOSX, COSX-SCS-MP3, EOM
   Marcus Kettner         : VPT2
   Christian Kollmar      : KDIIS, OOCD, Brueckner-CCSD(T), CCSD density, CASPT2, CASPT2-K
   Simone Kossmann        : Meta GGA functionals, TD-DFT gradient, OOMP2, MP2 Hessian
   Martin Krupicka        : Initial AUTO-CI
   Lucas Lang             : DCDCAS
   Marvin Lechner         : AUTO-CI (C++ implementation), FIC-MRCC
   Dagmar Lenk            : GEPOL surface, SMD
   Dimitrios Liakos       : Extrapolation schemes; Compound Job, initial MDCI parallelization
   Dimitrios Manganas     : Further ROCIS development; embedding schemes
   Dimitrios Pantazis     : SARC Basis sets
   Anastasios Papadopoulos: AUTO-CI, single reference methods and gradients
   Taras Petrenko         : DFT Hessian,TD-DFT gradient, ASA, ECA, R-Raman, ABS, FL, XAS/XES, NRVS
   Peter Pinski           : DLPNO-MP2, DLPNO-MP2 Gradient
   Christoph Reimann      : Effective Core Potentials
   Marius Retegan         : Local ZFS, SOC
   Christoph Riplinger    : Optimizer, TS searches, QM/MM, DLPNO-CCSD(T), (RO)-DLPNO pert. Triples
   Tobias Risthaus        : Range-separated hybrids, TD-DFT gradient, RPA, STAB
   Michael Roemelt        : Original ROCIS implementation
   Masaaki Saitow         : Open-shell DLPNO-CCSD energy and density
   Barbara Sandhoefer     : DKH picture change effects
   Avijit Sen             : IP-ROCIS
   Kantharuban Sivalingam : CASSCF convergence, NEVPT2, FIC-MRCI
   Bernardo de Souza      : ESD, SOC TD-DFT
   Georgi Stoychev        : AutoAux, RI-MP2 NMR, DLPNO-MP2 response
   Willem Van den Heuvel  : Paramagnetic NMR
   Boris Wezisla          : Elementary symmetry handling
   Frank Wennmohs         : Technical directorship


 We gratefully acknowledge several colleagues who have allowed us to
 interface, adapt or use parts of their codes:
   Stefan Grimme, W. Hujo, H. Kruse, P. Pracht,  : VdW corrections, initial TS optimization,
                  C. Bannwarth, S. Ehlert          DFT functionals, gCP, sTDA/sTD-DF
   Ed Valeev, F. Pavosevic, A. Kumar             : LibInt (2-el integral package), F12 methods
   Garnet Chan, S. Sharma, J. Yang, R. Olivares  : DMRG
   Ulf Ekstrom                                   : XCFun DFT Library
   Mihaly Kallay                                 : mrcc  (arbitrary order and MRCC methods)
   Jiri Pittner, Ondrej Demel                    : Mk-CCSD
   Frank Weinhold                                : gennbo (NPA and NBO analysis)
   Christopher J. Cramer and Donald G. Truhlar   : smd solvation model
   Lars Goerigk                                  : TD-DFT with DH, B97 family of functionals
   V. Asgeirsson, H. Jonsson                     : NEB implementation
   FAccTs GmbH                                   : IRC, NEB, NEB-TS, DLPNO-Multilevel, CI-OPT
                                                   MM, QMMM, 2- and 3-layer-ONIOM, Crystal-QMMM,
                                                   LR-CPCM, SF, NACMEs, symmetry and pop. for TD-DFT,
                                                   nearIR, NL-DFT gradient (VV10), updates on ESD,
                                                   ML-optimized integration grids
   S Lehtola, MJT Oliveira, MAL Marques          : LibXC Library
   Liviu Ungur et al                             : ANISO software


 Your calculation uses the libint2 library for the computation of 2-el integrals
 For citations please refer to: http://libint.valeyev.net

 Your ORCA version has been built with support for libXC version: 5.1.0
 For citations please refer to: https://tddft.org/programs/libxc/

 This ORCA versions uses:
   CBLAS   interface :  Fast vector & matrix operations
   LAPACKE interface :  Fast linear algebra routines
   SCALAPACK package :  Parallel linear algebra routines
   Shared memory     :  Shared parallel matrices
   BLAS/LAPACK       :  OpenBLAS 0.3.15  USE64BITINT DYNAMIC_ARCH NO_AFFINITY Zen SINGLE_THREADED
        Core in use  :  Zen
   Copyright (c) 2011-2014, The OpenBLAS Project


Your calculation utilizes the atom-pairwise dispersion correction
based on tight binding partial charges (D4)
Cite in your paper:
E.Caldeweyher, C.Bannwarth, S.Grimme, J.Chem.Phys., (2017), 147, 034112.
E.Caldeweyher, S.Ehlert, A.Hansen, H.Neugebauer, S.Grimme, J.Chem.Phys., (2018), in progress.
   

================================================================================

----- Orbital basis set information -----
Your calculation utilizes the basis: pcSseg-1
   F. Jensen, J. Chem. Theory Comput. 11, 132 (2015).

----- AuxJ basis set information -----
Your calculation utilizes the auxiliary basis: def2/J
   F. Weigend, Phys. Chem. Chem. Phys. 8, 1057 (2006).

================================================================================
                                        WARNINGS
                       Please study these warnings very carefully!
================================================================================



WARNING: Found flag for RIJCOSX approximation but no HF exchange needed!
  ===> : RIJCOSX  will be disabled and Split-RI-J is turned on

INFO   : the flag for use of the SHARK integral package has been found!

================================================================================
                                       INPUT FILE
================================================================================
NAME = inpS
|  1> ! revTPSS
|  2> ! D4
|  3> ! pcSseg-1
|  4> ! def2/J RIJCOSX
|  5> ! DEFGRID2
|  6> ! scfconv7
|  7> ! smallprint printgap noloewdin
|  8> ! NOSOSCF
|  9> %MaxCore 4000
| 10> %output
| 11>        print[P_BondOrder_M] 1
| 12>        print[P_Mayer] 1
| 13>        print[P_basis] 2
| 14> end
| 15> %pal
| 16>     nprocs 4
| 17> end
| 18> ! CPCM(chloroform)
| 19> *xyz 0 1
| 20> C   -5.0234418400   0.2991997900   0.3423899600
| 21> C   -6.4308484400  -0.1370136400   0.0094722500
| 22> C   -6.9847601700   0.6122833400  -1.2084822400
| 23> H   -7.0950027100   0.0888144100   0.8611244100
| 24> H   -6.4694997300  -1.2175223000  -0.1671469000
| 25> C   -4.8510591200   1.7641728200   0.4439410500
| 26> C   -5.4498126400   2.5454699800  -0.7038783700
| 27> C   -6.8961790600   2.1182994500  -0.9891593000
| 28> H   -4.8475965600   2.3545012800  -1.6051776100
| 29> H   -5.3978651000   3.6197530200  -0.4978809300
| 30> H   -7.2804909500   2.6436508400  -1.8713654400
| 31> H   -7.5357727700   2.3877863000  -0.1350438400
| 32> O   -8.3226469500   0.1948606600  -1.5098073800
| 33> H   -6.3961666500   0.3379559200  -2.0952164300
| 34> C   -4.0284347200  -0.6090240300   0.4792191600
| 35> C   -4.2576169500   2.3651915300   1.4816043000
| 36> H   -3.8554685500   1.7929420700   2.3129718100
| 37> H   -4.1707987100   3.4482814200   1.5260510400
| 38> C   -2.6295845000  -0.3230259800   0.6994567800
| 39> H   -4.3137878200  -1.6544725100   0.3702634300
| 40> C   -1.6490928100  -1.2280763900   0.9071876700
| 41> H   -2.3509795300   0.7281579000   0.6821908900
| 42> C   -1.8359981500  -2.7209154000   1.0086633100
| 43> C   -0.8995339000  -3.4820338300   0.0511036500
| 44> H   -2.8722681500  -3.0229176700   0.8338766300
| 45> H   -1.5888586500  -3.0206767600   2.0398148900
| 46> C    0.5648375200  -3.0387397800   0.1772838800
| 47> H   -1.2439936600  -3.3333007300  -0.9800420400
| 48> H   -0.9758207500  -4.5575472500   0.2529181800
| 49> C    0.7173819300  -1.5197835000   0.0176997700
| 50> H    1.1644561000  -3.5794506000  -0.5623584900
| 51> H    0.9453168700  -3.3238984700   1.1697860500
| 52> C   -0.2111723000  -0.8426292100   1.0749196800
| 53> H    0.1135046500  -1.2712565000   2.0413310500
| 54> C    0.2182285500   0.6215765500   1.0682900500
| 55> H   -8.8773439500   0.4253716200  -0.7525572100
| 56> C    1.7476881700   0.5500573800   0.8350484600
| 57> H   -0.0472898900   1.1316437500   2.0003073200
| 58> H   -0.2688284300   1.1664038900   0.2518917800
| 59> C    2.0848880300  -0.9216597700   0.4505618500
| 60> H    2.3119497300   0.8561471500   1.7215711900
| 61> H    2.0530817500   1.2261777900   0.0277467700
| 62> H    2.3846754300  -1.4635142200   1.3626112000
| 63> C    3.2731747700  -0.9912383000  -0.5301444700
| 64> C    0.3492312100  -1.0743152600  -1.4038066000
| 65> H   -0.7145956400  -1.2295589500  -1.6079390500
| 66> H    0.9222729400  -1.6398617100  -2.1468997700
| 67> H    0.5598996300  -0.0116110000  -1.5601818200
| 68> H    3.0063419400  -0.4279183700  -1.4367781600
| 69> C    3.6506595900  -2.4244121400  -0.9349173400
| 70> C    4.4717076700  -0.3235990400   0.0895216300
| 71> C    5.0960304600   0.7480028300  -0.3969193300
| 72> H    4.8455343900  -0.7842453500   1.0097806300
| 73> H    4.7091248500   1.2076626200  -1.3102839000
| 74> C    6.2868083200   1.4163993600   0.2305367800
| 75> C    5.9428679500   2.8681114400   0.5964266500
| 76> C    7.5608605900   1.3298972600  -0.6517448900
| 77> H    6.5196456700   0.8790893000   1.1622832200
| 78> H    8.3466636800   1.8683256900  -0.0994144000
| 79> C    7.4073238700   2.0007590200  -2.0196268000
| 80> C    8.0131371000  -0.1216144200  -0.8203267900
| 81> H    5.1436774100   2.8947811500   1.3446599300
| 82> H    5.5949553900   3.4287484600  -0.2780708200
| 83> H    6.8176195400   3.3863454000   1.0068309700
| 84> H    8.3585197000   1.9703130300  -2.5624787500
| 85> H    7.1066600700   3.0499803700  -1.9358102500
| 86> H    6.6622600600   1.4805146800  -2.6328855600
| 87> H    7.2688725600  -0.6949638200  -1.3857092700
| 88> H    8.1465202400  -0.6123143000   0.1507893600
| 89> H    8.9636553900  -0.1732172300  -1.3630123900
| 90> H    4.5779135100  -2.4208504600  -1.5180276600
| 91> H    2.8728804400  -2.8908588500  -1.5447503800
| 92> H    3.8097588100  -3.0497900100  -0.0479075500
| 93> *
| 94> %eprnmr
| 95>  Nuclei = all H { shift }
| 96>  origin giao
| 97>  giao_2el giao_2el_same_as_scf
| 98>  giao_1el giao_1el_analytic
| 99> end
|100> 
|101>                          ****END OF INPUT****
================================================================================

                       ****************************
                       * Single Point Calculation *
                       ****************************

---------------------------------
CARTESIAN COORDINATES (ANGSTROEM)
---------------------------------
  C     -5.023442    0.299200    0.342390
  C     -6.430848   -0.137014    0.009472
  C     -6.984760    0.612283   -1.208482
  H     -7.095003    0.088814    0.861124
  H     -6.469500   -1.217522   -0.167147
  C     -4.851059    1.764173    0.443941
  C     -5.449813    2.545470   -0.703878
  C     -6.896179    2.118299   -0.989159
  H     -4.847597    2.354501   -1.605178
  H     -5.397865    3.619753   -0.497881
  H     -7.280491    2.643651   -1.871365
  H     -7.535773    2.387786   -0.135044
  O     -8.322647    0.194861   -1.509807
  H     -6.396167    0.337956   -2.095216
  C     -4.028435   -0.609024    0.479219
  C     -4.257617    2.365192    1.481604
  H     -3.855469    1.792942    2.312972
  H     -4.170799    3.448281    1.526051
  C     -2.629584   -0.323026    0.699457
  H     -4.313788   -1.654473    0.370263
  C     -1.649093   -1.228076    0.907188
  H     -2.350980    0.728158    0.682191
  C     -1.835998   -2.720915    1.008663
  C     -0.899534   -3.482034    0.051104
  H     -2.872268   -3.022918    0.833877
  H     -1.588859   -3.020677    2.039815
  C      0.564838   -3.038740    0.177284
  H     -1.243994   -3.333301   -0.980042
  H     -0.975821   -4.557547    0.252918
  C      0.717382   -1.519783    0.017700
  H      1.164456   -3.579451   -0.562358
  H      0.945317   -3.323898    1.169786
  C     -0.211172   -0.842629    1.074920
  H      0.113505   -1.271256    2.041331
  C      0.218229    0.621577    1.068290
  H     -8.877344    0.425372   -0.752557
  C      1.747688    0.550057    0.835048
  H     -0.047290    1.131644    2.000307
  H     -0.268828    1.166404    0.251892
  C      2.084888   -0.921660    0.450562
  H      2.311950    0.856147    1.721571
  H      2.053082    1.226178    0.027747
  H      2.384675   -1.463514    1.362611
  C      3.273175   -0.991238   -0.530144
  C      0.349231   -1.074315   -1.403807
  H     -0.714596   -1.229559   -1.607939
  H      0.922273   -1.639862   -2.146900
  H      0.559900   -0.011611   -1.560182
  H      3.006342   -0.427918   -1.436778
  C      3.650660   -2.424412   -0.934917
  C      4.471708   -0.323599    0.089522
  C      5.096030    0.748003   -0.396919
  H      4.845534   -0.784245    1.009781
  H      4.709125    1.207663   -1.310284
  C      6.286808    1.416399    0.230537
  C      5.942868    2.868111    0.596427
  C      7.560861    1.329897   -0.651745
  H      6.519646    0.879089    1.162283
  H      8.346664    1.868326   -0.099414
  C      7.407324    2.000759   -2.019627
  C      8.013137   -0.121614   -0.820327
  H      5.143677    2.894781    1.344660
  H      5.594955    3.428748   -0.278071
  H      6.817620    3.386345    1.006831
  H      8.358520    1.970313   -2.562479
  H      7.106660    3.049980   -1.935810
  H      6.662260    1.480515   -2.632886
  H      7.268873   -0.694964   -1.385709
  H      8.146520   -0.612314    0.150789
  H      8.963655   -0.173217   -1.363012
  H      4.577914   -2.420850   -1.518028
  H      2.872880   -2.890859   -1.544750
  H      3.809759   -3.049790   -0.047908

----------------------------
CARTESIAN COORDINATES (A.U.)
----------------------------
  NO LB      ZA    FRAG     MASS         X           Y           Z
   0 C     6.0000    0    12.011   -9.492929    0.565406    0.647023
   1 C     6.0000    0    12.011  -12.152542   -0.258918    0.017900
   2 C     6.0000    0    12.011  -13.199284    1.157048   -2.283700
   3 H     1.0000    0     1.008  -13.407612    0.167835    1.627289
   4 H     1.0000    0     1.008  -12.225583   -2.300784   -0.315862
   5 C     6.0000    0    12.011   -9.167173    3.333803    0.838927
   6 C     6.0000    0    12.011  -10.298653    4.810241   -1.330137
   7 C     6.0000    0    12.011  -13.031890    4.003006   -1.869240
   8 H     1.0000    0     1.008   -9.160630    4.449363   -3.033346
   9 H     1.0000    0     1.008  -10.200487    6.840342   -0.940859
  10 H     1.0000    0     1.008  -13.758134    4.995776   -3.536368
  11 H     1.0000    0     1.008  -14.240547    4.512262   -0.255196
  12 O     8.0000    0    15.999  -15.727523    0.368233   -2.853122
  13 H     1.0000    0     1.008  -12.087003    0.638644   -3.959385
  14 C     6.0000    0    12.011   -7.612638   -1.150889    0.905593
  15 C     6.0000    0    12.011   -8.045730    4.469564    2.799826
  16 H     1.0000    0     1.008   -7.285780    3.388169    4.370883
  17 H     1.0000    0     1.008   -7.881667    6.516308    2.883819
  18 C     6.0000    0    12.011   -4.969195   -0.610431    1.321782
  19 H     1.0000    0     1.008   -8.151878   -3.126500    0.699696
  20 C     6.0000    0    12.011   -3.116334   -2.320728    1.714336
  21 H     1.0000    0     1.008   -4.442707    1.376019    1.289154
  22 C     6.0000    0    12.011   -3.469534   -5.141785    1.906097
  23 C     6.0000    0    12.011   -1.699873   -6.580090    0.096572
  24 H     1.0000    0     1.008   -5.427800   -5.712487    1.575798
  25 H     1.0000    0     1.008   -3.002508   -5.708252    3.854692
  26 C     6.0000    0    12.011    1.067388   -5.742386    0.335018
  27 H     1.0000    0     1.008   -2.350807   -6.299026   -1.852011
  28 H     1.0000    0     1.008   -1.844034   -8.612516    0.477946
  29 C     6.0000    0    12.011    1.355655   -2.871975    0.033448
  30 H     1.0000    0     1.008    2.200503   -6.764181   -1.062704
  31 H     1.0000    0     1.008    1.786390   -6.281258    2.210575
  32 C     6.0000    0    12.011   -0.399058   -1.592338    2.031304
  33 H     1.0000    0     1.008    0.214493   -2.402327    3.857557
  34 C     6.0000    0    12.011    0.412392    1.174609    2.018776
  35 H     1.0000    0     1.008  -16.775749    0.803836   -1.422127
  36 C     6.0000    0    12.011    3.302652    1.039458    1.578013
  37 H     1.0000    0     1.008   -0.089365    2.138497    3.780033
  38 H     1.0000    0     1.008   -0.508012    2.204184    0.476006
  39 C     6.0000    0    12.011    3.939867   -1.741685    0.851439
  40 H     1.0000    0     1.008    4.368952    1.617884    3.253298
  41 H     1.0000    0     1.008    3.879762    2.317140    0.052434
  42 H     1.0000    0     1.008    4.506383   -2.765641    2.574962
  43 C     6.0000    0    12.011    6.185404   -1.873169   -1.001828
  44 C     6.0000    0    12.011    0.659951   -2.030162   -2.652810
  45 H     1.0000    0     1.008   -1.350390   -2.323530   -3.038564
  46 H     1.0000    0     1.008    1.742843   -3.098890   -4.057053
  47 H     1.0000    0     1.008    1.058057   -0.021942   -2.948316
  48 H     1.0000    0     1.008    5.681163   -0.808649   -2.715117
  49 C     6.0000    0    12.011    6.898747   -4.581475   -1.766738
  50 C     6.0000    0    12.011    8.450303   -0.611514    0.169171
  51 C     6.0000    0    12.011    9.630102    1.413520   -0.750069
  52 H     1.0000    0     1.008    9.156733   -1.482009    1.908209
  53 H     1.0000    0     1.008    8.898956    2.282152   -2.476078
  54 C     6.0000    0    12.011   11.880346    2.676607    0.435651
  55 C     6.0000    0    12.011   11.230393    5.419945    1.127083
  56 C     6.0000    0    12.011   14.287956    2.513142   -1.231619
  57 H     1.0000    0     1.008   12.320345    1.661238    2.196397
  58 H     1.0000    0     1.008   15.772908    3.530624   -0.187866
  59 C     6.0000    0    12.011   13.997813    3.780887   -3.816542
  60 C     6.0000    0    12.011   15.142635   -0.229818   -1.550193
  61 H     1.0000    0     1.008    9.720142    5.470344    2.541039
  62 H     1.0000    0     1.008   10.572933    6.479396   -0.525478
  63 H     1.0000    0     1.008   12.883434    6.399265    1.902635
  64 H     1.0000    0     1.008   15.795313    3.723352   -4.842383
  65 H     1.0000    0     1.008   13.429641    5.763628   -3.658151
  66 H     1.0000    0     1.008   12.589847    2.797767   -4.975433
  67 H     1.0000    0     1.008   13.736178   -1.313291   -2.618611
  68 H     1.0000    0     1.008   15.394692   -1.157106    0.284951
  69 H     1.0000    0     1.008   16.938854   -0.327333   -2.575720
  70 H     1.0000    0     1.008    8.651003   -4.574744   -2.868657
  71 H     1.0000    0     1.008    5.428957   -5.462932   -2.919155
  72 H     1.0000    0     1.008    7.199401   -5.763268   -0.090532

--------------------------------
INTERNAL COORDINATES (ANGSTROEM)
--------------------------------
 C      0   0   0     0.000000000000     0.00000000     0.00000000
 C      1   0   0     1.510599118187     0.00000000     0.00000000
 C      2   1   0     1.533517951828   111.74458098     0.00000000
 H      2   1   3     1.103363314670   109.36609705   241.47555934
 H      2   1   3     1.095530561281   110.68378790   122.89806712
 C      1   2   3     1.478571744848   114.19681046    50.46548430
 C      6   1   2     1.512091416174   114.43405189   312.08157342
 C      3   2   1     1.524478169289   110.33111512   305.02087585
 H      7   6   1     1.100669601386   108.37851059   289.94867690
 H      7   6   1     1.095087915297   110.20046737   172.74435927
 H      8   3   2     1.096347292250   109.70910861   179.15036336
 H      8   3   2     1.100552813456   108.64983135   296.60787339
 O      3   2   1     1.433519992840   111.20917754   180.30720556
 H      3   2   1     1.099088435416   108.98865256    65.11355207
 C      1   2   3     1.354116651562   120.87683607   232.68483930
 C      6   1   2     1.337961927450   123.37052338   129.88049171
 H     16   6   1     1.086445910654   121.40216937     0.67385536
 H     16   6   1     1.087472587845   120.96421129   181.33244716
 C     15   1   2     1.444673468941   126.44990871   175.24804708
 H     15   1   2     1.089155758886   116.17888526   357.93830610
 C     19  15   1     1.350419313199   126.42768960   176.18907578
 H     19  15   1     1.087615000742   115.90958305   355.43081430
 C     21  19  15     1.507912206135   125.72224876   357.20050970
 C     23  21  19     1.540515192549   111.83599682   127.59027896
 H     23  21  19     1.093440106952   112.34270435     3.46301499
 H     23  21  19     1.101911242499   107.72764243   246.25924492
 C     24  23  21     1.535192079487   112.71167210    50.71480367
 H     24  23  21     1.097285512207   109.04554189   288.60191753
 H     24  23  21     1.096940246596   109.13421755   172.64208524
 C     27  24  23     1.534915328524   111.83934471   306.35029681
 H     27  24  23     1.094980122123   108.91929118   182.85088833
 H     27  24  23     1.100518319572   109.21312869    66.34881743
 C     21  19  15     1.498105119418   122.79829605   177.56789738
 H     33  21  19     1.105932824207   106.25442568   124.38183428
 C     33  21  19     1.525885824560   121.09834418     2.21445852
 H     13   3   2     0.966567061540   107.54626235    62.71527181
 C     35  33  21     1.548794163275   103.54691146   196.51543665
 H     35  33  21     1.095136878237   112.02451143    74.56351766
 H     35  33  21     1.095704096660   110.81095640   314.96693338
 C     30  27  24     1.554089608172   116.06315342   166.24588923
 H     37  35  33     1.094533967586   111.97499494   249.05680333
 H     37  35  33     1.096421482004   110.94479097   130.49347261
 H     40  30  27     1.102412240053   106.29321129   320.85031450
 C     40  30  27     1.542287727496   118.91379619    81.63537942
 C     30  27  24     1.534489252304   111.08521150   294.19762522
 H     45  30  27     1.094302621403   111.39884819    66.32241689
 H     45  30  27     1.095630900773   110.66863931   306.17618051
 H     45  30  27     1.094611683127   111.59280646   186.29104360
 H     44  40  30     1.100233498192   108.30234886    61.40944587
 C     44  40  30     1.536334312993   113.51101870   300.64034131
 C     44  40  30     1.505393426771   109.36970280   178.60635813
 C     51  44  40     1.332191548339   125.41933233   241.67675871
 H     51  44  40     1.094905505778   115.54451459    62.31788092
 H     52  51  44     1.093260221230   118.51642711     1.31473833
 C     52  51  44     1.502799721573   125.21530755   179.56709758
 C     55  52  51     1.536111434207   110.02113353   241.10961279
 C     55  52  51     1.552131677795   112.84812306   115.44749294
 H     55  52  51     1.100484784350   107.69778170   358.45761601
 H     57  55  52     1.101117904981   105.86687850   178.78918649
 C     57  55  52     1.531251104530   113.64476974    60.68628841
 C     57  55  52     1.529660111163   110.99147267   295.68253292
 H     56  55  52     1.095111790621   110.43594038    62.85488125
 H     56  55  52     1.095492055031   111.38394948   303.44324028
 H     56  55  52     1.096443563244   110.92868027   183.01160545
 H     60  57  55     1.095622519363   110.08327819   175.86364059
 H     60  57  55     1.094664047085   112.27590507    55.96676476
 H     60  57  55     1.096294012111   111.09711108   294.74943320
 H     61  57  55     1.096501978417   110.62875644    65.58801270
 H     61  57  55     1.096195243129   111.29149792   305.79710892
 H     61  57  55     1.095744281332   110.83970117   185.34729358
 H     50  44  40     1.095367592642   110.19498112   187.69360891
 H     50  44  40     1.092890331241   111.73386080    67.79102702
 H     50  44  40     1.096903099479   110.75874392   307.17533060

---------------------------
INTERNAL COORDINATES (A.U.)
---------------------------
 C      0   0   0     0.000000000000     0.00000000     0.00000000
 C      1   0   0     2.854618631517     0.00000000     0.00000000
 C      2   1   0     2.897928950407   111.74458098     0.00000000
 H      2   1   3     2.085054490941   109.36609705   241.47555934
 H      2   1   3     2.070252732162   110.68378790   122.89806712
 C      1   2   3     2.794095667116   114.19681046    50.46548430
 C      6   1   2     2.857438666021   114.43405189   312.08157342
 C      3   2   1     2.880846237098   110.33111512   305.02087585
 H      7   6   1     2.079964110551   108.37851059   289.94867690
 H      7   6   1     2.069416252479   110.20046737   172.74435927
 H      8   3   2     2.071796130019   109.70910861   179.15036336
 H      8   3   2     2.079743413348   108.64983135   296.60787339
 O      3   2   1     2.708960193969   111.20917754   180.30720556
 H      3   2   1     2.076976139896   108.98865256    65.11355207
 C      1   2   3     2.558909624836   120.87683607   232.68483930
 C      6   1   2     2.528381620493   123.37052338   129.88049171
 H     16   6   1     2.053085230454   121.40216937     0.67385536
 H     16   6   1     2.055025369173   120.96421129   181.33244716
 C     15   1   2     2.730037209240   126.44990871   175.24804708
 H     15   1   2     2.058206101477   116.17888526   357.93830610
 C     19  15   1     2.551922667904   126.42768960   176.18907578
 H     19  15   1     2.055294490546   115.90958305   355.43081430
 C     21  19  15     2.849541103593   125.72224876   357.20050970
 C     23  21  19     2.911151819062   111.83599682   127.59027896
 H     23  21  19     2.066302345984   112.34270435     3.46301499
 H     23  21  19     2.082310472212   107.72764243   246.25924492
 C     24  23  21     2.901092593196   112.71167210    50.71480367
 H     24  23  21     2.073569108792   109.04554189   288.60191753
 H     24  23  21     2.072916651343   109.13421755   172.64208524
 C     27  24  23     2.900569609668   111.83934471   306.35029681
 H     27  24  23     2.069212552901   108.91929118   182.85088833
 H     27  24  23     2.079678229354   109.21312869    66.34881743
 C     21  19  15     2.831008395526   122.79829605   177.56789738
 H     33  21  19     2.089910160266   106.25442568   124.38183428
 C     33  21  19     2.883506320050   121.09834418     2.21445852
 H     13   3   2     1.826547036380   107.54626235    62.71527181
 C     35  33  21     2.926796806405   103.54691146   196.51543665
 H     35  33  21     2.069508779025   112.02451143    74.56351766
 H     35  33  21     2.070580666503   110.81095640   314.96693338
 C     30  27  24     2.936803747018   116.06315342   166.24588923
 H     37  35  33     2.068369443011   111.97499494   249.05680333
 H     37  35  33     2.071936328336   110.94479097   130.49347261
 H     40  30  27     2.083257220383   106.29321129   320.85031450
 C     40  30  27     2.914501424675   118.91379619    81.63537942
 C     30  27  24     2.899764442300   111.08521150   294.19762522
 H     45  30  27     2.067932262083   111.39884819    66.32241689
 H     45  30  27     2.070442346323   110.66863931   306.17618051
 H     45  30  27     2.068516304100   111.59280646   186.29104360
 H     44  40  30     2.079139994949   108.30234886    61.40944587
 C     44  40  30     2.903251101702   113.51101870   300.64034131
 C     44  40  30     2.844781300402   109.36970280   178.60635813
 C     51  44  40     2.517477184286   125.41933233   241.67675871
 H     51  44  40     2.069071548443   115.54451459    62.31788092
 H     52  51  44     2.065962411235   118.51642711     1.31473833
 C     52  51  44     2.839879907905   125.21530755   179.56709758
 C     55  52  51     2.902829921837   110.02113353   241.10961279
 C     55  52  51     2.933103794816   112.84812306   115.44749294
 H     55  52  51     2.079614856968   107.69778170   358.45761601
 H     57  55  52     2.080811281571   105.86687850   178.78918649
 C     57  55  52     2.893645229826   113.64476974    60.68628841
 C     57  55  52     2.890638688081   110.99147267   295.68253292
 H     56  55  52     2.069461370301   110.43594038    62.85488125
 H     56  55  52     2.070179965896   111.38394948   303.44324028
 H     56  55  52     2.071978055832   110.92868027   183.01160545
 H     60  57  55     2.070426507753   110.08327819   175.86364059
 H     60  57  55     2.068615257640   112.27590507    55.96676476
 H     60  57  55     2.071695445148   111.09711108   294.74943320
 H     61  57  55     2.072088444511   110.62875644    65.58801270
 H     61  57  55     2.071508798821   111.29149792   305.79710892
 H     61  57  55     2.070656604528   110.83970117   185.34729358
 H     50  44  40     2.069944766066   110.19498112   187.69360891
 H     50  44  40     2.065263420456   111.73386080    67.79102702
 H     50  44  40     2.072846453464   110.75874392   307.17533060

---------------------
BASIS SET INFORMATION
---------------------
There are 3 groups of distinct atoms

 Group   1 Type C   : 8s5p1d contracted to 3s3p1d pattern {521/311/1}
 Group   2 Type H   : 4s2p contracted to 2s1p pattern {31/2}
 Group   3 Type O   : 8s5p1d contracted to 3s3p1d pattern {521/311/1}

Atom   0C    basis set group =>   1
Atom   1C    basis set group =>   1
Atom   2C    basis set group =>   1
Atom   3H    basis set group =>   2
Atom   4H    basis set group =>   2
Atom   5C    basis set group =>   1
Atom   6C    basis set group =>   1
Atom   7C    basis set group =>   1
Atom   8H    basis set group =>   2
Atom   9H    basis set group =>   2
Atom  10H    basis set group =>   2
Atom  11H    basis set group =>   2
Atom  12O    basis set group =>   3
Atom  13H    basis set group =>   2
Atom  14C    basis set group =>   1
Atom  15C    basis set group =>   1
Atom  16H    basis set group =>   2
Atom  17H    basis set group =>   2
Atom  18C    basis set group =>   1
Atom  19H    basis set group =>   2
Atom  20C    basis set group =>   1
Atom  21H    basis set group =>   2
Atom  22C    basis set group =>   1
Atom  23C    basis set group =>   1
Atom  24H    basis set group =>   2
Atom  25H    basis set group =>   2
Atom  26C    basis set group =>   1
Atom  27H    basis set group =>   2
Atom  28H    basis set group =>   2
Atom  29C    basis set group =>   1
Atom  30H    basis set group =>   2
Atom  31H    basis set group =>   2
Atom  32C    basis set group =>   1
Atom  33H    basis set group =>   2
Atom  34C    basis set group =>   1
Atom  35H    basis set group =>   2
Atom  36C    basis set group =>   1
Atom  37H    basis set group =>   2
Atom  38H    basis set group =>   2
Atom  39C    basis set group =>   1
Atom  40H    basis set group =>   2
Atom  41H    basis set group =>   2
Atom  42H    basis set group =>   2
Atom  43C    basis set group =>   1
Atom  44C    basis set group =>   1
Atom  45H    basis set group =>   2
Atom  46H    basis set group =>   2
Atom  47H    basis set group =>   2
Atom  48H    basis set group =>   2
Atom  49C    basis set group =>   1
Atom  50C    basis set group =>   1
Atom  51C    basis set group =>   1
Atom  52H    basis set group =>   2
Atom  53H    basis set group =>   2
Atom  54C    basis set group =>   1
Atom  55C    basis set group =>   1
Atom  56C    basis set group =>   1
Atom  57H    basis set group =>   2
Atom  58H    basis set group =>   2
Atom  59C    basis set group =>   1
Atom  60C    basis set group =>   1
Atom  61H    basis set group =>   2
Atom  62H    basis set group =>   2
Atom  63H    basis set group =>   2
Atom  64H    basis set group =>   2
Atom  65H    basis set group =>   2
Atom  66H    basis set group =>   2
Atom  67H    basis set group =>   2
Atom  68H    basis set group =>   2
Atom  69H    basis set group =>   2
Atom  70H    basis set group =>   2
Atom  71H    basis set group =>   2
Atom  72H    basis set group =>   2

-------------------------
BASIS SET IN INPUT FORMAT
-------------------------

 # Basis set for element : H 
 NewGTO H 
 S 3 
   1      12.2518000000      0.0372173893
   2       1.8687100000      0.2538082070
   3       0.4182080000      0.7973867639
 S 1 
   1       0.1061000000      1.0000000000
 P 2 
   1       9.0000000000      0.0402678705
   2       1.0000000000      0.9880231245
  end;

 # Basis set for element : C 
 NewGTO C 
 S 5 
   1    1243.2000000000      0.0056300977
   2     187.1450000000      0.0419506039
   3      42.5126000000      0.1846643605
   4      11.7393000000      0.4665574214
   5       3.5054800000      0.4482347783
 S 2 
   1       5.3908900000     -0.1481148174
   2       0.4933410000      1.0519817143
 S 1 
   1       0.1497410000      1.0000000000
 P 3 
   1      59.6736000000      0.0113906672
   2       9.1805600000      0.1672414929
   3       1.9365800000      0.9041087436
 P 1 
   1       0.5262960000      1.0000000000
 P 1 
   1       0.1363190000      1.0000000000
 D 1 
   1       0.8000000000      1.0000000000
  end;

 # Basis set for element : O 
 NewGTO O 
 S 5 
   1    2288.6400000000      0.0054511382
   2     344.4160000000      0.0407189228
   3      78.2538000000      0.1813694209
   4      21.7195000000      0.4655368202
   5       6.5590700000      0.4512113212
 S 2 
   1      10.4656000000     -0.1502112012
   2       0.9643510000      1.0528679834
 S 1 
   1       0.2851270000      1.0000000000
 P 3 
   1     110.8840000000      0.0113058003
   2      17.0590000000      0.1699226452
   3       3.6899900000      0.9008060328
 P 1 
   1       0.9929960000      1.0000000000
 P 1 
   1       0.2449240000      1.0000000000
 D 1 
   1       1.0000000000      1.0000000000
  end;

---------------------------------
AUXILIARY/J BASIS SET INFORMATION
---------------------------------
There are 3 groups of distinct atoms

 Group   1 Type C   : 12s5p4d2f1g contracted to 6s4p3d1f1g pattern {711111/2111/211/2/1}
 Group   2 Type H   : 5s2p1d contracted to 3s1p1d pattern {311/2/1}
 Group   3 Type O   : 12s5p4d2f1g contracted to 6s4p3d1f1g pattern {711111/2111/211/2/1}

Atom   0C    basis set group =>   1
Atom   1C    basis set group =>   1
Atom   2C    basis set group =>   1
Atom   3H    basis set group =>   2
Atom   4H    basis set group =>   2
Atom   5C    basis set group =>   1
Atom   6C    basis set group =>   1
Atom   7C    basis set group =>   1
Atom   8H    basis set group =>   2
Atom   9H    basis set group =>   2
Atom  10H    basis set group =>   2
Atom  11H    basis set group =>   2
Atom  12O    basis set group =>   3
Atom  13H    basis set group =>   2
Atom  14C    basis set group =>   1
Atom  15C    basis set group =>   1
Atom  16H    basis set group =>   2
Atom  17H    basis set group =>   2
Atom  18C    basis set group =>   1
Atom  19H    basis set group =>   2
Atom  20C    basis set group =>   1
Atom  21H    basis set group =>   2
Atom  22C    basis set group =>   1
Atom  23C    basis set group =>   1
Atom  24H    basis set group =>   2
Atom  25H    basis set group =>   2
Atom  26C    basis set group =>   1
Atom  27H    basis set group =>   2
Atom  28H    basis set group =>   2
Atom  29C    basis set group =>   1
Atom  30H    basis set group =>   2
Atom  31H    basis set group =>   2
Atom  32C    basis set group =>   1
Atom  33H    basis set group =>   2
Atom  34C    basis set group =>   1
Atom  35H    basis set group =>   2
Atom  36C    basis set group =>   1
Atom  37H    basis set group =>   2
Atom  38H    basis set group =>   2
Atom  39C    basis set group =>   1
Atom  40H    basis set group =>   2
Atom  41H    basis set group =>   2
Atom  42H    basis set group =>   2
Atom  43C    basis set group =>   1
Atom  44C    basis set group =>   1
Atom  45H    basis set group =>   2
Atom  46H    basis set group =>   2
Atom  47H    basis set group =>   2
Atom  48H    basis set group =>   2
Atom  49C    basis set group =>   1
Atom  50C    basis set group =>   1
Atom  51C    basis set group =>   1
Atom  52H    basis set group =>   2
Atom  53H    basis set group =>   2
Atom  54C    basis set group =>   1
Atom  55C    basis set group =>   1
Atom  56C    basis set group =>   1
Atom  57H    basis set group =>   2
Atom  58H    basis set group =>   2
Atom  59C    basis set group =>   1
Atom  60C    basis set group =>   1
Atom  61H    basis set group =>   2
Atom  62H    basis set group =>   2
Atom  63H    basis set group =>   2
Atom  64H    basis set group =>   2
Atom  65H    basis set group =>   2
Atom  66H    basis set group =>   2
Atom  67H    basis set group =>   2
Atom  68H    basis set group =>   2
Atom  69H    basis set group =>   2
Atom  70H    basis set group =>   2
Atom  71H    basis set group =>   2
Atom  72H    basis set group =>   2

-------------------------------------
AUXILIARY/J BASIS SET IN INPUT FORMAT
-------------------------------------

 # Auxiliary/J basis set for element : H 
 NewAuxJGTO H 
 S 3 
   1      15.6752927000      0.1007184237
   2       3.6063578000      0.3404257499
   3       1.2080016000      0.6491996172
 S 1 
   1       0.4726794000      1.0000000000
 S 1 
   1       0.2018100000      1.0000000000
 P 2 
   1       2.0281365000      0.5596620919
   2       0.5358730000      0.5596620919
 D 1 
   1       2.2165124000      1.0000000000
  end;

 # Auxiliary/J basis set for element : C 
 NewAuxJGTO C 
 S 7 
   1    1861.0916331000      0.0134602335
   2     642.9939764000      0.0299160374
   3     235.1105725000      0.1008649584
   4      90.7028894000      0.2370970548
   5      36.7794552000      0.3924037254
   6      15.6046273000      0.3195862154
   7       6.8907294000      0.0530104441
 S 1 
   1       3.1478850000     -1.0000000000
 S 1 
   1       1.4777287000      1.0000000000
 S 1 
   1       0.7076466000      1.0000000000
 S 1 
   1       0.3430122000      1.0000000000
 S 1 
   1       0.1669453000      1.0000000000
 P 2 
   1      13.5472892000     -0.6769313712
   2       5.4669419000     -0.3779500978
 P 1 
   1       2.1751721000      1.0000000000
 P 1 
   1       0.8582194000      1.0000000000
 P 1 
   1       0.3376720000      1.0000000000
 D 2 
   1       5.9287253000     -0.3533329857
   2       1.9809209000     -0.7456525731
 D 1 
   1       0.8055417000     -1.0000000000
 D 1 
   1       0.3531244000     -1.0000000000
 F 2 
   1       1.6755626000      0.6311076882
   2       0.5997536000      0.4968166032
 G 1 
   1       1.0024600000     -1.0000000000
  end;

 # Auxiliary/J basis set for element : O 
 NewAuxJGTO O 
 S 7 
   1    2876.8216605000      0.0168151159
   2    1004.7443032000      0.0340137548
   3     369.7579954000      0.1194951309
   4     142.9442404000      0.2664627624
   5      57.8366425000      0.4202764046
   6      24.3864983000      0.2765077335
   7      10.6622662000      0.0057008815
 S 1 
   1       4.8070437000     -1.0000000000
 S 1 
   1       2.2210770000      1.0000000000
 S 1 
   1       1.0447795000      1.0000000000
 S 1 
   1       0.4968425000      1.0000000000
 S 1 
   1       0.2371384000      1.0000000000
 P 2 
   1      64.2613382000     -0.2731534179
   2      16.3006076000     -0.8168011598
 P 1 
   1       4.3550542000      1.0000000000
 P 1 
   1       1.2019554000      1.0000000000
 P 1 
   1       0.3354196000      1.0000000000
 D 2 
   1       9.2146611000     -0.4661230638
   2       2.8435251000     -0.6600908911
 D 1 
   1       0.9955759000     -1.0000000000
 D 1 
   1       0.3649441000     -1.0000000000
 F 2 
   1       2.6420115000      0.5931563945
   2       0.7345613000      0.5931563945
 G 1 
   1       1.3931000000     -1.0000000000
  end;



           ************************************************************
           *        Program running with 4 parallel MPI-processes     *
           *              working on a common directory               *
           ************************************************************
------------------------------------------------------------------------------
                           ORCA GTO INTEGRAL CALCULATION
                           -- RI-GTO INTEGRALS CHOSEN --
------------------------------------------------------------------------------
------------------------------------------------------------------------------
                   ___                                                        
                  /   \      - P O W E R E D   B Y -                         
                 /     \                                                     
                 |  |  |   _    _      __       _____    __    __             
                 |  |  |  | |  | |    /  \     |  _  \  |  |  /  |          
                  \  \/   | |  | |   /    \    | | | |  |  | /  /          
                 / \  \   | |__| |  /  /\  \   | |_| |  |  |/  /          
                |  |  |   |  __  | /  /__\  \  |    /   |      \           
                |  |  |   | |  | | |   __   |  |    \   |  |\   \          
                \     /   | |  | | |  |  |  |  | |\  \  |  | \   \       
                 \___/    |_|  |_| |__|  |__|  |_| \__\ |__|  \__/        
                                                                              
                      - O R C A' S   B I G   F R I E N D -                    
                                      &                                       
                       - I N T E G R A L  F E E D E R -                       
                                                                              
 v1 FN, 2020, v2 2021                                                         
------------------------------------------------------------------------------


Reading SHARK input file inpS.SHARKINP.tmp ... ok
----------------------
SHARK INTEGRAL PACKAGE
----------------------

Number of atoms                             ...     73
Number of basis functions                   ...    713
Number of shells                            ...    335
Maximum angular momentum                    ...      2
Integral batch strategy                     ... SHARK/LIBINT Hybrid
RI-J (if used) integral strategy            ... SPLIT-RIJ (Revised 2003 algorithm where possible)
Printlevel                                  ...      1
Contraction scheme used                     ... SEGMENTED contraction
Coulomb Range Separation                    ... NOT USED
Exchange Range Separation                   ... NOT USED
Finite Nucleus Model                        ... NOT USED
Auxiliary Coulomb fitting basis             ... AVAILABLE
   # of basis functions in Aux-J            ...   1905
   # of shells in Aux-J                     ...    655
   Maximum angular momentum in Aux-J        ...      4
Auxiliary J/K fitting basis                 ... NOT available
Auxiliary Correlation fitting basis         ... NOT available
Auxiliary 'external' fitting basis          ... NOT available
Integral threshold                          ...     3.000000e-11
Primitive cut-off                           ...     1.000000e-12
Primitive pair pre-selection threshold      ...     1.000000e-12

Calculating pre-screening integrals         ... done (  0.0 sec) Dimension = 335
Organizing shell pair data                  ... done (  0.2 sec)
Shell pair information
Total number of shell pairs                 ...     56280
Shell pairs after pre-screening             ...     31240
Total number of primitive shell pairs       ...    225367
Primitive shell pairs kept                  ...     73535
          la=0 lb=0:   9555 shell pairs
          la=1 lb=0:  12825 shell pairs
          la=1 lb=1:   4199 shell pairs
          la=2 lb=0:   2731 shell pairs
          la=2 lb=1:   1735 shell pairs
          la=2 lb=2:    195 shell pairs

Calculating one electron integrals          ... done (  0.1 sec)
Calculating RI/J V-Matrix + Cholesky decomp.... done (  0.2 sec)
Calculating Nuclear repulsion               ... done (  0.0 sec) ENN=   2758.696134257779 Eh

SHARK setup successfully completed in   0.6 seconds

Maximum memory used throughout the entire GTOINT-calculation: 60.8 MB


           ************************************************************
           *        Program running with 4 parallel MPI-processes     *
           *              working on a common directory               *
           ************************************************************
-------------------------------------------------------------------------------
                                 ORCA SCF
-------------------------------------------------------------------------------

------------
SCF SETTINGS
------------
Hamiltonian:
 Density Functional     Method          .... DFT(GTOs)
 Exchange Functional    Exchange        .... revTPSS
 Correlation Functional Correlation     .... revTPSS
 LDA part of GGA corr.  LDAOpt          .... PW91-LDA
 Gradients option       PostSCFGGA      .... off
   Density functional embedding theory  .... OFF
 RI-approximation to the Coulomb term is turned on
   Number of AuxJ basis functions       .... 1905


General Settings:
 Integral files         IntName         .... inpS
 Hartree-Fock type      HFTyp           .... RHF
 Total Charge           Charge          ....    0
 Multiplicity           Mult            ....    1
 Number of Electrons    NEL             ....  220
 Basis Dimension        Dim             ....  713
 Nuclear Repulsion      ENuc            ....   2758.6961342578 Eh

Convergence Acceleration:
 DIIS                   CNVDIIS         .... on
   Start iteration      DIISMaxIt       ....    12
   Startup error        DIISStart       ....  0.200000
   # of expansion vecs  DIISMaxEq       ....     5
   Bias factor          DIISBfac        ....   1.050
   Max. coefficient     DIISMaxC        ....  10.000
 Trust-Rad. Augm. Hess. CNVTRAH         .... auto
   Auto Start mean grad. ratio tolernc. ....  1.125000
   Auto Start start iteration           ....    20
   Auto Start num. interpolation iter.  ....    10
   Max. Number of Micro iterations      ....    16
   Max. Number of Macro iterations      .... Maxiter - #DIIS iter
   Number of Davidson start vectors     ....     2
   Converg. threshold I  (grad. norm)   ....   1.000e-04
   Converg. threshold II (energy diff.) ....   1.000e-07
   Grad. Scal. Fac. for Micro threshold ....   0.100
   Minimum threshold for Micro iter.    ....   0.010
   NR start threshold (gradient norm)   ....   0.001
   Initial trust radius                 ....   0.400
   Minimum AH scaling param. (alpha)    ....   1.000
   Maximum AH scaling param. (alpha)    .... 1000.000
   Orbital update algorithm             .... Taylor
   White noise on init. David. guess    .... on
   Maximum white noise                  ....   0.010
   Quad. conv. algorithm                .... NR
 SOSCF                  CNVSOSCF        .... off
 Level Shifting         CNVShift        .... on
   Level shift para.    LevelShift      ....    0.2500
   Turn off err/grad.   ShiftErr        ....    0.0010
 Zerner damping         CNVZerner       .... off
 Static damping         CNVDamp         .... on
   Fraction old density DampFac         ....    0.7000
   Max. Damping (<1)    DampMax         ....    0.9800
   Min. Damping (>=0)   DampMin         ....    0.0000
   Turn off err/grad.   DampErr         ....    0.1000
 Fernandez-Rico         CNVRico         .... off

SCF Procedure:
 Maximum # iterations   MaxIter         ....   125
 SCF integral mode      SCFMode         .... Direct
   Integral package                     .... SHARK and LIBINT hybrid scheme
 Reset frequency        DirectResetFreq ....    20
 Integral Threshold     Thresh          ....  3.000e-11 Eh
 Primitive CutOff       TCut            ....  1.000e-12 Eh

Convergence Tolerance:
 Convergence Check Mode ConvCheckMode   .... Total+1el-Energy
 Convergence forced     ConvForced      .... 0
 Energy Change          TolE            ....  1.000e-07 Eh
 1-El. energy change                    ....  1.000e-04 Eh
 DIIS Error             TolErr          ....  1.000e-07


Diagonalization of the overlap matrix:
Smallest eigenvalue                        ... 5.052e-04
Time for diagonalization                   ...    0.062 sec
Threshold for overlap eigenvalues          ... 1.000e-08
Number of eigenvalues below threshold      ... 0
Time for construction of square roots      ...    0.063 sec
Total time needed                          ...    0.128 sec

Time for model grid setup =    0.774 sec

------------------------------
INITIAL GUESS: MODEL POTENTIAL
------------------------------
Loading Hartree-Fock densities                     ... done
Calculating cut-offs                               ... done
Initializing the effective Hamiltonian             ... done
Setting up the integral package (SHARK)            ... done
Starting the Coulomb interaction                   ... done (   0.7 sec)
Reading the grid                                   ... done
Mapping shells                                     ... done
Starting the XC term evaluation                    ... done (   0.3 sec)
  promolecular density results
     # of electrons  =    219.986529426
     EX              =   -164.428545468
     EC              =     -7.321154660
     EX+EC           =   -171.749700127
Transforming the Hamiltonian                       ... done (   0.0 sec)
Diagonalizing the Hamiltonian                      ... done (   0.1 sec)
Back transforming the eigenvectors                 ... done (   0.0 sec)
Now organizing SCF variables                       ... done
                      ------------------
                      INITIAL GUESS DONE (   1.9 sec)
                      ------------------
-------------------
DFT GRID GENERATION
-------------------

General Integration Accuracy     IntAcc      ... 4.388
Radial Grid Type                 RadialGrid  ... OptM3 with GC (2021)
Angular Grid (max. ang.)         AngularGrid ... 4 (Lebedev-302)
Angular grid pruning method      GridPruning ... 4 (adaptive)
Weight generation scheme         WeightScheme... Becke
Basis function cutoff            BFCut       ... 1.0000e-11
Integration weight cutoff        WCut        ... 1.0000e-14
Angular grids for H and He will be reduced by one unit
Partially contracted basis set               ... off
Rotationally invariant grid construction     ... off

Total number of grid points                  ...   309954
Total number of batches                      ...     4876
Average number of points per batch           ...       63
Average number of grid points per atom       ...     4246
Time for grid setup =    3.062 sec


--------------------
CPCM SOLVATION MODEL
--------------------
CPCM parameters:
  Epsilon                                         ...       4.9000
  Refrac                                          ...       1.4500
  Rsolv                                           ...       1.3000
  Surface type                                    ... GAUSSIAN VDW
  Epsilon function type                           ...         CPCM
Radii:
 Radius for C  used is    3.8550 Bohr (=   2.0400 Ang.)
 Radius for H  used is    2.4944 Bohr (=   1.3200 Ang.)
 Radius for O  used is    3.4469 Bohr (=   1.8240 Ang.)
Calculating surface                               ...        done! (  0.0s)
GEPOL surface points                              ...         3676
GEPOL Volume                                      ...    3605.9166
GEPOL Surface-area                                ...    1803.6052
Calculating surface distance matrix               ...        done! (  0.1s)
Performing Cholesky decomposition & store         ...        done! (  0.5s)
Overall time for CPCM initialization              ...                 0.6s
--------------
SCF ITERATIONS
--------------
ITER       Energy         Delta-E        Max-DP      RMS-DP      [F,P]     Damp
               ***  Starting incremental Fock matrix formation  ***

  HOMO= 109 E= -1.855 eV LUMO=  7.831 eV gap=   9.686 eV
  0  -1167.5256325983   0.000000000000 0.05299745  0.00082772  0.2614564 0.7000

  HOMO= 109 E= -3.342 eV LUMO=  6.719 eV gap=  10.061 eV
  1  -1167.8988859270  -0.373253328683 0.02897203  0.00061188  0.1018726 0.7000
                               ***Turning on DIIS***

  HOMO= 109 E= -4.320 eV LUMO=  5.828 eV gap=  10.147 eV
  2  -1168.0456695029  -0.146783575847 0.05167074  0.00101011  0.0305421 0.0000

  HOMO= 109 E= -4.949 eV LUMO=  5.235 eV gap=  10.183 eV
  3  -1168.2427462676  -0.197076764707 0.02327810  0.00047216  0.0551177 0.0000

  HOMO= 109 E= -4.985 eV LUMO=  5.199 eV gap=  10.184 eV
  4  -1168.3100583181  -0.067312050499 0.00754642  0.00015277  0.0103353 0.0000

  HOMO= 109 E= -4.937 eV LUMO=  5.254 eV gap=  10.191 eV
  5  -1168.3131673676  -0.003109049511 0.00310968  0.00005694  0.0093204 0.0000

  HOMO= 109 E= -4.917 eV LUMO=  5.271 eV gap=  10.188 eV
  6  -1168.3134417396  -0.000274372058 0.00121885  0.00001929  0.0028024 0.0000

  HOMO= 109 E= -4.919 eV LUMO= -1.534 eV gap=   3.385 eV
  7  -1168.3134618544  -0.000020114771 0.00071287  0.00001172  0.0005700 0.0000

  HOMO= 109 E= -4.917 eV LUMO= -1.532 eV gap=   3.385 eV
  8  -1168.3134648651  -0.000003010741 0.00026429  0.00000290  0.0003859 0.0000

  HOMO= 109 E= -4.915 eV LUMO= -1.530 eV gap=   3.385 eV
  9  -1168.3134655036  -0.000000638417 0.00016152  0.00000158  0.0002646 0.0000

  HOMO= 109 E= -4.915 eV LUMO= -1.530 eV gap=   3.385 eV
 10  -1168.3134657568  -0.000000253209 0.00006630  0.00000072  0.0000984 0.0000

  HOMO= 109 E= -4.916 eV LUMO= -1.530 eV gap=   3.385 eV
 11  -1168.3134657936  -0.000000036792 0.00002776  0.00000029  0.0000362 0.0000

  HOMO= 109 E= -4.916 eV LUMO= -1.530 eV gap=   3.385 eV
 12  -1168.3134657751   0.000000018409 0.00001366  0.00000013  0.0000188 0.0000

  HOMO= 109 E= -4.916 eV LUMO= -1.530 eV gap=   3.385 eV
 13  -1168.3134658011  -0.000000025978 0.00000681  0.00000006  0.0000080 0.0000
                 **** Energy Check signals convergence ****

               *****************************************************
               *                     SUCCESS                       *
               *           SCF CONVERGED AFTER  14 CYCLES          *
               *****************************************************


----------------
TOTAL SCF ENERGY
----------------

Total Energy       :        -1168.31346583 Eh          -31791.42565 eV

Components:
Nuclear Repulsion  :         2758.69613426 Eh           75067.93819 eV
Electronic Energy  :        -3927.00960009 Eh         -106859.36384 eV
One Electron Energy:        -7063.81992664 Eh         -192216.31229 eV
Two Electron Energy:         3136.81032655 Eh           85356.94845 eV
CPCM Dielectric    :           -0.01025107 Eh              -0.27895 eV

Virial components:
Potential Energy   :        -2330.42171128 Eh          -63413.99867 eV
Kinetic Energy     :         1162.10824545 Eh           31622.57302 eV
Virial Ratio       :            2.00533962


DFT components:
N(Alpha)           :      110.000170838540 electrons
N(Beta)            :      110.000170838540 electrons
N(Total)           :      220.000341677080 electrons
E(X)               :     -169.583563588949 Eh       
E(C)               :       -7.440469763554 Eh       
E(XC)              :     -177.024033352503 Eh       
DFET-embed. en.    :        0.000000000000 Eh       
CPCM Solvation Model Properties:
Surface-charge          :           -0.04553675
Charge-correction       :           -0.00002553 Eh              -0.00069 eV
Free-energy (cav+disp)  :  This term is not implemented in the current solvation scheme

---------------
SCF CONVERGENCE
---------------

  Last Energy change         ...   -2.9417e-08  Tolerance :   1.0000e-07
  Last MAX-Density change    ...    2.9655e-06  Tolerance :   1.0000e-05
  Last RMS-Density change    ...    2.8334e-08  Tolerance :   1.0000e-06
  Last DIIS Error            ...    3.7070e-06  Tolerance :   1.0000e-07

             **** THE GBW FILE WAS UPDATED (inpS.gbw) ****
             **** DENSITY inpS.scfp WAS UPDATED ****
             **** ENERGY FILE WAS UPDATED (inpS.en.tmp) ****
             **** THE GBW FILE WAS UPDATED (inpS.gbw) ****
             **** DENSITY inpS.scfp WAS UPDATED ****
----------------
ORBITAL ENERGIES
----------------

  NO   OCC          E(Eh)            E(eV) 
   0   2.0000     -18.905590      -514.4473 
   1   2.0000     -10.057057      -273.6664 
   2   2.0000     -10.015891      -272.5463 
   3   2.0000     -10.013455      -272.4800 
   4   2.0000     -10.013346      -272.4770 
   5   2.0000     -10.011314      -272.4217 
   6   2.0000     -10.010203      -272.3915 
   7   2.0000     -10.009926      -272.3839 
   8   2.0000     -10.008533      -272.3460 
   9   2.0000     -10.008313      -272.3400 
  10   2.0000     -10.007819      -272.3266 
  11   2.0000     -10.007018      -272.3048 
  12   2.0000     -10.006779      -272.2983 
  13   2.0000     -10.006556      -272.2922 
  14   2.0000     -10.005546      -272.2648 
  15   2.0000     -10.005355      -272.2595 
  16   2.0000     -10.004217      -272.2286 
  17   2.0000     -10.000980      -272.1405 
  18   2.0000     -10.000291      -272.1217 
  19   2.0000      -9.999055      -272.0881 
  20   2.0000      -9.998373      -272.0696 
  21   2.0000      -9.998351      -272.0690 
  22   2.0000      -9.997792      -272.0537 
  23   2.0000      -9.997610      -272.0488 
  24   2.0000      -9.997484      -272.0454 
  25   2.0000      -9.996391      -272.0156 
  26   2.0000      -9.995086      -271.9801 
  27   2.0000      -9.994850      -271.9737 
  28   2.0000      -9.993735      -271.9434 
  29   2.0000      -0.955879       -26.0108 
  30   2.0000      -0.807063       -21.9613 
  31   2.0000      -0.790974       -21.5235 
  32   2.0000      -0.769901       -20.9501 
  33   2.0000      -0.756494       -20.5852 
  34   2.0000      -0.734228       -19.9794 
  35   2.0000      -0.727378       -19.7930 
  36   2.0000      -0.708439       -19.2776 
  37   2.0000      -0.707993       -19.2655 
  38   2.0000      -0.693380       -18.8678 
  39   2.0000      -0.675327       -18.3766 
  40   2.0000      -0.659441       -17.9443 
  41   2.0000      -0.654305       -17.8045 
  42   2.0000      -0.635042       -17.2804 
  43   2.0000      -0.628377       -17.0990 
  44   2.0000      -0.622896       -16.9499 
  45   2.0000      -0.616111       -16.7652 
  46   2.0000      -0.589935       -16.0529 
  47   2.0000      -0.582375       -15.8472 
  48   2.0000      -0.557192       -15.1620 
  49   2.0000      -0.548966       -14.9381 
  50   2.0000      -0.547354       -14.8943 
  51   2.0000      -0.536379       -14.5956 
  52   2.0000      -0.526470       -14.3260 
  53   2.0000      -0.513128       -13.9629 
  54   2.0000      -0.495851       -13.4928 
  55   2.0000      -0.481306       -13.0970 
  56   2.0000      -0.472754       -12.8643 
  57   2.0000      -0.464043       -12.6273 
  58   2.0000      -0.451238       -12.2788 
  59   2.0000      -0.444259       -12.0889 
  60   2.0000      -0.430714       -11.7203 
  61   2.0000      -0.429640       -11.6911 
  62   2.0000      -0.415073       -11.2947 
  63   2.0000      -0.413898       -11.2627 
  64   2.0000      -0.413043       -11.2395 
  65   2.0000      -0.405290       -11.0285 
  66   2.0000      -0.402777       -10.9601 
  67   2.0000      -0.397676       -10.8213 
  68   2.0000      -0.395497       -10.7620 
  69   2.0000      -0.391684       -10.6583 
  70   2.0000      -0.387250       -10.5376 
  71   2.0000      -0.380638       -10.3577 
  72   2.0000      -0.375897       -10.2287 
  73   2.0000      -0.372305       -10.1309 
  74   2.0000      -0.371794       -10.1170 
  75   2.0000      -0.365802        -9.9540 
  76   2.0000      -0.358182        -9.7466 
  77   2.0000      -0.357149        -9.7185 
  78   2.0000      -0.352954        -9.6044 
  79   2.0000      -0.349938        -9.5223 
  80   2.0000      -0.345226        -9.3941 
  81   2.0000      -0.344426        -9.3723 
  82   2.0000      -0.342636        -9.3236 
  83   2.0000      -0.336095        -9.1456 
  84   2.0000      -0.334469        -9.1014 
  85   2.0000      -0.330645        -8.9973 
  86   2.0000      -0.324122        -8.8198 
  87   2.0000      -0.320403        -8.7186 
  88   2.0000      -0.316922        -8.6239 
  89   2.0000      -0.312961        -8.5161 
  90   2.0000      -0.310786        -8.4569 
  91   2.0000      -0.305791        -8.3210 
  92   2.0000      -0.301852        -8.2138 
  93   2.0000      -0.294054        -8.0016 
  94   2.0000      -0.289698        -7.8831 
  95   2.0000      -0.286215        -7.7883 
  96   2.0000      -0.284600        -7.7444 
  97   2.0000      -0.284112        -7.7311 
  98   2.0000      -0.280079        -7.6213 
  99   2.0000      -0.279255        -7.5989 
 100   2.0000      -0.276980        -7.5370 
 101   2.0000      -0.274893        -7.4802 
 102   2.0000      -0.268996        -7.3198 
 103   2.0000      -0.267855        -7.2887 
 104   2.0000      -0.260990        -7.1019 
 105   2.0000      -0.247595        -6.7374 
 106   2.0000      -0.233320        -6.3490 
 107   2.0000      -0.227295        -6.1850 
 108   2.0000      -0.213094        -5.7986 
 109   2.0000      -0.180644        -4.9156 
 110   0.0000      -0.056241        -1.5304 
 111   0.0000      -0.013213        -0.3595 
 112   0.0000      -0.006986        -0.1901 
 113   0.0000       0.032569         0.8862 
 114   0.0000       0.040981         1.1151 
 115   0.0000       0.041453         1.1280 
 116   0.0000       0.047089         1.2814 
 117   0.0000       0.048535         1.3207 
 118   0.0000       0.050931         1.3859 
 119   0.0000       0.053777         1.4633 
 120   0.0000       0.060813         1.6548 
 121   0.0000       0.065758         1.7894 
 122   0.0000       0.069025         1.8783 
 123   0.0000       0.071397         1.9428 
 124   0.0000       0.075254         2.0478 
 125   0.0000       0.077472         2.1081 
 126   0.0000       0.083932         2.2839 
 127   0.0000       0.085389         2.3236 
 128   0.0000       0.088778         2.4158 
 129   0.0000       0.093458         2.5431 
 130   0.0000       0.096486         2.6255 
 131   0.0000       0.099757         2.7145 
 132   0.0000       0.104529         2.8444 
 133   0.0000       0.106874         2.9082 
 134   0.0000       0.107463         2.9242 
 135   0.0000       0.111128         3.0239 
 136   0.0000       0.113539         3.0896 
 137   0.0000       0.120916         3.2903 
 138   0.0000       0.123351         3.3566 
 139   0.0000       0.125081         3.4036 
 140   0.0000       0.127666         3.4740 
 141   0.0000       0.128915         3.5079 
 142   0.0000       0.133014         3.6195 
 143   0.0000       0.134331         3.6553 
 144   0.0000       0.134951         3.6722 
 145   0.0000       0.139215         3.7882 
 146   0.0000       0.143913         3.9161 
 147   0.0000       0.145445         3.9578 
 148   0.0000       0.147597         4.0163 
 149   0.0000       0.149951         4.0804 
 150   0.0000       0.155510         4.2317 
 151   0.0000       0.158212         4.3052 
 152   0.0000       0.161476         4.3940 
 153   0.0000       0.165644         4.5074 
 154   0.0000       0.168971         4.5979 
 155   0.0000       0.170461         4.6385 
 156   0.0000       0.175369         4.7720 
 157   0.0000       0.177594         4.8326 
 158   0.0000       0.180935         4.9235 
 159   0.0000       0.182678         4.9709 
 160   0.0000       0.185216         5.0400 
 161   0.0000       0.191374         5.2076 
 162   0.0000       0.195044         5.3074 
 163   0.0000       0.196705         5.3526 
 164   0.0000       0.200807         5.4642 
 165   0.0000       0.202758         5.5173 
 166   0.0000       0.205387         5.5889 
 167   0.0000       0.207401         5.6437 
 168   0.0000       0.214121         5.8265 
 169   0.0000       0.219907         5.9840 
 170   0.0000       0.224855         6.1186 
 171   0.0000       0.226920         6.1748 
 172   0.0000       0.229916         6.2563 
 173   0.0000       0.230292         6.2666 
 174   0.0000       0.239390         6.5141 
 175   0.0000       0.245821         6.6891 
 176   0.0000       0.251132         6.8336 
 177   0.0000       0.255903         6.9635 
 178   0.0000       0.261862         7.1256 
 179   0.0000       0.270204         7.3526 
 180   0.0000       0.274657         7.4738 
 181   0.0000       0.277273         7.5450 
 182   0.0000       0.285521         7.7694 
 183   0.0000       0.293757         7.9935 
 184   0.0000       0.295679         8.0458 
 185   0.0000       0.316480         8.6119 
 186   0.0000       0.332155         9.0384 
 187   0.0000       0.339588         9.2407 
 188   0.0000       0.346351         9.4247 
 189   0.0000       0.348733         9.4895 
 190   0.0000       0.354194         9.6381 
 191   0.0000       0.356396         9.6980 
 192   0.0000       0.364375         9.9152 
 193   0.0000       0.370424        10.0798 
 194   0.0000       0.373168        10.1544 
 195   0.0000       0.375876        10.2281 
 196   0.0000       0.379779        10.3343 
 197   0.0000       0.381338        10.3767 
 198   0.0000       0.386965        10.5299 
 199   0.0000       0.393855        10.7173 
 200   0.0000       0.399707        10.8766 
 201   0.0000       0.402773        10.9600 
 202   0.0000       0.407758        11.0956 
 203   0.0000       0.414149        11.2696 
 204   0.0000       0.422370        11.4933 
 205   0.0000       0.432945        11.7810 
 206   0.0000       0.437126        11.8948 
 207   0.0000       0.442872        12.0512 
 208   0.0000       0.446546        12.1511 
 209   0.0000       0.453990        12.3537 
 210   0.0000       0.460244        12.5239 
 211   0.0000       0.463261        12.6060 
 212   0.0000       0.469206        12.7677 
 213   0.0000       0.473353        12.8806 
 214   0.0000       0.479594        13.0504 
 215   0.0000       0.481809        13.1107 
 216   0.0000       0.485945        13.2232 
 217   0.0000       0.492170        13.3926 
 218   0.0000       0.493842        13.4381 
 219   0.0000       0.504548        13.7294 
 220   0.0000       0.506122        13.7723 
 221   0.0000       0.513694        13.9783 
 222   0.0000       0.515670        14.0321 
 223   0.0000       0.523452        14.2439 
 224   0.0000       0.530465        14.4347 
 225   0.0000       0.531362        14.4591 
 226   0.0000       0.539391        14.6776 
 227   0.0000       0.541793        14.7429 
 228   0.0000       0.544407        14.8141 
 229   0.0000       0.547501        14.8983 
 230   0.0000       0.551917        15.0184 
 231   0.0000       0.553990        15.0748 
 232   0.0000       0.558830        15.2065 
 233   0.0000       0.564086        15.3495 
 234   0.0000       0.567844        15.4518 
 235   0.0000       0.568759        15.4767 
 236   0.0000       0.572288        15.5728 
 237   0.0000       0.574441        15.6313 
 238   0.0000       0.576193        15.6790 
 239   0.0000       0.580672        15.8009 
 240   0.0000       0.584200        15.8969 
 241   0.0000       0.585289        15.9265 
 242   0.0000       0.588205        16.0059 
 243   0.0000       0.589578        16.0432 
 244   0.0000       0.590845        16.0777 
 245   0.0000       0.593713        16.1557 
 246   0.0000       0.595879        16.2147 
 247   0.0000       0.598223        16.2785 
 248   0.0000       0.600933        16.3522 
 249   0.0000       0.605190        16.4681 
 250   0.0000       0.605779        16.4841 
 251   0.0000       0.608817        16.5668 
 252   0.0000       0.611236        16.6326 
 253   0.0000       0.613803        16.7024 
 254   0.0000       0.619148        16.8479 
 255   0.0000       0.621851        16.9214 
 256   0.0000       0.623104        16.9555 
 257   0.0000       0.624288        16.9878 
 258   0.0000       0.628141        17.0926 
 259   0.0000       0.631402        17.1813 
 260   0.0000       0.632696        17.2165 
 261   0.0000       0.633848        17.2479 
 262   0.0000       0.639913        17.4129 
 263   0.0000       0.640731        17.4352 
 264   0.0000       0.643397        17.5077 
 265   0.0000       0.646788        17.6000 
 266   0.0000       0.650953        17.7133 
 267   0.0000       0.652973        17.7683 
 268   0.0000       0.654523        17.8105 
 269   0.0000       0.657850        17.9010 
 270   0.0000       0.660421        17.9710 
 271   0.0000       0.662504        18.0276 
 272   0.0000       0.663856        18.0644 
 273   0.0000       0.667854        18.1732 
 274   0.0000       0.668922        18.2023 
 275   0.0000       0.673722        18.3329 
 276   0.0000       0.678361        18.4591 
 277   0.0000       0.679970        18.5029 
 278   0.0000       0.687240        18.7008 
 279   0.0000       0.690158        18.7802 
 280   0.0000       0.694905        18.9093 
 281   0.0000       0.696999        18.9663 
 282   0.0000       0.703271        19.1370 
 283   0.0000       0.705493        19.1974 
 284   0.0000       0.707144        19.2424 
 285   0.0000       0.713540        19.4164 
 286   0.0000       0.718679        19.5563 
 287   0.0000       0.724843        19.7240 
 288   0.0000       0.726729        19.7753 
 289   0.0000       0.731929        19.9168 
 290   0.0000       0.733122        19.9493 
 291   0.0000       0.736563        20.0429 
 292   0.0000       0.743575        20.2337 
 293   0.0000       0.748850        20.3773 
 294   0.0000       0.755907        20.5693 
 295   0.0000       0.761535        20.7224 
 296   0.0000       0.769226        20.9317 
 297   0.0000       0.772347        21.0166 
 298   0.0000       0.782002        21.2794 
 299   0.0000       0.786899        21.4126 
 300   0.0000       0.793974        21.6051 
 301   0.0000       0.805528        21.9195 
 302   0.0000       0.809305        22.0223 
 303   0.0000       0.828080        22.5332 
 304   0.0000       0.835622        22.7384 
 305   0.0000       0.846098        23.0235 
 306   0.0000       0.856489        23.3063 
 307   0.0000       0.865979        23.5645 
 308   0.0000       0.886504        24.1230 
 309   0.0000       0.896935        24.4069 
 310   0.0000       0.915615        24.9152 
 311   0.0000       0.925165        25.1750 
 312   0.0000       0.936280        25.4775 
 313   0.0000       0.952388        25.9158 
 314   0.0000       0.956164        26.0185 
 315   0.0000       0.969035        26.3688 
 316   0.0000       0.989039        26.9131 
 317   0.0000       1.024429        27.8761 
 318   0.0000       1.031909        28.0797 
 319   0.0000       1.042182        28.3592 
 320   0.0000       1.060112        28.8471 
 321   0.0000       1.064101        28.9557 
 322   0.0000       1.087472        29.5916 
 323   0.0000       1.097702        29.8700 
 324   0.0000       1.120559        30.4920 
 325   0.0000       1.126299        30.6481 
 326   0.0000       1.140582        31.0368 
 327   0.0000       1.149778        31.2871 
 328   0.0000       1.170943        31.8630 
 329   0.0000       1.181362        32.1465 
 330   0.0000       1.193476        32.4761 
 331   0.0000       1.196553        32.5599 
 332   0.0000       1.225877        33.3578 
 333   0.0000       1.249021        33.9876 
 334   0.0000       1.263167        34.3725 
 335   0.0000       1.272577        34.6286 
 336   0.0000       1.275632        34.7117 
 337   0.0000       1.278324        34.7850 
 338   0.0000       1.289004        35.0756 
 339   0.0000       1.308087        35.5949 
 340   0.0000       1.312869        35.7250 
 341   0.0000       1.329867        36.1875 
 342   0.0000       1.338045        36.4100 
 343   0.0000       1.361254        37.0416 
 344   0.0000       1.363460        37.1016 
 345   0.0000       1.380456        37.5641 
 346   0.0000       1.388476        37.7824 
 347   0.0000       1.394183        37.9377 
 348   0.0000       1.409206        38.3464 
 349   0.0000       1.417887        38.5827 
 350   0.0000       1.423562        38.7371 
 351   0.0000       1.431506        38.9533 
 352   0.0000       1.440064        39.1861 
 353   0.0000       1.443700        39.2851 
 354   0.0000       1.453619        39.5550 
 355   0.0000       1.461265        39.7630 
 356   0.0000       1.471804        40.0498 
 357   0.0000       1.487277        40.4709 
 358   0.0000       1.493279        40.6342 
 359   0.0000       1.513320        41.1795 
 360   0.0000       1.515234        41.2316 
 361   0.0000       1.520512        41.3752 
 362   0.0000       1.532743        41.7081 
 363   0.0000       1.548028        42.1240 
 364   0.0000       1.554575        42.3021 
 365   0.0000       1.563149        42.5354 
 366   0.0000       1.563966        42.5577 
 367   0.0000       1.575142        42.8618 
 368   0.0000       1.580295        43.0020 
 369   0.0000       1.600090        43.5407 
 370   0.0000       1.602533        43.6071 
 371   0.0000       1.611520        43.8517 
 372   0.0000       1.624987        44.2181 
 373   0.0000       1.630870        44.3782 
 374   0.0000       1.636995        44.5449 
 375   0.0000       1.646581        44.8058 
 376   0.0000       1.652594        44.9694 
 377   0.0000       1.665953        45.3329 
 378   0.0000       1.675124        45.5825 
 379   0.0000       1.679246        45.6946 
 380   0.0000       1.686206        45.8840 
 381   0.0000       1.695555        46.1384 
 382   0.0000       1.702531        46.3282 
 383   0.0000       1.702768        46.3347 
 384   0.0000       1.718152        46.7533 
 385   0.0000       1.724899        46.9369 
 386   0.0000       1.727016        46.9945 
 387   0.0000       1.733130        47.1609 
 388   0.0000       1.736940        47.2645 
 389   0.0000       1.742417        47.4136 
 390   0.0000       1.743820        47.4518 
 391   0.0000       1.749964        47.6189 
 392   0.0000       1.753034        47.7025 
 393   0.0000       1.758658        47.8555 
 394   0.0000       1.769669        48.1552 
 395   0.0000       1.770858        48.1875 
 396   0.0000       1.773840        48.2686 
 397   0.0000       1.781165        48.4680 
 398   0.0000       1.784680        48.5636 
 399   0.0000       1.791418        48.7470 
 400   0.0000       1.798857        48.9494 
 401   0.0000       1.801367        49.0177 
 402   0.0000       1.805347        49.1260 
 403   0.0000       1.814575        49.3771 
 404   0.0000       1.819290        49.5054 
 405   0.0000       1.828541        49.7571 
 406   0.0000       1.835631        49.9501 
 407   0.0000       1.839977        50.0683 
 408   0.0000       1.843757        50.1712 
 409   0.0000       1.848138        50.2904 
 410   0.0000       1.856121        50.5076 
 411   0.0000       1.868933        50.8563 
 412   0.0000       1.870004        50.8854 
 413   0.0000       1.877359        51.0855 
 414   0.0000       1.886111        51.3237 
 415   0.0000       1.891846        51.4797 
 416   0.0000       1.895193        51.5708 
 417   0.0000       1.905137        51.8414 
 418   0.0000       1.910030        51.9746 
 419   0.0000       1.918937        52.2169 
 420   0.0000       1.931146        52.5492 
 421   0.0000       1.935804        52.6759 
 422   0.0000       1.940058        52.7916 
 423   0.0000       1.944907        52.9236 
 424   0.0000       1.948683        53.0264 
 425   0.0000       1.952863        53.1401 
 426   0.0000       1.962794        53.4103 
 427   0.0000       1.963635        53.4332 
 428   0.0000       1.971203        53.6392 
 429   0.0000       1.974195        53.7206 
 430   0.0000       1.981275        53.9132 
 431   0.0000       1.985553        54.0296 
 432   0.0000       1.991142        54.1817 
 433   0.0000       1.993379        54.2426 
 434   0.0000       1.997603        54.3575 
 435   0.0000       2.003136        54.5081 
 436   0.0000       2.004858        54.5549 
 437   0.0000       2.010619        54.7117 
 438   0.0000       2.013777        54.7976 
 439   0.0000       2.024691        55.0946 
 440   0.0000       2.025908        55.1278 
 441   0.0000       2.032765        55.3144 
 442   0.0000       2.037426        55.4412 
 443   0.0000       2.044168        55.6246 
[...]

 --------------
 Nucleus  47H :
 --------------

Diamagnetic contribution to the shielding tensor (ppm) : 
            31.360          2.598         0.384
            -0.543         49.417        -2.668
             1.077         -1.768        42.031

Paramagnetic contribution to the shielding tensor (ppm): 
            -2.501         -2.209         0.336
             1.222        -16.029        -0.715
            -1.142         -1.715       -10.371

Total shielding tensor (ppm): 
            28.860          0.388         0.720
             0.679         33.388        -3.383
            -0.065         -3.483        31.660


 Diagonalized sT*s matrix:
 
 sDSO            35.253           38.756           48.800  iso=      40.936
 sPSO            -6.924           -9.248          -12.730  iso=      -9.634
        ---------------  ---------------  ---------------
 Total           28.329           29.508           36.070  iso=      31.302

 --------------
 Nucleus  48H :
 --------------

Diamagnetic contribution to the shielding tensor (ppm) : 
            37.387         -0.453        -1.103
            -8.805         39.082         0.490
            -2.949         -0.938        44.711

Paramagnetic contribution to the shielding tensor (ppm): 
            -5.208          1.878         0.830
            10.557        -10.569        -1.912
             1.823         -1.074       -15.466

Total shielding tensor (ppm): 
            32.179          1.425        -0.273
             1.751         28.512        -1.422
            -1.126         -2.012        29.245


 Diagonalized sT*s matrix:
 
 sDSO            42.315           42.511           36.354  iso=      40.393
 sPSO           -15.331          -12.766           -3.147  iso=     -10.415
        ---------------  ---------------  ---------------
 Total           26.984           29.744           33.208  iso=      29.979

 --------------
 Nucleus  52H :
 --------------

Diamagnetic contribution to the shielding tensor (ppm) : 
            39.822         -1.117         2.991
             0.685         39.939        -4.847
             5.582         -9.197        40.195

Paramagnetic contribution to the shielding tensor (ppm): 
            -9.439          4.225        -3.939
             1.774        -13.720         5.139
            -5.952         10.044       -17.337

Total shielding tensor (ppm): 
            30.383          3.108        -0.949
             2.460         26.219         0.292
            -0.370          0.847        22.858


 Diagonalized sT*s matrix:
 
 sDSO            45.361           34.982           39.613  iso=      39.985
 sPSO           -22.800           -9.872           -7.824  iso=     -13.499
        ---------------  ---------------  ---------------
 Total           22.561           25.110           31.789  iso=      26.487

 --------------
 Nucleus  53H :
 --------------

Diamagnetic contribution to the shielding tensor (ppm) : 
            39.257         -0.799         4.368
            -4.370         39.093       -10.682
             3.084         -8.818        49.217

Paramagnetic contribution to the shielding tensor (ppm): 
            -8.749          4.904        -6.500
             7.836        -13.262        10.382
            -4.485          9.110       -26.165

Total shielding tensor (ppm): 
            30.508          4.105        -2.133
             3.466         25.831        -0.300
            -1.401          0.292        23.052


 Diagonalized sT*s matrix:
 
 sDSO            55.736           33.998           37.832  iso=      42.522
 sPSO           -33.433           -9.773           -4.969  iso=     -16.059
        ---------------  ---------------  ---------------
 Total           22.303           24.225           32.863  iso=      26.464

 --------------
 Nucleus  57H :
 --------------

Diamagnetic contribution to the shielding tensor (ppm) : 
            35.272         -0.503         3.262
             8.220         34.886       -12.401
            14.085        -13.306        40.043

Paramagnetic contribution to the shielding tensor (ppm): 
            -6.316          0.560        -3.145
            -8.014         -5.898        11.119
           -14.368         11.020        -8.114

Total shielding tensor (ppm): 
            28.956          0.056         0.117
             0.206         28.988        -1.282
            -0.283         -2.285        31.929


 Diagonalized sT*s matrix:
 
 sDSO            24.448           37.106           48.646  iso=      36.733
 sPSO             3.690           -8.146          -15.872  iso=      -6.776
        ---------------  ---------------  ---------------
 Total           28.138           28.960           32.774  iso=      29.957

 --------------
 Nucleus  58H :
 --------------

Diamagnetic contribution to the shielding tensor (ppm) : 
            38.758          8.152         3.546
            12.118         17.197        -5.586
            13.415         -4.728        24.078

Paramagnetic contribution to the shielding tensor (ppm): 
            -5.202         -5.407        -0.660
            -9.874         11.604         7.712
           -10.875          6.599         4.764

Total shielding tensor (ppm): 
            33.556          2.745         2.886
             2.244         28.801         2.126
             2.540          1.870        28.842


 Diagonalized sT*s matrix:
 
 sDSO            26.070           10.482           43.481  iso=      26.678
 sPSO             0.748           17.781           -7.363  iso=       3.722
        ---------------  ---------------  ---------------
 Total           26.818           28.264           36.118  iso=      30.400

 --------------
 Nucleus  61H :
 --------------

Diamagnetic contribution to the shielding tensor (ppm) : 
            30.814         -4.486        -6.405
            15.310         42.368        -0.991
             6.946          8.363        36.042

Paramagnetic contribution to the shielding tensor (ppm): 
             0.993          4.168         1.626
           -16.094        -12.378         4.087
           -10.958         -5.488        -5.606

Total shielding tensor (ppm): 
            31.807         -0.318        -4.779
            -0.783         29.991         3.096
            -4.012          2.876        30.437


 Diagonalized sT*s matrix:
 
 sDSO            31.321           44.366           33.538  iso=      36.408
 sPSO            -5.625          -14.308            2.943  iso=      -5.663
        ---------------  ---------------  ---------------
 Total           25.696           30.058           36.481  iso=      30.745

 --------------
 Nucleus  62H :
 --------------

Diamagnetic contribution to the shielding tensor (ppm) : 
            27.871         -3.657         4.759
             7.778         39.672       -13.824
            16.133         -7.553        37.558

Paramagnetic contribution to the shielding tensor (ppm): 
             1.020          1.325        -4.526
            -9.648         -6.758        11.084
           -15.919          5.992        -7.712

Total shielding tensor (ppm): 
            28.892         -2.332         0.232
            -1.869         32.914        -2.740
             0.214         -1.561        29.846


 Diagonalized sT*s matrix:
 
 sDSO            36.083           21.954           47.065  iso=      35.034
 sPSO            -8.373            7.287          -12.364  iso=      -4.483
        ---------------  ---------------  ---------------
 Total           27.710           29.241           34.700  iso=      30.551

 --------------
 Nucleus  63H :
 --------------

Diamagnetic contribution to the shielding tensor (ppm) : 
            29.882          7.850         6.297
            22.530         31.981        -6.842
            17.632          0.954        27.454

Paramagnetic contribution to the shielding tensor (ppm): 
             0.890         -4.716        -4.159
           -18.111          0.633        11.191
           -15.416          3.390         1.594

Total shielding tensor (ppm): 
            30.772          3.134         2.138
             4.419         32.614         4.349
             2.216          4.344        29.048


 Diagonalized sT*s matrix:
 
 sDSO            31.979           11.827           45.511  iso=      29.772
 sPSO            -5.878           16.398           -7.403  iso=       1.039
        ---------------  ---------------  ---------------
 Total           26.100           28.225           38.108  iso=      30.811

 --------------
 Nucleus  64H :
 --------------

Diamagnetic contribution to the shielding tensor (ppm) : 
            32.867          5.106        -9.961
             8.717          8.637        -3.539
           -17.033         -1.513        26.350

Paramagnetic contribution to the shielding tensor (ppm): 
             0.537         -3.972         4.991
            -7.650         19.155         1.227
            11.534         -0.610         5.634

Total shielding tensor (ppm): 
            33.404          1.134        -4.970
             1.067         27.792        -2.312
            -5.499         -2.124        31.985


 Diagonalized sT*s matrix:
 
 sDSO            13.605            9.605           44.644  iso=      22.618
 sPSO            12.823           18.677           -6.174  iso=       8.442
        ---------------  ---------------  ---------------
 Total           26.429           28.282           38.470  iso=      31.060

 --------------
 Nucleus  65H :
 --------------

Diamagnetic contribution to the shielding tensor (ppm) : 
            26.737          1.625         1.270
             3.791         27.531       -16.229
            -2.399         -8.465        30.544

Paramagnetic contribution to the shielding tensor (ppm): 
             0.452         -2.857        -3.301
            -5.404          7.767        14.223
             1.070          4.952        -1.289

Total shielding tensor (ppm): 
            27.189         -1.231        -2.030
            -1.613         35.298        -2.006
            -1.329         -3.513        29.255


 Diagonalized sT*s matrix:
 
 sDSO            24.970           24.808           35.035  iso=      28.271
 sPSO             0.549            4.989            1.392  iso=       2.310
        ---------------  ---------------  ---------------
 Total           25.519           29.797           36.426  iso=      30.581

 --------------
 Nucleus  66H :
 --------------

Diamagnetic contribution to the shielding tensor (ppm) : 
            31.947          4.640         5.964
             4.825         18.673        -9.381
            -5.307         -5.817        42.555

Paramagnetic contribution to the shielding tensor (ppm): 
            -0.061         -1.995        -3.991
            -2.672          8.909         9.699
             7.835          6.253        -8.445

Total shielding tensor (ppm): 
            31.886          2.645         1.974
             2.154         27.582         0.318
             2.528          0.435        34.110


 Diagonalized sT*s matrix:
 
 sDSO            16.492           39.726           36.957  iso=      31.058
 sPSO             9.971           -8.450           -1.119  iso=       0.134
        ---------------  ---------------  ---------------
 Total           26.463           31.276           35.839  iso=      31.193

 --------------
 Nucleus  67H :
 --------------

Diamagnetic contribution to the shielding tensor (ppm) : 
            36.373          2.066        -0.099
           -15.137         29.014         5.676
            -1.362         -2.596        24.160

Paramagnetic contribution to the shielding tensor (ppm): 
            -3.864         -0.522         0.151
            17.024          3.259        -2.553
             1.385          5.604         3.788

Total shielding tensor (ppm): 
            32.509          1.544         0.052
             1.887         32.272         3.124
             0.024          3.009        27.948


 Diagonalized sT*s matrix:
 
 sDSO            24.810           39.004           25.733  iso=      29.849
 sPSO             1.452           -7.425            9.155  iso=       1.061
        ---------------  ---------------  ---------------
 Total           26.262           31.579           34.888  iso=      30.910

 --------------
 Nucleus  68H :
 --------------

Diamagnetic contribution to the shielding tensor (ppm) : 
            32.173         -3.843        -0.053
           -14.624         23.570        -5.922
             6.646        -16.227        25.935

Paramagnetic contribution to the shielding tensor (ppm): 
            -2.144          0.972         1.921
            11.845          8.063         0.975
            -5.407         12.549         5.115

Total shielding tensor (ppm): 
            30.029         -2.871         1.868
            -2.779         31.633        -4.947
             1.239         -3.678        31.050


 Diagonalized sT*s matrix:
 
 sDSO            12.547           27.345           41.786  iso=      27.226
 sPSO            14.187            1.570           -4.723  iso=       3.678
        ---------------  ---------------  ---------------
 Total           26.733           28.915           37.063  iso=      30.904

 --------------
 Nucleus  69H :
 --------------

Diamagnetic contribution to the shielding tensor (ppm) : 
            39.511         -2.185        -8.974
           -11.936          7.292         4.674
            -7.076          1.768        19.056

Paramagnetic contribution to the shielding tensor (ppm): 
            -4.278         -0.774         5.317
             8.303         21.845        -3.681
             2.924         -1.436         9.023

Total shielding tensor (ppm): 
            35.233         -2.960        -3.657
            -3.633         29.137         0.993
            -4.152          0.333        28.079


 Diagonalized sT*s matrix:
 
 sDSO            15.653            7.053           43.152  iso=      21.953
 sPSO            10.452           21.138           -5.000  iso=       8.863
        ---------------  ---------------  ---------------
 Total           26.106           28.191           38.153  iso=      30.816

 --------------
 Nucleus  70H :
 --------------

Diamagnetic contribution to the shielding tensor (ppm) : 
            35.283         -6.955        -8.341
           -17.822         27.009         6.648
           -14.498          2.822        30.949

Paramagnetic contribution to the shielding tensor (ppm): 
            -1.054          6.023         3.377
            16.525          2.629        -4.039
             9.740         -0.314        -2.113

Total shielding tensor (ppm): 
            34.229         -0.932        -4.964
            -1.297         29.639         2.609
            -4.757          2.509        28.836


 Diagonalized sT*s matrix:
 
 sDSO            24.241           19.067           49.934  iso=      31.081
 sPSO             1.047           10.610          -12.195  iso=      -0.179
        ---------------  ---------------  ---------------
 Total           25.288           29.677           37.739  iso=      30.901

 --------------
 Nucleus  71H :
 --------------

Diamagnetic contribution to the shielding tensor (ppm) : 
            32.010          1.768         4.934
            -8.684         39.006        12.115
            -2.295          7.946        36.949

Paramagnetic contribution to the shielding tensor (ppm): 
             0.414         -0.842        -4.846
            10.848         -8.592        -7.057
             2.777         -3.460        -9.148

Total shielding tensor (ppm): 
            32.424          0.927         0.088
             2.164         30.414         5.058
             0.482          4.486        27.801


 Diagonalized sT*s matrix:
 
 sDSO            28.532           37.573           41.860  iso=      35.988
 sPSO            -4.434           -5.904           -6.988  iso=      -5.775
        ---------------  ---------------  ---------------
 Total           24.098           31.668           34.872  iso=      30.213

 --------------
 Nucleus  72H :
 --------------

Diamagnetic contribution to the shielding tensor (ppm) : 
            28.425         -7.158         0.811
           -14.633         41.090         1.049
            -2.880         -7.227        34.194

Paramagnetic contribution to the shielding tensor (ppm): 
             2.366          4.811        -0.464
            12.639         -7.749        -4.596
             2.803          4.912        -5.566

Total shielding tensor (ppm): 
            30.791         -2.348         0.347
            -1.994         33.341        -3.547
            -0.077         -2.315        28.628


 Diagonalized sT*s matrix:
 
 sDSO            29.971           26.741           46.996  iso=      34.570
 sPSO            -2.952            3.397          -11.393  iso=      -3.650
        ---------------  ---------------  ---------------
 Total           27.019           30.138           35.603  iso=      30.920



--------------------------------
CHEMICAL SHIELDING SUMMARY (ppm)
--------------------------------


  Nucleus  Element    Isotropic     Anisotropy
  -------  -------  ------------   ------------
      3       H           29.640          5.461 
      4       H           29.134          5.297 
      8       H           29.571          6.472 
      9       H           29.428          7.742 
     10       H           29.631          8.779 
     11       H           30.532          6.246 
     13       H           28.189          2.758 
     16       H           26.862          5.138 
     17       H           26.522          4.973 
     19       H           25.452         10.717 
     21       H           25.711         14.982 
     24       H           28.894          9.928 
     25       H           29.996          9.520 
     27       H           30.226          7.082 
     28       H           30.150         11.760 
     30       H           29.753          8.105 
     31       H           30.400          7.003 
     33       H           29.770          4.301 
     35       H           31.120         14.888 
     37       H           30.407         10.841 
     38       H           30.296          9.340 
     40       H           30.078          9.347 
     41       H           30.566          9.214 
     42       H           30.582          5.027 
     45       H           31.066          8.230 
     46       H           31.325          9.188 
     47       H           31.302          7.152 
     48       H           29.979          4.843 
     52       H           26.487          7.954 
     53       H           26.464          9.599 
     57       H           29.957          4.225 
     58       H           30.400          8.577 
     61       H           30.745          8.604 
     62       H           30.551          6.225 
     63       H           30.811         10.946 
     64       H           31.060         11.115 
     65       H           30.581          8.768 
     66       H           31.193          6.969 
     67       H           30.910          5.968 
     68       H           30.904          9.239 
     69       H           30.816         11.005 
     70       H           30.901         10.257 
     71       H           30.213          6.989 
     72       H           30.920          7.025 



Maximum memory used throughout the entire EPRNMR-calculation: 140.2 MB

Timings for individual modules:

Sum of individual times         ...      139.601 sec (=   2.327 min)
GTO integral calculation        ...        0.822 sec (=   0.014 min)   0.6 %
SCF iterations                  ...       93.317 sec (=   1.555 min)  66.8 %
EPR/NMR calculation             ...       45.462 sec (=   0.758 min)  32.6 %
                             ****ORCA TERMINATED NORMALLY****
TOTAL RUN TIME: 0 days 0 hours 2 minutes 20 seconds 59 msec
